/*--------------------------------*- C++ -*----------------------------------*\
  =========                 |
  \\      /  F ield         | OpenFOAM: The Open Source CFD Toolbox
   \\    /   O peration     | Website:  https://openfoam.org
    \\  /    A nd           | Version:  6
     \\/     M anipulation  |
\*---------------------------------------------------------------------------*/
FoamFile
{
    version     2.0;
    format      ascii;
    class       volScalarField;
    location    "0.23";
    object      T;
}
// * * * * * * * * * * * * * * * * * * * * * * * * * * * * * * * * * * * * * //

dimensions      [0 0 0 1 0 0 0];

internalField   nonuniform List<scalar> 
7000
(
103.509
103.509
103.508
103.507
103.506
103.505
103.504
103.502
103.501
103.501
103.509
103.509
103.508
103.507
103.506
103.505
103.504
103.502
103.501
103.501
103.509
103.509
103.508
103.507
103.506
103.505
103.504
103.502
103.501
103.501
103.509
103.509
103.508
103.507
103.506
103.505
103.503
103.502
103.501
103.501
103.509
103.509
103.508
103.507
103.506
103.505
103.503
103.502
103.501
103.501
103.509
103.509
103.508
103.507
103.506
103.505
103.503
103.502
103.501
103.501
103.509
103.509
103.508
103.507
103.506
103.505
103.503
103.502
103.501
103.501
103.509
103.509
103.508
103.507
103.506
103.505
103.504
103.502
103.501
103.501
103.509
103.509
103.508
103.507
103.506
103.505
103.504
103.502
103.501
103.501
103.509
103.509
103.508
103.507
103.506
103.505
103.504
103.502
103.501
103.501
90.6691
90.6681
90.6662
90.6635
90.6599
90.6556
90.6511
90.6467
90.6433
90.6414
90.669
90.668
90.6662
90.6634
90.6598
90.6556
90.651
90.6466
90.6432
90.6413
90.669
90.668
90.6661
90.6634
90.6598
90.6555
90.6509
90.6466
90.6432
90.6413
90.6689
90.6679
90.6661
90.6633
90.6597
90.6555
90.6509
90.6466
90.6431
90.6412
90.6689
90.6679
90.6661
90.6633
90.6597
90.6555
90.6509
90.6465
90.6431
90.6412
90.6689
90.6679
90.6661
90.6633
90.6597
90.6555
90.6509
90.6465
90.6431
90.6412
90.6689
90.6679
90.6661
90.6633
90.6597
90.6555
90.6509
90.6466
90.6431
90.6412
90.6689
90.668
90.6661
90.6633
90.6597
90.6555
90.6509
90.6466
90.6432
90.6413
90.669
90.668
90.6661
90.6634
90.6598
90.6555
90.651
90.6466
90.6432
90.6413
90.669
90.668
90.6662
90.6634
90.6598
90.6556
90.651
90.6467
90.6432
90.6414
78.2449
78.2431
78.2396
78.2344
78.2275
78.2192
78.2102
78.2014
78.1944
78.1904
78.2448
78.243
78.2395
78.2343
78.2274
78.2191
78.2101
78.2013
78.1943
78.1904
78.2447
78.2429
78.2394
78.2342
78.2273
78.219
78.21
78.2013
78.1942
78.1903
78.2447
78.2429
78.2394
78.2342
78.2273
78.219
78.2099
78.2012
78.1942
78.1903
78.2446
78.2429
78.2394
78.2342
78.2273
78.219
78.2099
78.2012
78.1942
78.1902
78.2446
78.2428
78.2394
78.2341
78.2273
78.219
78.2099
78.2012
78.1942
78.1903
78.2447
78.2429
78.2394
78.2342
78.2273
78.219
78.2099
78.2012
78.1942
78.1903
78.2447
78.2429
78.2394
78.2342
78.2273
78.219
78.21
78.2013
78.1942
78.1903
78.2447
78.243
78.2395
78.2343
78.2274
78.2191
78.2101
78.2013
78.1943
78.1904
78.2448
78.243
78.2396
78.2344
78.2275
78.2192
78.2101
78.2014
78.1944
78.1905
66.4839
66.481
66.4754
66.4667
66.455
66.4407
66.4247
66.4089
66.3958
66.3884
66.4838
66.4809
66.4752
66.4665
66.4549
66.4406
66.4246
66.4087
66.3957
66.3883
66.4837
66.4808
66.4751
66.4664
66.4548
66.4405
66.4245
66.4086
66.3956
66.3882
66.4836
66.4807
66.475
66.4664
66.4547
66.4404
66.4244
66.4086
66.3955
66.3881
66.4836
66.4807
66.475
66.4664
66.4547
66.4404
66.4244
66.4086
66.3955
66.3881
66.4836
66.4807
66.475
66.4663
66.4547
66.4404
66.4244
66.4086
66.3955
66.3881
66.4836
66.4807
66.475
66.4664
66.4547
66.4404
66.4244
66.4086
66.3956
66.3881
66.4836
66.4808
66.4751
66.4664
66.4548
66.4405
66.4245
66.4087
66.3956
66.3882
66.4837
66.4808
66.4752
66.4665
66.4549
66.4406
66.4246
66.4087
66.3957
66.3883
66.4838
66.4809
66.4753
66.4666
66.455
66.4407
66.4247
66.4089
66.3958
66.3884
55.5918
55.5875
55.5788
55.5652
55.5466
55.5231
55.496
55.4682
55.4446
55.4308
55.5917
55.5873
55.5786
55.5651
55.5464
55.5229
55.4958
55.4681
55.4445
55.4307
55.5916
55.5872
55.5785
55.565
55.5463
55.5228
55.4957
55.468
55.4444
55.4306
55.5915
55.5872
55.5784
55.5649
55.5463
55.5227
55.4956
55.4679
55.4443
55.4305
55.5914
55.5871
55.5784
55.5649
55.5462
55.5227
55.4956
55.4679
55.4443
55.4305
55.5914
55.5871
55.5784
55.5649
55.5462
55.5227
55.4956
55.4679
55.4443
55.4305
55.5915
55.5871
55.5784
55.5649
55.5463
55.5227
55.4957
55.4679
55.4444
55.4306
55.5915
55.5872
55.5785
55.565
55.5463
55.5228
55.4957
55.468
55.4444
55.4306
55.5916
55.5873
55.5786
55.5651
55.5464
55.5229
55.4958
55.4681
55.4445
55.4307
55.5917
55.5874
55.5787
55.5652
55.5466
55.5231
55.496
55.4683
55.4447
55.4309
45.7226
45.7164
45.7036
45.6833
45.6547
45.6173
45.5726
45.5247
45.4821
45.4561
45.7224
45.7162
45.7034
45.6832
45.6545
45.6171
45.5724
45.5246
45.482
45.456
45.7223
45.7161
45.7033
45.6831
45.6544
45.617
45.5723
45.5245
45.4819
45.4559
45.7222
45.716
45.7032
45.683
45.6543
45.617
45.5722
45.5244
45.4818
45.4558
45.7222
45.716
45.7032
45.6829
45.6543
45.6169
45.5722
45.5244
45.4818
45.4558
45.7222
45.716
45.7032
45.6829
45.6543
45.6169
45.5722
45.5244
45.4818
45.4558
45.7222
45.716
45.7032
45.683
45.6543
45.617
45.5722
45.5244
45.4819
45.4559
45.7223
45.7161
45.7033
45.6831
45.6544
45.6171
45.5723
45.5245
45.482
45.456
45.7224
45.7162
45.7034
45.6832
45.6545
45.6172
45.5724
45.5247
45.4821
45.4561
45.7225
45.7163
45.7036
45.6833
45.6547
45.6173
45.5726
45.5248
45.4822
45.4563
36.9732
36.9646
36.9467
36.9176
36.8753
36.8178
36.7457
36.6642
36.5868
36.5364
36.973
36.9644
36.9465
36.9175
36.8751
36.8177
36.7455
36.664
36.5866
36.5363
36.9729
36.9643
36.9464
36.9173
36.875
36.8175
36.7454
36.6639
36.5865
36.5362
36.9728
36.9642
36.9463
36.9173
36.8749
36.8175
36.7454
36.6639
36.5865
36.5361
36.9728
36.9642
36.9463
36.9172
36.8749
36.8174
36.7453
36.6638
36.5865
36.5361
36.9728
36.9642
36.9463
36.9172
36.8749
36.8174
36.7453
36.6638
36.5865
36.5361
36.9728
36.9642
36.9463
36.9173
36.8749
36.8175
36.7454
36.6639
36.5865
36.5362
36.9729
36.9643
36.9464
36.9174
36.875
36.8176
36.7455
36.664
36.5866
36.5363
36.973
36.9644
36.9465
36.9175
36.8751
36.8177
36.7456
36.6641
36.5867
36.5364
36.9731
36.9646
36.9467
36.9177
36.8753
36.8179
36.7458
36.6643
36.5869
36.5366
29.3837
29.3725
29.3485
29.3088
29.2489
29.164
29.0514
28.9145
28.7723
28.6696
29.3836
29.3723
29.3483
29.3086
29.2487
29.1639
29.0512
28.9143
28.7721
28.6695
29.3835
29.3722
29.3482
29.3085
29.2486
29.1638
29.0511
28.9142
28.772
28.6694
29.3834
29.3721
29.3482
29.3084
29.2485
29.1637
29.051
28.9142
28.772
28.6694
29.3833
29.3721
29.3481
29.3084
29.2485
29.1637
29.051
28.9141
28.772
28.6694
29.3833
29.3721
29.3481
29.3084
29.2485
29.1637
29.051
28.9141
28.772
28.6694
29.3834
29.3721
29.3482
29.3084
29.2485
29.1637
29.0511
28.9142
28.772
28.6694
29.3835
29.3722
29.3483
29.3085
29.2486
29.1638
29.0512
28.9143
28.7721
28.6695
29.3836
29.3723
29.3484
29.3087
29.2488
29.164
29.0513
28.9144
28.7723
28.6697
29.3837
29.3725
29.3485
29.3088
29.2489
29.1641
29.0515
28.9146
28.7724
28.6698
22.9424
22.9283
22.898
22.8466
22.7665
22.6478
22.4797
22.2561
21.9929
21.7672
22.9422
22.9282
22.8979
22.8465
22.7664
22.6477
22.4795
22.256
21.9928
21.7671
22.9421
22.928
22.8978
22.8464
22.7663
22.6476
22.4794
22.2559
21.9927
21.767
22.942
22.928
22.8977
22.8463
22.7662
22.6475
22.4794
22.2558
21.9926
21.767
22.942
22.9279
22.8977
22.8463
22.7662
22.6475
22.4793
22.2558
21.9926
21.767
22.942
22.9279
22.8977
22.8463
22.7662
22.6475
22.4794
22.2558
21.9926
21.767
22.942
22.928
22.8977
22.8463
22.7663
22.6476
22.4794
22.2559
21.9927
21.767
22.9421
22.9281
22.8978
22.8464
22.7663
22.6476
22.4795
22.256
21.9928
21.7671
22.9422
22.9282
22.8979
22.8465
22.7665
22.6478
22.4796
22.2561
21.9929
21.7673
22.9423
22.9283
22.8981
22.8467
22.7666
22.6479
22.4798
22.2563
21.993
21.7674
17.5932
17.5768
17.5409
17.4787
17.3791
17.2249
16.9916
16.6477
16.1675
15.6164
17.5931
17.5766
17.5407
17.4786
17.3789
17.2247
16.9915
16.6476
16.1674
15.6163
17.593
17.5765
17.5406
17.4785
17.3788
17.2246
16.9914
16.6475
16.1673
15.6163
17.5929
17.5765
17.5406
17.4784
17.3788
17.2246
16.9914
16.6474
16.1672
15.6162
17.5929
17.5765
17.5405
17.4784
17.3788
17.2246
16.9913
16.6474
16.1672
15.6162
17.5929
17.5765
17.5405
17.4784
17.3788
17.2246
16.9914
16.6474
16.1672
15.6162
17.593
17.5765
17.5406
17.4785
17.3788
17.2246
16.9914
16.6475
16.1673
15.6163
17.593
17.5766
17.5407
17.4785
17.3789
17.2247
16.9915
16.6476
16.1674
15.6164
17.5931
17.5767
17.5408
17.4786
17.379
17.2248
16.9916
16.6477
16.1675
15.6165
17.5932
17.5768
17.5409
17.4788
17.3792
17.225
16.9917
16.6478
16.1676
15.6166
13.2471
13.2291
13.1894
13.12
13.0066
12.8261
12.5392
12.075
11.282
9.75407
13.247
13.2289
13.1893
13.1199
13.0065
12.8259
12.5391
12.0749
11.2819
9.754
13.2469
13.2289
13.1892
13.1198
13.0065
12.8259
12.539
12.0748
11.2819
9.75394
13.2468
13.2288
13.1892
13.1198
13.0064
12.8258
12.539
12.0748
11.2818
9.75391
13.2468
13.2288
13.1891
13.1197
13.0064
12.8258
12.5389
12.0748
11.2818
9.7539
13.2468
13.2288
13.1892
13.1197
13.0064
12.8258
12.539
12.0748
11.2818
9.75392
13.2468
13.2288
13.1892
13.1198
13.0064
12.8259
12.539
12.0748
11.2819
9.75396
13.2469
13.2289
13.1893
13.1199
13.0065
12.8259
12.5391
12.0749
11.2819
9.75402
13.247
13.229
13.1894
13.12
13.0066
12.826
12.5392
12.075
11.282
9.7541
13.2471
13.2291
13.1895
13.1201
13.0068
12.8262
12.5393
12.0751
11.2822
9.75421
9.79216
9.77377
9.73325
9.66214
9.54577
9.36023
9.0667
8.60098
7.85551
6.66405
9.79206
9.77367
9.73315
9.66204
9.54568
9.36014
9.06662
8.6009
7.85544
6.66398
9.79198
9.7736
9.73308
9.66197
9.54561
9.36008
9.06656
8.60084
7.85539
6.66394
9.79194
9.77355
9.73304
9.66193
9.54557
9.36004
9.06652
8.60081
7.85536
6.66391
9.79192
9.77354
9.73302
9.66192
9.54556
9.36003
9.06651
8.6008
7.85535
6.66391
9.79193
9.77354
9.73303
9.66193
9.54557
9.36004
9.06653
8.60081
7.85536
6.66392
9.79196
9.77358
9.73307
9.66196
9.54561
9.36008
9.06656
8.60085
7.8554
6.66395
9.79202
9.77364
9.73313
9.66203
9.54567
9.36014
9.06663
8.60091
7.85545
6.664
9.79209
9.77372
9.73322
9.66212
9.54576
9.36023
9.06672
8.601
7.85553
6.66407
9.79218
9.77383
9.73333
9.66224
9.54588
9.36035
9.06683
8.60111
7.85564
6.66416
7.10502
7.08753
7.04909
6.98205
6.87349
6.70343
6.44226
6.04838
5.47034
4.66909
7.10494
7.08745
7.04901
6.98197
6.87342
6.70336
6.44219
6.04831
5.47028
4.66904
7.10488
7.08739
7.04895
6.98191
6.87336
6.70331
6.44214
6.04827
5.47024
4.66901
7.10485
7.08735
7.04892
6.98188
6.87333
6.70328
6.44211
6.04824
5.47022
4.66899
7.10483
7.08734
7.04891
6.98187
6.87332
6.70327
6.4421
6.04824
5.47021
4.66898
7.10484
7.08735
7.04891
6.98188
6.87333
6.70328
6.44212
6.04825
5.47022
4.66899
7.10487
7.08738
7.04895
6.98191
6.87336
6.70331
6.44215
6.04828
5.47025
4.66902
7.10492
7.08743
7.049
6.98196
6.87342
6.70337
6.4422
6.04833
5.4703
4.66906
7.10498
7.0875
7.04907
6.98204
6.8735
6.70345
6.44227
6.0484
5.47036
4.66912
7.10506
7.08759
7.04917
6.98214
6.8736
6.70354
6.44237
6.04849
5.47045
4.66919
5.06002
5.04443
5.01038
4.95167
4.85827
4.71568
4.50466
4.20286
3.79151
3.27352
5.05996
5.04436
5.01031
4.95161
4.85821
4.71562
4.5046
4.20281
3.79146
3.27348
5.05991
5.04432
5.01027
4.95156
4.85817
4.71558
4.50456
4.20277
3.79143
3.27345
5.05988
5.04429
5.01024
4.95154
4.85815
4.71556
4.50454
4.20275
3.79141
3.27343
5.05987
5.04428
5.01023
4.95153
4.85814
4.71555
4.50454
4.20275
3.79141
3.27343
5.05988
5.04429
5.01024
4.95154
4.85815
4.71556
4.50455
4.20276
3.79142
3.27344
5.0599
5.04431
5.01027
4.95156
4.85817
4.71559
4.50457
4.20278
3.79144
3.27346
5.05994
5.04435
5.01031
4.95161
4.85822
4.71563
4.50462
4.20282
3.79148
3.27349
5.06
5.04441
5.01037
4.95167
4.85828
4.71569
4.50468
4.20288
3.79153
3.27354
5.06006
5.04449
5.01045
4.95176
4.85837
4.71577
4.50476
4.20295
3.7916
3.2736
3.53697
3.52386
3.49549
3.44724
3.37206
3.26042
3.10118
2.88398
2.60479
2.27583
3.53692
3.52381
3.49544
3.4472
3.37201
3.26038
3.10114
2.88394
2.60475
2.2758
3.53688
3.52378
3.4954
3.44716
3.37198
3.26034
3.10111
2.88391
2.60473
2.27578
3.53686
3.52376
3.49538
3.44714
3.37196
3.26033
3.10109
2.8839
2.60471
2.27577
3.53685
3.52375
3.49537
3.44714
3.37195
3.26032
3.10109
2.88389
2.60471
2.27576
3.53686
3.52376
3.49538
3.44714
3.37196
3.26033
3.1011
2.8839
2.60472
2.27577
3.53688
3.52378
3.4954
3.44717
3.37199
3.26035
3.10112
2.88392
2.60474
2.27579
3.53691
3.52381
3.49544
3.4472
3.37202
3.26039
3.10115
2.88396
2.60477
2.27582
3.53695
3.52386
3.49549
3.44725
3.37207
3.26044
3.1012
2.884
2.60481
2.27585
3.53701
3.52392
3.49555
3.44732
3.37214
3.2605
3.10126
2.88406
2.60487
2.2759
2.42666
2.41622
2.39381
2.35627
2.29899
2.21623
2.10213
1.95273
1.76953
1.56419
2.42662
2.41618
2.39377
2.35624
2.29896
2.2162
2.10209
1.9527
1.76951
1.56416
2.4266
2.41615
2.39374
2.35621
2.29893
2.21617
2.10207
1.95268
1.76949
1.56415
2.42658
2.41614
2.39373
2.3562
2.29892
2.21616
2.10206
1.95267
1.76948
1.56414
2.42658
2.41613
2.39372
2.35619
2.29892
2.21616
2.10206
1.95267
1.76948
1.56414
2.42658
2.41614
2.39373
2.3562
2.29892
2.21617
2.10206
1.95267
1.76948
1.56414
2.4266
2.41616
2.39375
2.35622
2.29894
2.21618
2.10208
1.95269
1.7695
1.56416
2.42662
2.41618
2.39377
2.35625
2.29897
2.21621
2.10211
1.95272
1.76952
1.56418
2.42666
2.41622
2.39381
2.35628
2.29901
2.21625
2.10215
1.95275
1.76956
1.56421
2.4267
2.41627
2.39386
2.35634
2.29906
2.2163
2.10219
1.9528
1.7696
1.56425
1.63421
1.62627
1.60939
1.58155
1.53992
1.48131
1.40301
1.30421
1.18798
1.06335
1.63418
1.62624
1.60936
1.58152
1.53989
1.48129
1.40299
1.30418
1.18796
1.06334
1.63416
1.62622
1.60934
1.5815
1.53987
1.48127
1.40297
1.30417
1.18794
1.06332
1.63415
1.62621
1.60933
1.58149
1.53986
1.48126
1.40296
1.30416
1.18793
1.06332
1.63415
1.62621
1.60933
1.58149
1.53986
1.48126
1.40296
1.30416
1.18793
1.06331
1.63415
1.62621
1.60934
1.58149
1.53987
1.48126
1.40297
1.30417
1.18794
1.06332
1.63416
1.62623
1.60935
1.58151
1.53988
1.48128
1.40298
1.30418
1.18795
1.06333
1.63418
1.62625
1.60937
1.58153
1.5399
1.4813
1.403
1.3042
1.18797
1.06335
1.63421
1.62628
1.6094
1.58156
1.53993
1.48133
1.40303
1.30422
1.18799
1.06337
1.63424
1.62631
1.60944
1.5816
1.53997
1.48137
1.40307
1.30426
1.18803
1.0634
1.08033
1.07455
1.06237
1.04257
1.01355
0.973737
0.922174
0.859535
0.789248
0.718284
1.08031
1.07453
1.06235
1.04255
1.01354
0.973719
0.922157
0.859519
0.789233
0.71827
1.08029
1.07451
1.06233
1.04253
1.01352
0.973707
0.922145
0.859508
0.789223
0.71826
1.08028
1.0745
1.06232
1.04253
1.01352
0.973701
0.922139
0.859502
0.789218
0.718255
1.08028
1.0745
1.06232
1.04252
1.01351
0.9737
0.922138
0.859501
0.789217
0.718254
1.08029
1.07451
1.06233
1.04253
1.01352
0.973704
0.922143
0.859506
0.789221
0.718258
1.0803
1.07452
1.06234
1.04254
1.01353
0.973714
0.922153
0.859515
0.78923
0.718266
1.08031
1.07453
1.06235
1.04255
1.01355
0.97373
0.922168
0.85953
0.789244
0.718279
1.08033
1.07455
1.06237
1.04258
1.01357
0.973752
0.922189
0.85955
0.789263
0.718297
1.08035
1.07458
1.0624
1.04261
1.0136
0.97378
0.922216
0.859576
0.789287
0.71832
0.701114
0.697065
0.68861
0.675067
0.655619
0.629619
0.597095
0.559474
0.520513
0.487074
0.701099
0.697051
0.688596
0.675053
0.655605
0.629606
0.597083
0.559463
0.520502
0.487063
0.701089
0.697041
0.688586
0.675044
0.655596
0.629598
0.597075
0.559455
0.520495
0.487056
0.701083
0.697035
0.688581
0.675039
0.655592
0.629593
0.597071
0.559451
0.520491
0.487052
0.701082
0.697034
0.68858
0.675038
0.655591
0.629593
0.59707
0.559451
0.520491
0.487052
0.701085
0.697037
0.688583
0.675041
0.655594
0.629596
0.597074
0.559454
0.520494
0.487055
0.701092
0.697044
0.68859
0.675049
0.655602
0.629604
0.597081
0.559461
0.520501
0.487061
0.701103
0.697055
0.688602
0.675061
0.655614
0.629615
0.597092
0.559472
0.520511
0.487071
0.701117
0.697071
0.688618
0.675077
0.65563
0.629631
0.597108
0.559487
0.520525
0.487085
0.701134
0.697091
0.68864
0.675098
0.655651
0.629651
0.597127
0.559505
0.520543
0.487102
0.446732
0.443997
0.438335
0.429398
0.416821
0.400468
0.38081
0.359558
0.34084
0.334258
0.446722
0.443987
0.438326
0.429388
0.416812
0.400459
0.380802
0.35955
0.340832
0.33425
0.446715
0.44398
0.438319
0.429382
0.416806
0.400453
0.380797
0.359545
0.340827
0.334245
0.446711
0.443976
0.438316
0.429378
0.416802
0.40045
0.380794
0.359543
0.340824
0.334242
0.44671
0.443975
0.438315
0.429378
0.416802
0.40045
0.380794
0.359542
0.340824
0.334242
0.446712
0.443978
0.438317
0.42938
0.416804
0.400452
0.380796
0.359545
0.340826
0.334245
0.446717
0.443983
0.438323
0.429386
0.41681
0.400458
0.380801
0.35955
0.340831
0.33425
0.446725
0.443991
0.438331
0.429394
0.416818
0.400466
0.380809
0.359558
0.340839
0.334257
0.446735
0.444002
0.438343
0.429406
0.41683
0.400478
0.38082
0.359568
0.340849
0.334267
0.446747
0.444017
0.438358
0.429421
0.416845
0.400492
0.380834
0.359582
0.340862
0.33428
6.10552
4.15926
3.17898
2.88295
3.19484
4.1727
6.0068
9.06786
14.0389
22.261
6.10546
4.15921
3.17892
2.88289
3.19477
4.17261
6.00668
9.06771
14.0387
22.2608
6.10542
4.15917
3.17888
2.88285
3.19472
4.17255
6.0066
9.06759
14.0385
22.2606
6.10539
4.15915
3.17886
2.88282
3.19469
4.17251
6.00654
9.06752
14.0384
22.2604
6.10539
4.15914
3.17885
2.88281
3.19467
4.17249
6.00652
9.06749
14.0384
22.2604
6.1054
4.15915
3.17886
2.88282
3.19467
4.17249
6.00652
9.06749
14.0384
22.2604
6.10543
4.15917
3.17888
2.88283
3.19469
4.1725
6.00654
9.06752
14.0384
22.2605
6.10547
4.1592
3.17891
2.88286
3.19472
4.17254
6.00658
9.06757
14.0385
22.2606
6.10553
4.15925
3.17895
2.8829
3.19476
4.17258
6.00664
9.06765
14.0386
22.2607
6.1056
4.15931
3.17899
2.88294
3.1948
4.17264
6.00671
9.06774
14.0388
22.2609
4.90986
3.6176
2.88351
2.67146
2.97785
3.86811
5.49258
8.10254
12.0548
17.7199
4.90981
3.61755
2.88346
2.6714
2.97779
3.86803
5.49247
8.1024
12.0547
17.7196
4.90977
3.61752
2.88342
2.67136
2.97774
3.86797
5.49239
8.1023
12.0545
17.7195
4.90975
3.6175
2.8834
2.67134
2.97771
3.86793
5.49234
8.10224
12.0544
17.7194
4.90974
3.61749
2.88339
2.67133
2.9777
3.86791
5.49231
8.1022
12.0544
17.7193
4.90975
3.6175
2.8834
2.67133
2.9777
3.86791
5.49231
8.1022
12.0544
17.7193
4.90977
3.61752
2.88342
2.67135
2.97771
3.86793
5.49234
8.10223
12.0544
17.7194
4.90982
3.61755
2.88345
2.67137
2.97774
3.86796
5.49238
8.10229
12.0545
17.7195
4.90987
3.6176
2.88349
2.67141
2.97778
3.86801
5.49244
8.10237
12.0546
17.7196
4.90995
3.61766
2.88354
2.67147
2.97784
3.86808
5.49252
8.10248
12.0548
17.7198
3.70344
2.91039
2.43242
2.31819
2.60433
3.35288
4.66486
6.67555
9.51582
13.1897
3.7034
2.91034
2.43237
2.31814
2.60428
3.35281
4.66476
6.67543
9.51567
13.1895
3.70336
2.91031
2.43234
2.31811
2.60423
3.35276
4.66469
6.67534
9.51556
13.1894
3.70335
2.9103
2.43232
2.31808
2.60421
3.35272
4.66465
6.67528
9.51548
13.1893
3.70334
2.91029
2.43232
2.31808
2.60419
3.3527
4.66463
6.67526
9.51545
13.1893
3.70335
2.9103
2.43232
2.31808
2.60419
3.35271
4.66463
6.67526
9.51545
13.1893
3.70337
2.91032
2.43234
2.31809
2.60421
3.35272
4.66465
6.67529
9.51549
13.1893
3.70341
2.91035
2.43236
2.31812
2.60424
3.35276
4.66469
6.67534
9.51556
13.1894
3.70346
2.91039
2.4324
2.31816
2.60428
3.3528
4.66475
6.67542
9.51567
13.1896
3.70352
2.91045
2.43246
2.31821
2.60433
3.35287
4.66484
6.67553
9.51581
13.1897
2.70778
2.23262
1.94609
1.90602
2.15661
2.7476
3.73989
5.19513
7.14113
9.50222
2.70774
2.23258
1.94606
1.90597
2.15656
2.74753
3.73981
5.19503
7.14101
9.50207
2.70771
2.23255
1.94603
1.90594
2.15652
2.74749
3.73975
5.19496
7.14092
9.50196
2.7077
2.23254
1.94601
1.90592
2.1565
2.74746
3.73971
5.19491
7.14086
9.50189
2.70769
2.23253
1.94601
1.90592
2.15649
2.74744
3.7397
5.19489
7.14084
9.50186
2.7077
2.23254
1.94601
1.90592
2.15649
2.74745
3.7397
5.19489
7.14084
9.50187
2.70772
2.23256
1.94603
1.90593
2.15651
2.74746
3.73972
5.19492
7.14087
9.50191
2.70775
2.23258
1.94605
1.90596
2.15653
2.74749
3.73976
5.19497
7.14094
9.50199
2.70779
2.23262
1.94609
1.90599
2.15657
2.74754
3.73981
5.19504
7.14103
9.50211
2.70785
2.23267
1.94613
1.90604
2.15662
2.7476
3.73989
5.19513
7.14115
9.50226
1.93732
1.65708
1.49609
1.50028
1.70687
2.15124
2.86742
3.8789
5.1775
6.69236
1.93729
1.65705
1.49606
1.50024
1.70683
2.15119
2.86736
3.87882
5.1774
6.69225
1.93727
1.65703
1.49604
1.50022
1.7068
2.15115
2.86731
3.87877
5.17733
6.69216
1.93726
1.65702
1.49603
1.5002
1.70678
2.15113
2.86728
3.87873
5.17729
6.69211
1.93725
1.65701
1.49602
1.50019
1.70677
2.15112
2.86727
3.87871
5.17727
6.69209
1.93726
1.65702
1.49603
1.5002
1.70677
2.15112
2.86727
3.87872
5.17727
6.69209
1.93728
1.65703
1.49604
1.50021
1.70678
2.15114
2.86729
3.87874
5.1773
6.69213
1.9373
1.65706
1.49606
1.50023
1.70681
2.15116
2.86732
3.87878
5.17735
6.69219
1.93734
1.65709
1.49609
1.50026
1.70684
2.1512
2.86737
3.87884
5.17743
6.69229
1.93738
1.65713
1.49613
1.5003
1.70688
2.15125
2.86743
3.87892
5.17753
6.69241
1.36219
1.20048
1.11634
1.14186
1.30407
1.62617
2.12596
2.80957
3.66052
4.62802
1.36216
1.20045
1.11632
1.14183
1.30404
1.62613
2.12591
2.8095
3.66045
4.62793
1.36215
1.20044
1.1163
1.14181
1.30401
1.6261
2.12587
2.80946
3.66039
4.62787
1.36214
1.20043
1.11629
1.1418
1.304
1.62608
2.12585
2.80943
3.66036
4.62783
1.36214
1.20042
1.11628
1.14179
1.30399
1.62608
2.12584
2.80942
3.66034
4.62782
1.36214
1.20043
1.11629
1.1418
1.30399
1.62608
2.12584
2.80942
3.66035
4.62782
1.36215
1.20044
1.1163
1.14181
1.30401
1.62609
2.12586
2.80944
3.66037
4.62785
1.36217
1.20046
1.11632
1.14182
1.30403
1.62611
2.12589
2.80947
3.66042
4.6279
1.3622
1.20048
1.11634
1.14185
1.30405
1.62615
2.12593
2.80952
3.66048
4.62798
1.36224
1.20052
1.11637
1.14188
1.30409
1.62619
2.12598
2.80959
3.66056
4.62808
0.946084
0.856722
0.817949
0.851095
0.974493
1.20254
1.54377
1.99696
2.54613
3.15723
0.946065
0.856703
0.817929
0.851072
0.974466
1.20251
1.54373
1.99691
2.54607
3.15716
0.946052
0.85669
0.817915
0.851056
0.974447
1.20249
1.5437
1.99688
2.54603
3.15712
0.946045
0.856682
0.817907
0.851047
0.974435
1.20247
1.54369
1.99686
2.54601
3.15709
0.946044
0.856681
0.817904
0.851043
0.97443
1.20247
1.54368
1.99685
2.546
3.15708
0.946048
0.856684
0.817907
0.851046
0.974433
1.20247
1.54368
1.99685
2.546
3.15708
0.946058
0.856694
0.817916
0.851055
0.974442
1.20248
1.54369
1.99687
2.54602
3.1571
0.946074
0.856709
0.817931
0.85107
0.974459
1.2025
1.54372
1.9969
2.54605
3.15715
0.946096
0.85673
0.817951
0.851091
0.974482
1.20253
1.54375
1.99694
2.5461
3.15721
0.946124
0.856756
0.817977
0.851118
0.974512
1.20256
1.54379
1.99699
2.54617
3.15728
0.656343
0.612367
0.600305
0.634733
0.728124
0.889238
1.12135
1.41982
1.76985
2.14673
0.656328
0.612352
0.600289
0.634714
0.728102
0.889212
1.12131
1.41978
1.76981
2.14668
0.656318
0.612342
0.600278
0.634702
0.728087
0.889194
1.12129
1.41976
1.76978
2.14665
0.656313
0.612336
0.600271
0.634694
0.728078
0.889183
1.12128
1.41974
1.76976
2.14663
0.656312
0.612335
0.600269
0.634691
0.728075
0.889179
1.12127
1.41973
1.76975
2.14662
0.656316
0.612338
0.600272
0.634694
0.728077
0.889181
1.12128
1.41974
1.76976
2.14662
0.656323
0.612345
0.600279
0.634701
0.728085
0.88919
1.12129
1.41975
1.76977
2.14664
0.656336
0.612357
0.600291
0.634714
0.728098
0.889206
1.12131
1.41977
1.7698
2.14667
0.656353
0.612374
0.600308
0.634731
0.728117
0.889228
1.12133
1.4198
1.76984
2.14672
0.656374
0.612395
0.600329
0.634753
0.728142
0.889257
1.12137
1.41985
1.76989
2.14678
0.467573
0.454329
0.458535
0.492522
0.565951
0.684477
0.848357
1.05054
1.27466
1.49514
0.467562
0.454317
0.458522
0.492508
0.565934
0.684456
0.848333
1.05051
1.27463
1.49511
0.467554
0.454309
0.458514
0.492497
0.565922
0.684442
0.848316
1.05049
1.2746
1.49508
0.46755
0.454305
0.458509
0.492491
0.565915
0.684433
0.848306
1.05047
1.27459
1.49507
0.46755
0.454304
0.458507
0.49249
0.565912
0.68443
0.848302
1.05047
1.27458
1.49506
0.467553
0.454307
0.45851
0.492492
0.565914
0.684432
0.848304
1.05047
1.27459
1.49507
0.467559
0.454313
0.458516
0.492498
0.565921
0.68444
0.848314
1.05048
1.2746
1.49508
0.467569
0.454323
0.458526
0.492509
0.565933
0.684454
0.848329
1.0505
1.27462
1.49511
0.467582
0.454336
0.458539
0.492523
0.565949
0.684472
0.848351
1.05053
1.27465
1.49514
0.467599
0.454353
0.458556
0.492541
0.565969
0.684496
0.848379
1.05056
1.27469
1.49519
0.366027
0.374842
0.388343
0.422169
0.485776
0.583629
0.714471
0.86922
1.02706
1.14726
0.366019
0.374833
0.388334
0.422158
0.485763
0.583614
0.714453
0.869199
1.02704
1.14723
0.366013
0.374827
0.388326
0.42215
0.485753
0.583603
0.714439
0.869183
1.02702
1.14721
0.36601
0.374823
0.388322
0.422145
0.485747
0.583595
0.714431
0.869173
1.02701
1.1472
0.36601
0.374822
0.388321
0.422143
0.485745
0.583593
0.714428
0.86917
1.027
1.14719
0.366012
0.374825
0.388323
0.422145
0.485747
0.583595
0.71443
0.869173
1.02701
1.1472
0.366018
0.37483
0.388329
0.422151
0.485754
0.583602
0.714438
0.869182
1.02702
1.14721
0.366026
0.374839
0.388338
0.422161
0.485764
0.583614
0.714453
0.869199
1.02704
1.14723
0.366037
0.37485
0.38835
0.422174
0.485778
0.583631
0.714472
0.869222
1.02706
1.14726
0.366051
0.374865
0.388365
0.42219
0.485797
0.583652
0.714497
0.869252
1.0271
1.1473
36.7408
42.8137
45.9617
47.7985
48.9293
49.6382
50.0816
50.3522
50.5064
50.5762
36.7404
42.8133
45.9612
47.798
48.9288
49.6377
50.0811
50.3517
50.5059
50.5758
36.7401
42.813
45.9609
47.7977
48.9284
49.6374
50.0807
50.3514
50.5056
50.5756
36.7399
42.8128
45.9607
47.7975
48.9282
49.6372
50.0806
50.3512
50.5055
50.5754
36.7399
42.8127
45.9606
47.7974
48.9282
49.6371
50.0805
50.3512
50.5054
50.5754
36.7399
42.8128
45.9606
47.7975
48.9282
49.6371
50.0805
50.3512
50.5055
50.5754
36.74
42.8129
45.9607
47.7976
48.9283
49.6373
50.0807
50.3514
50.5056
50.5756
36.7401
42.8131
45.961
47.7979
48.9286
49.6376
50.081
50.3517
50.5059
50.5759
36.7404
42.8134
45.9613
47.7982
48.929
49.6379
50.0814
50.3521
50.5063
50.5763
36.7406
42.8137
45.9617
47.7986
48.9294
49.6384
50.0818
50.3525
50.5068
50.5768
24.8807
29.687
32.6732
34.5276
35.6898
36.4208
36.8772
37.1551
37.313
37.3844
24.8804
29.6867
32.6729
34.5272
35.6895
36.4204
36.8768
37.1547
37.3126
37.3842
24.8802
29.6865
32.6726
34.527
35.6892
36.4201
36.8765
37.1545
37.3124
37.3839
24.8801
29.6863
32.6725
34.5268
35.689
36.42
36.8764
37.1543
37.3122
37.3838
24.88
29.6863
32.6724
34.5267
35.689
36.4199
36.8763
37.1543
37.3122
37.3838
24.8801
29.6863
32.6724
34.5268
35.689
36.4199
36.8764
37.1543
37.3123
37.3838
24.8801
29.6864
32.6725
34.5269
35.6891
36.4201
36.8765
37.1545
37.3124
37.384
24.8803
29.6865
32.6727
34.5271
35.6893
36.4203
36.8768
37.1547
37.3127
37.3842
24.8805
29.6868
32.673
34.5274
35.6896
36.4206
36.8771
37.1551
37.313
37.3846
24.8807
29.6871
32.6733
34.5278
35.6901
36.421
36.8775
37.1555
37.3135
37.385
17.2803
20.5788
22.923
24.504
25.5439
26.2166
26.6438
26.9064
27.0565
27.1247
17.28
20.5785
22.9227
24.5037
25.5436
26.2163
26.6434
26.9061
27.0562
27.1244
17.2799
20.5783
22.9225
24.5035
25.5434
26.2161
26.6432
26.9059
27.056
27.1243
17.2798
20.5782
22.9224
24.5033
25.5433
26.216
26.6431
26.9058
27.0559
27.1242
17.2797
20.5782
22.9223
24.5033
25.5432
26.2159
26.6431
26.9057
27.0559
27.1241
17.2797
20.5782
22.9223
24.5033
25.5433
26.216
26.6431
26.9058
27.056
27.1242
17.2798
20.5782
22.9224
24.5034
25.5434
26.2161
26.6432
26.9059
27.0561
27.1243
17.2799
20.5784
22.9226
24.5036
25.5436
26.2163
26.6434
26.9061
27.0563
27.1245
17.2801
20.5786
22.9228
24.5038
25.5438
26.2166
26.6437
26.9064
27.0566
27.1248
17.2803
20.5789
22.9231
24.5042
25.5442
26.2169
26.6441
26.9068
27.057
27.1252
12.0059
14.1927
15.8868
17.1104
17.9564
18.5232
18.892
19.1226
19.2559
19.3167
12.0057
14.1925
15.8866
17.1102
17.9561
18.5229
18.8917
19.1224
19.2557
19.3166
12.0056
14.1924
15.8865
17.11
17.956
18.5228
18.8916
19.1222
19.2555
19.3164
12.0055
14.1923
15.8864
17.1099
17.9559
18.5227
18.8915
19.1221
19.2554
19.3164
12.0054
14.1922
15.8863
17.1099
17.9558
18.5226
18.8914
19.1221
19.2554
19.3163
12.0055
14.1923
15.8863
17.1099
17.9559
18.5227
18.8915
19.1221
19.2554
19.3164
12.0055
14.1923
15.8864
17.11
17.9559
18.5228
18.8916
19.1222
19.2556
19.3165
12.0056
14.1924
15.8865
17.1101
17.9561
18.5229
18.8917
19.1224
19.2557
19.3167
12.0057
14.1926
15.8867
17.1103
17.9563
18.5232
18.892
19.1227
19.256
19.3169
12.0059
14.1928
15.887
17.1106
17.9566
18.5235
18.8923
19.123
19.2563
19.3173
8.26755
9.69848
10.8698
11.7611
12.4047
12.851
13.1491
13.3392
13.4505
13.5018
8.26741
9.69833
10.8697
11.7609
12.4045
12.8508
13.1489
13.339
13.4504
13.5017
8.26732
9.69822
10.8696
11.7608
12.4044
12.8506
13.1488
13.3389
13.4502
13.5016
8.26726
9.69816
10.8695
11.7607
12.4043
12.8506
13.1487
13.3388
13.4502
13.5015
8.26723
9.69813
10.8695
11.7607
12.4043
12.8505
13.1487
13.3388
13.4502
13.5015
8.26724
9.69814
10.8695
11.7607
12.4043
12.8506
13.1487
13.3388
13.4502
13.5015
8.26728
9.6982
10.8695
11.7608
12.4044
12.8507
13.1488
13.3389
13.4503
13.5016
8.26736
9.69829
10.8697
11.7609
12.4045
12.8508
13.1489
13.3391
13.4504
13.5018
8.26748
9.69842
10.8698
11.7611
12.4047
12.851
13.1491
13.3393
13.4506
13.502
8.26763
9.6986
10.87
11.7613
12.4049
12.8512
13.1494
13.3395
13.4509
13.5023
5.62488
6.55046
7.33641
7.95835
8.424
8.75706
8.98526
9.13371
9.22191
9.26287
5.62478
6.55035
7.33629
7.95822
8.42386
8.75692
8.98512
9.13357
9.22178
9.26277
5.62471
6.55027
7.3362
7.95813
8.42377
8.75682
8.98503
9.13348
9.22169
9.2627
5.62466
6.55022
7.33615
7.95807
8.42371
8.75677
8.98497
9.13342
9.22165
9.26266
5.62465
6.5502
7.33613
7.95805
8.42369
8.75675
8.98496
9.13341
9.22164
9.26265
5.62466
6.55022
7.33615
7.95807
8.42371
8.75678
8.98498
9.13344
9.22167
9.26268
5.62469
6.55026
7.33619
7.95812
8.42377
8.75684
8.98505
9.13351
9.22174
9.26276
5.62475
6.55033
7.33628
7.95821
8.42387
8.75694
8.98516
9.13362
9.22186
9.26287
5.62484
6.55044
7.3364
7.95834
8.42401
8.75709
8.98531
9.13378
9.22202
9.26304
5.62496
6.55057
7.33655
7.95851
8.42419
8.75728
8.98551
9.13398
9.22222
9.26324
3.78169
4.36966
4.88256
5.30132
5.62462
5.86235
6.02913
6.13971
6.20635
6.23758
3.78162
4.36958
4.88247
5.30123
5.62452
5.86224
6.02902
6.13961
6.20626
6.23751
3.78157
4.36952
4.88241
5.30116
5.62445
5.86217
6.02895
6.13954
6.20619
6.23745
3.78153
4.36948
4.88237
5.30112
5.62441
5.86213
6.02891
6.1395
6.20616
6.23742
3.78152
4.36947
4.88236
5.30111
5.6244