/*--------------------------------*- C++ -*----------------------------------*\
  =========                 |
  \\      /  F ield         | OpenFOAM: The Open Source CFD Toolbox
   \\    /   O peration     | Website:  https://openfoam.org
    \\  /    A nd           | Version:  6
     \\/     M anipulation  |
\*---------------------------------------------------------------------------*/
FoamFile
{
    version     2.0;
    format      ascii;
    class       volScalarField;
    location    "1400";
    object      p;
}
// * * * * * * * * * * * * * * * * * * * * * * * * * * * * * * * * * * * * * //

dimensions      [0 2 -2 0 0 0 0];

internalField   nonuniform List<scalar> 
7000
(
0.0403106
0.0380957
0.0375955
0.0373969
0.0373242
0.0373843
0.0375716
0.0378679
0.0384437
0.0407542
0.0380424
0.0358246
0.0353245
0.0351244
0.0350495
0.0351071
0.035292
0.0355857
0.0361582
0.0384676
0.0374984
0.0352807
0.0347796
0.0345782
0.0345017
0.0345575
0.0347404
0.0350322
0.0356032
0.0379091
0.0372405
0.0350216
0.0345194
0.0343165
0.034238
0.0342914
0.0344718
0.0347612
0.0353301
0.0376329
0.0370952
0.0348746
0.034371
0.0341662
0.0340853
0.0341359
0.0343133
0.0345999
0.0351663
0.0374658
0.0370759
0.0348535
0.0343484
0.0341416
0.034058
0.0341056
0.0342798
0.0345635
0.0351274
0.0374232
0.0371844
0.0349603
0.0344537
0.0342449
0.0341587
0.0342033
0.0343745
0.0346554
0.0352168
0.037509
0.0374111
0.0351854
0.0346775
0.0344668
0.0343784
0.0344204
0.034589
0.0348675
0.0354269
0.0377163
0.0379306
0.0357025
0.0351937
0.0349816
0.0348914
0.0349315
0.0350979
0.0353746
0.0359322
0.0382205
0.0401668
0.0379387
0.0374274
0.0372133
0.0371208
0.0371583
0.037322
0.0375964
0.0381531
0.0404369
0.0373573
0.0359738
0.0360159
0.0358235
0.0357524
0.0358171
0.0360128
0.0363132
0.0363446
0.037839
0.0359148
0.0345291
0.0345732
0.0343784
0.0343047
0.0343664
0.0345593
0.0348574
0.0348831
0.0363751
0.0359156
0.034532
0.0345743
0.0343782
0.0343028
0.0343626
0.0345534
0.0348493
0.0348744
0.0363605
0.0356593
0.0342735
0.0343147
0.034117
0.0340392
0.0340962
0.034284
0.0345768
0.0345995
0.0360827
0.0355104
0.0341227
0.0341624
0.0339624
0.0338818
0.0339356
0.0341199
0.0344093
0.0344294
0.0359086
0.0354901
0.0341003
0.0341385
0.0339362
0.0338526
0.0339029
0.0340835
0.0343695
0.0343868
0.0358615
0.0356
0.0342083
0.0342451
0.0340404
0.0339539
0.0340008
0.0341778
0.0344603
0.034475
0.0359451
0.0358229
0.03443
0.0344654
0.0342585
0.0341693
0.0342133
0.0343872
0.0346669
0.0346792
0.036145
0.0357994
0.0344021
0.0344375
0.0342291
0.0341381
0.0341801
0.0343517
0.0346293
0.0346391
0.0361054
0.0372068
0.0358084
0.0358392
0.0356292
0.0355357
0.0355746
0.0357429
0.0360169
0.0360276
0.0374897
0.0348806
0.0340982
0.0344656
0.0342955
0.0342888
0.0343644
0.0345178
0.0348185
0.034532
0.0354593
0.0340274
0.0332459
0.0336171
0.0334429
0.033433
0.0335047
0.0336537
0.033952
0.0336567
0.0345765
0.034353
0.0335756
0.033944
0.0337686
0.0337566
0.033826
0.0339724
0.0342677
0.0339724
0.0348829
0.0341096
0.0333285
0.0336959
0.0335183
0.0335033
0.0335691
0.0337116
0.0340027
0.0337041
0.0346112
0.0340143
0.0332309
0.0335965
0.0334162
0.0333976
0.0334592
0.0335972
0.0338838
0.0335819
0.0344827
0.0339921
0.033206
0.03357
0.0333867
0.0333643
0.0334215
0.0335548
0.0338366
0.033531
0.0344253
0.0340447
0.0332559
0.0336182
0.033432
0.033406
0.0334588
0.0335873
0.0338644
0.0335553
0.0344432
0.034251
0.0334615
0.033822
0.0336329
0.0336035
0.0336525
0.0337768
0.0340499
0.033738
0.0346184
0.0339033
0.033107
0.0334684
0.0332773
0.0332459
0.0332924
0.0334138
0.0336845
0.0333685
0.0342504
0.034715
0.0339132
0.0342675
0.0340752
0.0340401
0.0340825
0.0341996
0.0344642
0.0341504
0.0350296
0.0335847
0.0330384
0.0334315
0.0332582
0.0333346
0.0334291
0.0335364
0.0338787
0.0335884
0.0343325
0.0329522
0.032409
0.0328061
0.0326266
0.0326992
0.032788
0.0328881
0.0332271
0.0329251
0.0336563
0.0332985
0.0327597
0.0331527
0.0329719
0.0330416
0.0331271
0.0332237
0.0335579
0.0332559
0.0339748
0.0330367
0.0324924
0.0328844
0.0327006
0.0327661
0.0328465
0.0329375
0.0332658
0.0329584
0.0336723
0.0330067
0.0324601
0.0328497
0.0326621
0.0327227
0.0327974
0.032882
0.0332037
0.0328914
0.0335948
0.0329815
0.0324314
0.0328187
0.0326272
0.0326826
0.0327513
0.0328291
0.0331436
0.032826
0.0335191
0.0329629
0.0324083
0.0327937
0.0325983
0.0326488
0.0327114
0.0327824
0.0330899
0.0327669
0.0334504
0.0331818
0.0326267
0.0330093
0.03281
0.0328561
0.0329133
0.0329781
0.0332794
0.0329521
0.0336234
0.0328121
0.032249
0.0326333
0.0324311
0.0324744
0.0325282
0.0325889
0.0328865
0.0325529
0.0332237
0.0333946
0.0328223
0.0331983
0.0329948
0.0330323
0.0330803
0.0331353
0.0334234
0.0330907
0.0337578
0.032674
0.0322456
0.0325898
0.0324149
0.032557
0.032679
0.0327748
0.0331759
0.0329718
0.0336778
0.0321409
0.0317168
0.0320639
0.0318804
0.0320175
0.0321313
0.0322159
0.0326112
0.0323925
0.0330795
0.0324299
0.0320092
0.032351
0.0321658
0.0322986
0.0324075
0.0324868
0.0328748
0.0326551
0.0333266
0.0321457
0.0317177
0.0320581
0.0318684
0.0319952
0.0320969
0.032168
0.0325472
0.0323191
0.0329819
0.0321565
0.0317258
0.032063
0.031868
0.031988
0.0320814
0.0321433
0.0325126
0.0322768
0.0329227
0.0321272
0.0316917
0.0320258
0.0318254
0.0319382
0.0320231
0.0320751
0.0324338
0.0321896
0.0328189
0.0320599
0.031618
0.0319495
0.0317437
0.0318497
0.0319261
0.0319683
0.0323163
0.0320633
0.0326773
0.0322932
0.0318505
0.0321781
0.0319674
0.0320671
0.0321357
0.0321686
0.0325065
0.0322466
0.0328405
0.031978
0.0315269
0.0318568
0.0316419
0.031738
0.0318016
0.031828
0.0321601
0.0318899
0.0324779
0.0324514
0.0319878
0.0323089
0.0320921
0.0321798
0.0322349
0.0322533
0.0325705
0.0322971
0.0328764
0.0316651
0.031357
0.0316832
0.0315339
0.0317289
0.0318882
0.0320052
0.0324614
0.0323351
0.0330459
0.0312307
0.0309281
0.0312556
0.0310951
0.0312829
0.0314301
0.0315305
0.0319767
0.0318307
0.032514
0.0314903
0.0311899
0.0315107
0.0313476
0.0315292
0.0316692
0.0317618
0.0321967
0.0320472
0.0327093
0.0312058
0.0308961
0.031215
0.0310453
0.0312185
0.0313481
0.0314285
0.0318504
0.0316877
0.0323341
0.0312376
0.0309243
0.0312386
0.0310617
0.0312254
0.0313434
0.0314103
0.0318171
0.0316423
0.0322616
0.0312033
0.0308836
0.0311937
0.0310093
0.0311632
0.0312691
0.0313218
0.0317128
0.0315249
0.0321169
0.0311056
0.0307772
0.0310841
0.0308924
0.0310367
0.0311307
0.0311692
0.0315442
0.0313422
0.0319075
0.0313297
0.0309996
0.0313012
0.0311031
0.0312386
0.0313214
0.0313463
0.0317051
0.0314904
0.0320226
0.03104
0.0307011
0.0310051
0.0308013
0.0309321
0.0310076
0.0310224
0.0313705
0.0311399
0.0316551
0.0314035
0.0310484
0.031343
0.0311361
0.031255
0.0313185
0.0313204
0.031646
0.0314043
0.0318976
0.0305744
0.0303815
0.0307048
0.0305996
0.0308443
0.0310514
0.0312156
0.0317398
0.0317098
0.0325055
0.03023
0.0300435
0.030366
0.0302467
0.0304807
0.0306702
0.0308103
0.0313164
0.0312584
0.0320157
0.0304732
0.0302871
0.0306017
0.0304785
0.0307034
0.0308824
0.0310104
0.0314995
0.0314326
0.0321593
0.0302022
0.0300049
0.0303166
0.0301841
0.0303973
0.0305614
0.0306715
0.0311412
0.0310529
0.0317511
0.0302446
0.0300422
0.0303476
0.0302053
0.0304054
0.0305531
0.0306438
0.0310912
0.0309835
0.0316376
0.0302047
0.0299937
0.0302936
0.0301411
0.0303278
0.0304587
0.0305295
0.0309541
0.0308262
0.0314353
0.0300858
0.0298637
0.0301593
0.029997
0.0301709
0.0302853
0.0303361
0.0307374
0.0305876
0.0311511
0.0302857
0.0300603
0.0303492
0.0301784
0.0303401
0.0304389
0.0304699
0.0308455
0.0306743
0.0311806
0.030008
0.0297734
0.0300644
0.0298864
0.0300418
0.0301302
0.0301456
0.0305032
0.0303045
0.03077
0.0302692
0.0300137
0.0302947
0.0301114
0.0302511
0.0303223
0.030318
0.0306398
0.0304132
0.0308275
0.0294983
0.0293961
0.0297084
0.029651
0.0299429
0.0302079
0.0304457
0.0310749
0.0312078
0.0322511
0.0292166
0.0291209
0.0294296
0.0293545
0.0296305
0.0298701
0.0300727
0.0306712
0.0307625
0.031759
0.0294338
0.0293361
0.0296356
0.0295546
0.0298178
0.030042
0.0302261
0.0307984
0.0308705
0.0318202
0.0291763
0.0290652
0.0293604
0.0292666
0.0295138
0.0297168
0.0298747
0.0304169
0.0304536
0.0313458
0.0292211
0.0291025
0.0293894
0.0292826
0.0295118
0.0296921
0.0298225
0.0303321
0.0303373
0.0311513
0.0291753
0.0290455
0.0293251
0.0292049
0.0294162
0.0295737
0.0296769
0.0301548
0.0301314
0.0308685
0.029043
0.0288994
0.0291736
0.0290404
0.0292348
0.0293705
0.0294465
0.0298916
0.0298375
0.0304955
0.0292182
0.0290689
0.0293348
0.0291908
0.0293691
0.0294834
0.0295313
0.0299376
0.0298456
0.0303997
0.028962
0.0288032
0.0290707
0.0289178
0.0290878
0.0291877
0.0292127
0.0295865
0.0294445
0.0299019
0.0291468
0.0289629
0.02922
0.029059
0.0292091
0.0292855
0.0292795
0.029597
0.0293935
0.0297243
0.0284371
0.0284043
0.0286993
0.0286893
0.0290251
0.0293555
0.0296877
0.0304651
0.030853
0.0323849
0.0281952
0.0281681
0.0284558
0.0284238
0.0287366
0.0290309
0.0293119
0.0300369
0.0303573
0.0318327
0.0283796
0.0283475
0.0286245
0.0285838
0.0288789
0.0291507
0.0294031
0.0300868
0.0303661
0.0317621
0.0281332
0.0280853
0.028356
0.0282982
0.0285713
0.0288131
0.029027
0.0296648
0.0298816
0.0311619
0.0281735
0.028115
0.028375
0.0283001
0.0285489
0.0287595
0.0289349
0.0295264
0.0296922
0.0308355
0.0281218
0.0280489
0.0282998
0.0282074
0.0284327
0.0286132
0.0287526
0.0293034
0.0294344
0.0304608
0.0279834
0.0278938
0.0281378
0.0280289
0.0282328
0.0283851
0.0284895
0.0289986
0.0290962
0.0300099
0.0281365
0.0280383
0.0282725
0.0281499
0.0283333
0.0284578
0.0285241
0.0289768
0.0290148
0.0297448
0.0279091
0.0278015
0.0280367
0.0279038
0.0280765
0.0281821
0.0282158
0.0286158
0.0285593
0.029058
0.0280405
0.0279036
0.0281283
0.0279841
0.0281329
0.0282079
0.0281979
0.0285102
0.0283248
0.0285301
0.0273492
0.0273742
0.0276525
0.0276895
0.0280636
0.0284599
0.0288936
0.0298434
0.0306757
0.0330745
0.0271354
0.0271645
0.0274314
0.0274415
0.0277835
0.0281295
0.02849
0.0293569
0.030063
0.0324726
0.0272892
0.0273099
0.0275646
0.0275623
0.0278805
0.028194
0.0285108
0.0293117
0.0299306
0.0321925
0.0270546
0.0270566
0.0273026
0.0272779
0.0275662
0.0278377
0.0280977
0.0288263
0.0293297
0.0313137
0.0270867
0.0270743
0.0273069
0.0272599
0.0275161
0.027745
0.0279516
0.0286136
0.0290391
0.0307395
0.0270298
0.0269994
0.0272207
0.0271516
0.0273777
0.0275683
0.0277289
0.0283429
0.0287461
0.0302623
0.0268904
0.0268402
0.0270531
0.0269637
0.0271638
0.0273206
0.0274397
0.0280071
0.0284
0.029784
0.0270219
0.0269599
0.0271617
0.0270558
0.027231
0.027354
0.0274254
0.0279155
0.0282154
0.0292655
0.0268227
0.0267514
0.0269537
0.0268363
0.0269993
0.0270993
0.0271278
0.0275337
0.0276444
0.0281073
0.026913
0.0268088
0.0270008
0.0268694
0.0270056
0.0270695
0.0270412
0.0273227
0.0271851
0.0269933
0.0262102
0.0262854
0.0265492
0.026631
0.0270347
0.0274879
0.028009
0.0290575
0.0302109
0.0336998
0.0260187
0.0260961
0.0263443
0.026394
0.0267559
0.0271424
0.0275622
0.0284871
0.0293823
0.032635
0.0261469
0.0262124
0.0264469
0.0264801
0.0268109
0.0271516
0.0275045
0.0283269
0.0290123
0.0318872
0.025926
0.0259697
0.0261927
0.0261973
0.0264883
0.0267699
0.0270388
0.0277459
0.0282313
0.0306993
0.0259491
0.025974
0.0261808
0.0261569
0.0264059
0.0266299
0.0268228
0.0274339
0.0278204
0.0299875
0.0258885
0.0258914
0.0260845
0.0260333
0.0262448
0.0264204
0.0265558
0.0271096
0.0275443
0.0296888
0.0257518
0.0257318
0.0259152
0.0258401
0.026021
0.0261584
0.0262495
0.0267583
0.0272766
0.0295677
0.0258623
0.0258272
0.0259985
0.0259041
0.0260566
0.0261564
0.0261948
0.0266091
0.0270318
0.028898
0.0256886
0.0256444
0.0258161
0.0257097
0.0258492
0.0259243
0.025912
0.0262161
0.0263705
0.0271057
0.0257462
0.0256658
0.025828
0.0257059
0.0258183
0.0258572
0.0257873
0.0259562
0.0258117
0.0253905
0.0250163
0.0251343
0.0253834
0.0255045
0.0259247
0.0264054
0.0269515
0.0278961
0.0284596
0.0307646
0.0248435
0.0249621
0.025192
0.0252768
0.0256472
0.026047
0.0264591
0.0272277
0.0273257
0.0282173
0.0249509
0.0250541
0.0252691
0.0253332
0.025665
0.0260038
0.0263146
0.0269266
0.0266527
0.0264052
0.0247448
0.0248231
0.0250237
0.0250525
0.0253329
0.0255915
0.0257815
0.0262329
0.0256975
0.0251995
0.0247599
0.0248148
0.0249962
0.0249895
0.0252159
0.0253976
0.0254846
0.0258151
0.0252098
0.0249644
0.0246978
0.0247266
0.0248922
0.0248523
0.0250323
0.025154
0.0251733
0.0254423
0.0250039
0.0256395
0.0245673
0.0245704
0.0247253
0.0246579
0.0248034
0.0248849
0.0248681
0.0251097
0.0248947
0.0265394
0.0246593
0.024644
0.0247864
0.0246978
0.024813
0.0248584
0.0248013
0.024961
0.0247254
0.0261802
0.0245098
0.024486
0.0246292
0.0245292
0.0246329
0.0246581
0.0245646
0.0246364
0.0242974
0.0250032
0.0245421
0.0244797
0.0246151
0.0244997
0.024581
0.0245822
0.0244619
0.0244731
0.0241208
0.0243549
0.0237663
0.0239195
0.0241525
0.0243069
0.0247344
0.0252192
0.0257465
0.0266008
0.0266407
0.0275352
0.0236107
0.0237637
0.0239755
0.0240922
0.0244675
0.0248724
0.0252557
0.0259388
0.0256951
0.0246621
0.0237013
0.023836
0.0240325
0.024125
0.024456
0.0247891
0.025041
0.0255258
0.0249362
0.0226844
0.0235114
0.0236185
0.023798
0.0238487
0.0241167
0.0243467
0.0244309
0.0246944
0.0236578
0.0210051
0.0235208
0.0236002
0.023758
0.0237658
0.0239669
0.024096
0.0240357
0.0241184
0.0228527
0.0203474
0.0234605
0.0235101
0.0236503
0.0236189
0.0237634
0.0238158
0.0236646
0.0236405
0.0224127
0.0208814
0.02334
0.0233617
0.0234908
0.0234294
0.0235354
0.0235437
0.0233662
0.0233233
0.0222839
0.0220694
0.0234176
0.0234181
0.0235352
0.0234517
0.0235271
0.0235031
0.0233114
0.023222
0.0221934
0.0220393
0.0232927
0.0232857
0.0234045
0.0233115
0.0233786
0.0233427
0.0231467
0.0230225
0.0220223
0.0216908
0.0233073
0.0232603
0.0233743
0.0232682
0.0233216
0.0232816
0.0231135
0.0230288
0.0222222
0.0218084
0.0224586
0.0226394
0.0228548
0.0230396
0.0234815
0.0240002
0.0245685
0.0255874
0.0260435
0.0267076
0.0223208
0.0225021
0.0226972
0.0228484
0.023247
0.0237171
0.0242186
0.0252303
0.0262548
0.027947
0.0223989
0.0225603
0.0227411
0.0228666
0.0232192
0.0236179
0.0239824
0.0247781
0.0254775
0.0258749
0.0222273
0.0223595
0.0225218
0.0226
0.022879
0.0231513
0.0232807
0.0237318
0.0235958
0.0218697
0.0222347
0.0223359
0.0224749
0.0225036
0.0227014
0.022841
0.0227478
0.0228677
0.0220204
0.0189085
0.0221801
0.0222487
0.0223691
0.0223527
0.0224808
0.0225139
0.0222666
0.0221313
0.0208889
0.0178483
0.0220739
0.0221132
0.022223
0.0221743
0.0222581
0.0222325
0.0219389
0.0217354
0.0204703
0.018785
0.0221417
0.022158
0.0222571
0.0221862
0.0222394
0.0221787
0.0218842
0.0216644
0.0204217
0.0194023
0.0220416
0.0220523
0.0221546
0.0220768
0.0221253
0.0220559
0.0217827
0.0215916
0.020427
0.0196366
0.022046
0.0220162
0.0221174
0.0220304
0.0220756
0.0220194
0.0218221
0.0217545
0.0208924
0.0201168
0.0210895
0.0212888
0.021484
0.021696
0.0221609
0.0227588
0.0234616
0.0247752
0.0261618
0.0276776
0.0209717
0.0211746
0.0213536
0.0215421
0.0219842
0.0225894
0.0233713
0.0249313
0.0275724
0.0338069
0.0210424
0.021225
0.0213924
0.0215563
0.0219547
0.0224977
0.0231598
0.0245158
0.0269183
0.032355
0.0208918
0.0210453
0.0211947
0.0213085
0.0216255
0.0220261
0.0223887
0.023272
0.0246955
0.0264966
0.0209023
0.0210233
0.0211498
0.0212095
0.021433
0.0216713
0.0217193
0.0220691
0.0223298
0.0206171
0.0208582
0.0209457
0.0210542
0.0210647
0.0212062
0.0213042
0.0211171
0.0210187
0.020365
0.0173113
0.0207705
0.0208294
0.0209292
0.0209068
0.0209996
0.0210177
0.0207426
0.0204832
0.0194058
0.0170478
0.0208335
0.0208691
0.0209607
0.0209177
0.0209823
0.0209593
0.0206796
0.0204433
0.0193273
0.0179797
0.0207591
0.0207915
0.0208883
0.020842
0.0209073
0.0208754
0.0206241
0.0204889
0.0195026
0.018556
0.0207595
0.0207528
0.0208531
0.0208026
0.0208755
0.0208668
0.0207139
0.0207818
0.0201776
0.0192451
0.0196588
0.0198623
0.0200283
0.0202508
0.0207153
0.0213717
0.0221896
0.0236415
0.0257137
0.0286073
0.019564
0.0197764
0.0199323
0.0201455
0.020612
0.0213269
0.022356
0.0242444
0.0276273
0.0378188
0.0196318
0.0198251
0.019974
0.0201664
0.0205954
0.0212625
0.0222038
0.0239221
0.027159
0.0378616
0.0195053
0.0196721
0.0198066
0.0199512
0.0202999
0.0208309
0.0214572
0.0226339
0.0250079
0.0312742
0.0195242
0.0196602
0.0197758
0.019868
0.0201213
0.0204817
0.0207482
0.0212622
0.0223176
0.0236628
0.0194957
0.0196004
0.0197018
0.0197469
0.0199164
0.0201204
0.0201128
0.0200862
0.0198882
0.0182579
0.019431
0.0195105
0.0196077
0.0196241
0.0197488
0.0198631
0.0197358
0.0195026
0.018521
0.0159945
0.0194943
0.0195524
0.0196462
0.019647
0.0197536
0.0198307
0.0196921
0.019539
0.018495
0.0164113
0.0194455
0.0195047
0.0196068
0.0196095
0.0197269
0.0198027
0.0196863
0.0197048
0.0188931
0.0171092
0.0194492
0.0194719
0.019583
0.0195875
0.0197259
0.0198351
0.019823
0.0200951
0.0197771
0.0179576
0.0181677
0.0183543
0.0184744
0.0186733
0.0190786
0.0196985
0.0204911
0.0217941
0.0240897
0.0285103
0.0180988
0.0183009
0.0184171
0.0186205
0.0190474
0.0197477
0.0208116
0.022627
0.0258069
0.0383883
0.0181675
0.0183535
0.018468
0.0186569
0.019055
0.019724
0.020751
0.0224706
0.0254442
0.0405186
0.0180681
0.0182331
0.0183403
0.018491
0.0188212
0.0193857
0.0201631
0.0213669
0.0236363
0.0346807
0.018101
0.0182405
0.0183375
0.0184463
0.0186945
0.0191117
0.0195623
0.0201263
0.0210726
0.0259674
0.018093
0.0182075
0.0182988
0.0183718
0.0185535
0.0188322
0.0190346
0.0191405
0.0187968
0.0185776
0.0180554
0.018152
0.0182475
0.0183038
0.0184616
0.0186701
0.0187628
0.0187382
0.017725
0.0149066
0.0181235
0.018204
0.0183037
0.0183551
0.0185174
0.0187195
0.0188154
0.0189496
0.0182121
0.0151028
0.0181006
0.0181874
0.0183
0.0183609
0.0185506
0.018777
0.0188946
0.0192302
0.0190079
0.0162388
0.0181125
0.0181685
0.018297
0.0183678
0.0185965
0.0188781
0.0190926
0.0197018
0.0201565
0.0176041
0.0166254
0.0167684
0.0168214
0.016951
0.017217
0.0176638
0.0182573
0.0190804
0.0210619
0.0268246
0.0165836
0.016749
0.0168026
0.0169459
0.0172415
0.0177557
0.0185762
0.0198471
0.0218216
0.0337353
0.0166556
0.0168092
0.0168669
0.0170043
0.0172834
0.0177823
0.0186229
0.0199055
0.021258
0.0367248
0.0165852
0.0167261
0.0167867
0.0169037
0.0171413
0.0175892
0.0183212
0.0192791
0.0200234
0.0331256
0.0166361
0.0167609
0.0168245
0.0169205
0.0171102
0.0174704
0.0179908
0.0185548
0.0183475
0.0246341
0.0166521
0.0167628
0.0168339
0.0169163
0.0170808
0.017367
0.0177321
0.0181363
0.0174001
0.0172555
0.016644
0.0167484
0.0168362
0.0169231
0.017105
0.017386
0.0177195
0.0182244
0.0178013
0.0149508
0.0167206
0.0168172
0.0169198
0.0170183
0.0172397
0.0175807
0.017993
0.0187561
0.0194832
0.0173121
0.0167217
0.0168318
0.0169526
0.0170693
0.0173366
0.0177431
0.0182038
0.0191368
0.0208003
0.0200953
0.0167471
0.0168336
0.0169779
0.0171132
0.0174376
0.0179285
0.0184903
0.0196354
0.022155
0.0225192
0.0150477
0.015121
0.015089
0.015106
0.0151582
0.0153088
0.0155758
0.0155987
0.0165084
0.0262311
0.0150331
0.0151344
0.0151056
0.0151389
0.015216
0.0153896
0.0157297
0.0159625
0.015711
0.0268517
0.0151098
0.0152045
0.0151861
0.0152237
0.0152997
0.0154625
0.0158336
0.0161843
0.0146331
0.0279794
0.0150689
0.015162
0.0151581
0.0152
0.0152732
0.0154418
0.0158609
0.0162703
0.0142108
0.0263395
0.0151401
0.0152299
0.0152451
0.0152962
0.0153746
0.0155468
0.0159309
0.0164504
0.0145895
0.0213856
0.0151815
0.0152718
0.015311
0.0153799
0.0154955
0.0157076
0.0161032
0.0169377
0.0164977
0.0190972
0.0152032
0.0153018
0.0153726
0.0154738
0.015663
0.0159793
0.0165016
0.0177438
0.0193027
0.0223503
0.0152888
0.0153904
0.0154876
0.0156197
0.0158887
0.0163537
0.0171104
0.018678
0.0221832
0.0293245
0.0153103
0.0154318
0.0155506
0.0157066
0.0160313
0.0165979
0.0174657
0.0190665
0.0234643
0.0342966
0.01535
0.0154565
0.0156048
0.0157845
0.0161742
0.0168449
0.0178214
0.0194718
0.0244983
0.0371672
0.0134622
0.0134472
0.0133253
0.013206
0.0130061
0.0127552
0.0126187
0.0118667
0.0093905
0.0222123
0.0134724
0.0134895
0.0133717
0.0132658
0.0130763
0.0127965
0.0125281
0.0116501
0.00706559
0.0162931
0.0135526
0.0135689
0.0134671
0.0133748
0.0131992
0.0129074
0.0126201
0.0119578
0.00562311
0.0132157
0.0135389
0.0135654
0.0134886
0.0134259
0.0132912
0.0130568
0.0129288
0.0128349
0.006631
0.0134854
0.0136291
0.0136668
0.0136242
0.0136038
0.013538
0.0134218
0.0134677
0.0141364
0.0103024
0.0172305
0.0136934
0.0137474
0.0137449
0.0137764
0.0138174
0.0138906
0.0141886
0.0156662
0.01589
0.0263995
0.013741
0.0138187
0.0138614
0.0139521
0.0141213
0.0144207
0.0150557
0.0171645
0.0208925
0.0379617
0.0138338
0.0139248
0.0140029
0.0141405
0.0144187
0.0149321
0.0159574
0.0183619
0.023538
0.0465024
0.0138689
0.0139845
0.0140828
0.0142421
0.0145653
0.0151647
0.0163233
0.0185367
0.0231129
0.0483918
0.0139223
0.0140296
0.0141589
0.0143387
0.014713
0.0153865
0.0166141
0.0185656
0.0224643
0.0468562
0.0338061
0.0372857
0.0380406
0.0334845
0.0277749
0.0248416
0.0248355
0.0261374
0.0277905
0.0281139
0.0328832
0.0385184
0.0393547
0.0333236
0.026625
0.023211
0.0232162
0.0250765
0.0277479
0.0293381
0.0314345
0.036149
0.036677
0.0311572
0.0249683
0.0218915
0.0220377
0.0239179
0.026775
0.0285425
0.0296797
0.0338654
0.0340209
0.0292623
0.0237677
0.0208831
0.020984
0.0225168
0.0247573
0.025847
0.0282554
0.0321088
0.0326121
0.0296243
0.0241575
0.0201454
0.0197019
0.0211921
0.0230578
0.022612
0.0270429
0.0302687
0.0321827
0.031208
0.0248474
0.0186576
0.0171457
0.0189218
0.0215455
0.0217718
0.0262236
0.0286859
0.0318713
0.0319392
0.0248204
0.0172921
0.0147714
0.0162516
0.0193792
0.0208701
0.0252244
0.0265018
0.0294368
0.0294842
0.0229832
0.0161782
0.0134879
0.0145149
0.0174696
0.0190847
0.0242137
0.0242567
0.0248844
0.0239517
0.0191053
0.0142631
0.0124651
0.0134033
0.0158967
0.0170235
0.0237557
0.0239626
0.0228107
0.0206673
0.0171128
0.0139556
0.0128529
0.0133344
0.0147644
0.0143608
0.0296976
0.032077
0.03249
0.0285485
0.0239646
0.0215638
0.0219233
0.024292
0.0273828
0.0301809
0.0275941
0.0303847
0.030979
0.0265439
0.0218844
0.019234
0.019261
0.0219355
0.0265321
0.0302616
0.0247461
0.0282134
0.0297947
0.0258361
0.0210041
0.0182154
0.0182959
0.0209085
0.0253911
0.0290162
0.0230432
0.0264679
0.0281247
0.0244829
0.0191754
0.0162241
0.0167762
0.0196177
0.0236525
0.0267695
0.0226134
0.0257541
0.0277456
0.0246944
0.0181135
0.0142982
0.0147929
0.0179467
0.021993
0.0247223
0.0221932
0.0246859
0.0273383
0.0247154
0.0163239
0.0115287
0.0113252
0.0142268
0.0189864
0.022042
0.0222309
0.0233822
0.0260576
0.0235746
0.0145684
0.00973413
0.00924271
0.0113845
0.0157903
0.0190514
0.0216808
0.0216801
0.0233904
0.020907
0.0131167
0.00879378
0.00815725
0.0100088
0.0141459
0.0171466
0.0216689
0.0205538
0.0200726
0.0170024
0.0110962
0.00754109
0.00720536
0.00924196
0.0133466
0.016507
0.0229676
0.0216636
0.0195571
0.0165918
0.0125691
0.00972302
0.00941847
0.0110681
0.0135662
0.0158972
0.0274896
0.0280478
0.0269427
0.0235347
0.0198307
0.0176506
0.0178834
0.0205363
0.0245206
0.0274764
0.0268155
0.0255416
0.0240546
0.0210905
0.0180977
0.0162251
0.0163292
0.0187894
0.023621
0.0274106
0.0227774
0.023184
0.023916
0.0209041
0.0172351
0.0152566
0.0154648
0.0178886
0.0225267
0.0260754
0.019926
0.02119
0.0226835
0.0193904
0.0146279
0.0123055
0.0128673
0.0158165
0.0204275
0.0235096
0.0189842
0.0206867
0.0227021
0.01847
0.0117428
0.00929495
0.0101977
0.0134984
0.018205
0.0210066
0.0182236
0.0200797
0.02221
0.0169668
0.00862719
0.00673239
0.00780285
0.0104958
0.0148576
0.0174608
0.0183333
0.0192345
0.0210289
0.0152651
0.00683746
0.00546027
0.00649247
0.00858089
0.0122753
0.0143487
0.018221
0.0184656
0.0194152
0.0139118
0.00635391
0.00473296
0.00540092
0.00730548
0.0110304
0.0129176
0.0189892
0.0184426
0.0181828
0.0137677
0.00714636
0.00447836
0.00467383
0.00648389
0.0102608
0.012523
0.0211606
0.0201232
0.0190721
0.0163412
0.0114415
0.00770464
0.00677559
0.00823283
0.0108414
0.0126147
0.0278953
0.024969
0.0213545
0.0176677
0.0141559
0.0121954
0.0125025
0.0151218
0.019128
0.0212773
0.0300326
0.0225244
0.0192346
0.0162607
0.0135248
0.0119019
0.0122027
0.0144878
0.0188474
0.0218401
0.0272529
0.0221602
0.0199336
0.016219
0.0128807
0.0113543
0.0118272
0.0140732
0.018194
0.0209366
0.023523
0.0201353
0.0188403
0.0144775
0.0102696
0.0087965
0.00958563
0.0120787
0.0161007
0.0183954
0.0195906
0.0187504
0.018588
0.0127756
0.00720457
0.00617504
0.00739106
0.0100669
0.0139303
0.0155805
0.0171385
0.0177759
0.0181414
0.010808
0.00454919
0.00444404
0.00599286
0.00826994
0.0114561
0.0123842
0.0162808
0.017069
0.0176102
0.00971432
0.00369799
0.00372212
0.00505904
0.00700936
0.00984624
0.0102613
0.016543
0.0167282
0.0172215
0.00996873
0.00390209
0.00318468
0.00389935
0.00569403
0.00877151
0.00937954
0.0178298
0.0175963
0.0180468
0.0123411
0.00544617
0.00318856
0.00341991
0.00470895
0.00758359
0.00851713
0.020267
0.0199016
0.0199386
0.0164383
0.0103404
0.00627892
0.00512327
0.00593387
0.00780377
0.00821652
0.0280789
0.0228898
0.0176283
0.0129628
0.00908735
0.00717578
0.00751718
0.00995331
0.0136631
0.0152349
0.0299151
0.0212337
0.0161652
0.0120267
0.00868367
0.00705474
0.00761287
0.00989665
0.0138319
0.0162096
0.0298864
0.0223032
0.0173087
0.0122204
0.00852163
0.00705554
0.00784006
0.010119
0.0137375
0.0158034
0.0260427
0.0205054
0.0163373
0.0107024
0.00676831
0.00585321
0.00688079
0.00901548
0.0122565
0.0138412
0.0204101
0.0185453
0.0158941
0.00886873
0.00441122
0.00432435
0.00573826
0.0078182
0.0107696
0.0115472
0.0168616
0.0169251
0.015635
0.00716655
0.00298059
0.00344211
0.0050821
0.00697952
0.00941375
0.0093743
0.0154419
0.0162213
0.0157927
0.00739799
0.00314881
0.0033203
0.00466374
0.00635545
0.0086537
0.0082538
0.016103
0.0160645
0.0162889
0.00921748
0.00397365
0.00313767
0.00372783
0.00529217
0.00778888
0.00773744
0.0174771
0.0172271
0.0180627
0.012058
0.00524294
0.00326744
0.00336035
0.00434317
0.0064534
0.00661851
0.0196014
0.0195594
0.0201242
0.0158989
0.00928052
0.00548237
0.00447799
0.00501659
0.0062979
0.00605324
0.0272669
0.0220884
0.0160734
0.0101445
0.00585095
0.00407989
0.00445401
0.00666041
0.00989973
0.0106887
0.0287154
0.0212593
0.0144334
0.00883971
0.00516992
0.00377374
0.0044222
0.00653075
0.0100568
0.0117419
0.0295705
0.0229229
0.0158505
0.00924
0.00531011
0.00411589
0.00494693
0.00710143
0.0103554
0.0117606
0.0253269
0.0209369
0.0149321
0.00808758
0.00438541
0.00386421
0.00493015
0.00689632
0.00968343
0.0105324
0.0201847
0.018669
0.014424
0.00657633
0.00306894
0.00333443
0.0046645
0.00646716
0.00896868
0.00893513
0.0166951
0.016855
0.0143447
0.0058044
0.00271309
0.00317255
0.00465257
0.00633507
0.00852302
0.00773188
0.0149381
0.0158623
0.0150583
0.00754742
0.00380663
0.00362185
0.00485785
0.00640267
0.00843152
0.00739915
0.0154691
0.0157193
0.0162095
0.0106062
0.00531199
0.00399264
0.0045461
0.00587338
0.00791863
0.00719501
0.0163487
0.0165933
0.0179442
0.0136332
0.00652817
0.00437893
0.00421211
0.00507104
0.00671422
0.00613084
0.017681
0.0181823
0.0195769
0.0166498
0.00980247
0.00602877
0.0049279
0.00540424
0.00642964
0.00564367
0.0254718
0.0213908
0.0158783
0.0091894
0.00456883
0.00304032
0.00356346
0.00566191
0.00818821
0.00787575
0.0275232
0.0213437
0.013962
0.0070451
0.0037056
0.00288041
0.00360751
0.0053819
0.00821034
0.00880083
0.0298143
0.0237488
0.0158896
0.00785142
0.00385833
0.00308116
0.00397909
0.00581725
0.00860666
0.0092285
0.0253861
0.0212258
0.0148524
0.00696136
0.00341364
0.00313837
0.00412338
0.00596123
0.00848045
0.00851324
0.019582
0.0178799
0.0139017
0.00613204
0.00299232
0.00307553
0.00419917
0.00599158
0.0083813
0.00743062
0.0151672
0.0157423
0.0135597
0.00662879
0.00339018
0.003332
0.00456967
0.00638424
0.00858481
0.00693223
0.0132052
0.0147186
0.0143774
0.00948047
0.00513898
0.00426722
0.00522571
0.00692147
0.00893258
0.00723097
0.0135311
0.0145733
0.0160655
0.0131439
0.00707198
0.00528936
0.00548486
0.0067782
0.00873793
0.00736777
0.0141488
0.0155006
0.0185018
0.0169775
0.00902288
0.00609994
0.00530492
0.00602517
0.00757117
0.00637025
0.0152012
0.0168672
0.0203642
0.0198452
0.0123884
0.00806411
0.00619687
0.00644581
0.0072302
0.00615132
0.0222429
0.02056
0.0170696
0.0107248
0.00524512
0.00320535
0.00411169
0.00641871
0.0089211
0.00782091
0.0236644
0.0211001
0.0155341
0.00772762
0.00380345
0.00306063
0.00399236
0.00611167
0.00897905
0.00877132
0.0267646
0.0236271
0.0180798
0.00957213
0.00415346
0.00332786
0.00436803
0.00644909
0.00948714
0.00968163
0.0235198
0.0207435
0.017079
0.00909354
0.00388288
0.003467
0.00461772
0.00672171
0.00968545
0.00956512
0.0169373
0.0158685
0.0153863
0.00896014
0.00406604
0.00382241
0.00501204
0.00712368
0.00998811
0.00898746
0.01151
0.0129641
0.0141856
0.0105372
0.00505579
0.00469414
0.00590525
0.00797316
0.0104336
0.00835065
0.0104926
0.0128577
0.0146346
0.0141412
0.00760768
0.00627706
0.00703644
0.0086202
0.0106458
0.00867079
0.0126676
0.0141335
0.0172257
0.0184332
0.0104979
0.00751659
0.00721569
0.00841765
0.0106859
0.00958565
0.0150584
0.0164559
0.0212096
0.0232421
0.0138179
0.00838582
0.00679261
0.00742268
0.00945428
0.00886393
0.0171709
0.0184406
0.024613
0.0264704
0.01752
0.0109331
0.00764489
0.00723642
0.00853659
0.00849675
0.0230315
0.0214372
0.0199583
0.0157377
0.009255
0.00449348
0.00340052
0.0045375
0.00970808
0.0159263
0.0207506
0.0215194
0.0196678
0.0128384
0.00683439
0.00405606
0.00377171
0.00527548
0.0100132
0.0132894
0.0221883
0.0227059
0.0218717
0.0158293
0.00876031
0.00516661
0.00449452
0.00596328
0.011048
0.0140047
0.0202304
0.0206715
0.0219229
0.0165741
0.00898472
0.00533874
0.00468399
0.00612854
0.0112945
0.0144478
0.0154611
0.0169381
0.0214624
0.0176066
0.00919977
0.00565394
0.00493491
0.00607626
0.0109749
0.0153213
0.012781
0.0151456
0.0214147
0.0209517
0.011047
0.00674211
0.00509467
0.00542435
0.0101636
0.0168287
0.0166432
0.0165673
0.02265
0.0260309
0.0154563
0.00878053
0.00523667
0.0044438
0.0100764
0.0204405
0.0255015
0.0205616
0.0255714
0.0306781
0.0205491
0.010696
0.00533305
0.00404823
0.0117245
0.0255686
0.0321293
0.0255735
0.0297362
0.0342222
0.0241689
0.0120463
0.00496368
0.00354327
0.0121829
0.027633
0.0352972
0.0286894
0.033475
0.0362919
0.0273299
0.0158344
0.00623551
0.00312705
0.012016
0.0303924
0.0323948
0.0242928
0.0216819
0.0196092
0.0164259
0.0122737
0.00493961
-0.00121884
0.0205506
0.0852071
0.024232
0.0234562
0.022311
0.0192784
0.0161703
0.0133358
0.00787964
0.00297041
0.0224289
0.0752399
0.0212932
0.0228397
0.0231585
0.0209902
0.0178002
0.0149374
0.00931336
0.00460094