/*--------------------------------*- C++ -*----------------------------------*\
  =========                 |
  \\      /  F ield         | OpenFOAM: The Open Source CFD Toolbox
   \\    /   O peration     | Website:  https://openfoam.org
    \\  /    A nd           | Version:  6
     \\/     M anipulation  |
\*---------------------------------------------------------------------------*/
FoamFile
{
    version     2.0;
    format      ascii;
    class       surfaceScalarField;
    location    "1400";
    object      phi;
}
// * * * * * * * * * * * * * * * * * * * * * * * * * * * * * * * * * * * * * //

dimensions      [0 3 -1 0 0 0 0];

internalField   nonuniform List<scalar> 
19500
(
1.54678e-07
1.57894e-07
9.96876e-05
1.60544e-08
1.58091e-07
9.99807e-05
9.71619e-09
1.58212e-07
9.98483e-05
3.84108e-09
1.58311e-07
9.98477e-05
-2.81972e-09
1.58451e-07
9.98484e-05
-9.23303e-09
1.58602e-07
9.9848e-05
-1.42765e-08
1.58752e-07
9.98465e-05
-1.91498e-08
1.58904e-07
9.98461e-05
-1.6039e-07
1.58984e-07
9.99824e-05
1.59029e-07
9.96807e-05
1.54873e-07
1.79673e-08
9.99852e-05
1.6048e-08
1.79561e-08
0.000100279
9.80628e-09
1.79938e-08
0.000100147
3.95277e-09
1.80532e-08
0.000100146
-2.69506e-09
1.81306e-08
0.000100147
-9.10718e-09
1.82226e-08
0.000100147
-1.41654e-08
1.83206e-08
0.000100146
-1.90029e-08
1.84119e-08
0.000100146
-1.60339e-07
1.84999e-08
0.000100282
1.86454e-08
9.99802e-05
1.54986e-07
1.26341e-08
9.98505e-05
1.60859e-08
1.27123e-08
0.000100144
9.87191e-09
1.27734e-08
0.000100012
4.04834e-09
1.28602e-08
0.000100011
-2.58772e-09
1.29744e-08
0.000100012
-8.99653e-09
1.31081e-08
0.000100012
-1.40535e-08
1.32492e-08
0.00010001
-1.89147e-08
1.33819e-08
0.00010001
-1.60247e-07
1.35032e-08
0.000100147
1.36247e-08
9.98449e-05
1.55067e-07
7.43645e-09
9.98503e-05
1.61414e-08
7.52607e-09
0.000100144
9.95841e-09
7.61085e-09
0.000100012
4.16401e-09
7.71958e-09
0.000100011
-2.45385e-09
7.85851e-09
0.000100012
-8.85542e-09
8.01776e-09
0.000100012
-1.39197e-08
8.1834e-09
0.00010001
-1.88152e-08
8.33715e-09
0.00010001
-1.60064e-07
8.47002e-09
0.000100146
8.62188e-09
9.98451e-05
1.55179e-07
1.10239e-09
9.98513e-05
1.62092e-08
1.19463e-09
0.000100145
1.00646e-08
1.28329e-09
0.000100013
4.3025e-09
1.40064e-09
0.000100012
-2.29492e-09
1.54913e-09
0.000100013
-8.68895e-09
1.71796e-09
0.000100013
-1.37641e-08
1.8925e-09
0.000100012
-1.86986e-08
2.05375e-09
0.000100011
-1.59859e-07
2.19594e-09
0.000100148
2.36197e-09
9.98466e-05
1.5529e-07
-5.33828e-09
9.98513e-05
1.62846e-08
-5.25168e-09
0.000100146
1.01808e-08
-5.16765e-09
0.000100013
4.45066e-09
-5.0525e-09
0.000100012
-2.12624e-09
-4.90796e-09
0.000100013
-8.51324e-09
-4.74475e-09
0.000100013
-1.36021e-08
-4.57691e-09
0.000100012
-1.85783e-08
-4.42291e-09
0.000100012
-1.59635e-07
-4.28433e-09
0.000100148
-4.12053e-09
9.9847e-05
1.5539e-07
-1.08722e-08
9.98503e-05
1.63603e-08
-1.08022e-08
0.000100145
1.02957e-08
-1.07211e-08
0.000100012
4.59408e-09
-1.06189e-08
0.000100011
-1.96403e-09
-1.04933e-08
0.000100012
-8.34515e-09
-1.03541e-08
0.000100012
-1.34498e-08
-1.02132e-08
0.000100011
-1.84663e-08
-1.00859e-08
0.000100011
-1.59411e-07
-9.97733e-09
0.000100147
-9.83559e-09
9.98465e-05
1.55487e-07
-1.67567e-08
9.98506e-05
1.64261e-08
-1.66451e-08
0.000100145
1.03968e-08
-1.65843e-08
0.000100012
4.71775e-09
-1.65134e-08
0.000100012
-1.82497e-09
-1.64257e-08
0.000100013
-8.20201e-09
-1.63296e-08
0.000100013
-1.33225e-08
-1.62338e-08
0.000100011
-1.83727e-08
-1.61472e-08
0.000100011
-1.5923e-07
-1.60781e-08
0.000100147
-1.60535e-08
9.98472e-05
1.55517e-07
-1.55885e-07
9.99838e-05
1.64866e-08
-1.55906e-07
0.000100278
1.04828e-08
-1.55867e-07
0.000100145
4.81552e-09
-1.5575e-07
0.000100145
-1.7118e-09
-1.55615e-07
0.000100146
-8.08338e-09
-1.55454e-07
0.000100146
-1.32239e-08
-1.55281e-07
0.000100144
-1.8305e-08
-1.55135e-07
0.000100144
-1.59046e-07
-1.54969e-07
0.00010028
-1.5468e-07
9.99798e-05
1.55492e-07
9.96888e-05
1.65966e-08
9.99831e-05
1.05574e-08
9.98503e-05
4.9151e-09
9.98501e-05
-1.59561e-09
9.98511e-05
-7.95892e-09
9.98511e-05
-1.31079e-08
9.98501e-05
-1.8293e-08
9.98502e-05
-1.58753e-07
9.99857e-05
9.96868e-05
2.18571e-07
2.26377e-07
9.92433e-05
6.59553e-08
2.26819e-07
9.99071e-05
3.66749e-08
2.26769e-07
9.96514e-05
1.0099e-08
2.27037e-07
9.96479e-05
-1.03064e-08
2.27311e-07
9.96421e-05
-2.98352e-08
2.27599e-07
9.96406e-05
-5.37776e-08
2.27887e-07
9.96432e-05
-7.87476e-08
2.28115e-07
9.96437e-05
-2.3384e-07
2.2856e-07
9.99096e-05
2.28761e-07
9.92186e-05
2.19011e-07
7.25291e-08
9.99207e-05
6.61767e-08
7.27348e-08
0.000100587
3.6927e-08
7.27703e-08
0.000100331
1.03648e-08
7.28425e-08
0.000100328
-1.0011e-08
7.29679e-08
0.000100323
-2.95316e-08
7.31197e-08
0.000100322
-5.35268e-08
7.32899e-08
0.000100325
-7.85677e-08
7.34794e-08
0.000100326
-2.33663e-07
7.36542e-08
0.000100593
7.39041e-08
9.99019e-05
2.18938e-07
4.59214e-08
9.96589e-05
6.62109e-08
4.61391e-08
0.000100324
3.70322e-08
4.62435e-08
0.000100068
1.04918e-08
4.63675e-08
0.000100065
-9.87625e-09
4.6545e-08
0.00010006
-2.93918e-08
4.67563e-08
0.000100058
-5.33829e-08
4.69908e-08
0.000100061
-7.8401e-08
4.72304e-08
0.000100062
-2.33198e-07
4.7414e-08
0.000100328
4.78046e-08
9.96383e-05
2.19166e-07
2.13308e-08
9.96564e-05
6.62807e-08
2.15395e-08
0.000100322
3.71562e-08
2.16686e-08
0.000100066
1.06642e-08
2.184e-08
0.000100063
-9.67085e-09
2.20661e-08
0.000100058
-2.91642e-08
2.23293e-08
0.000100056
-5.31442e-08
2.26152e-08
0.00010006
-7.81826e-08
2.28925e-08
0.00010006
-2.32885e-07
2.31134e-08
0.000100326
2.36242e-08
9.96369e-05
2.19384e-07
2.04735e-09
9.96519e-05
6.64012e-08
2.26402e-09
0.000100318
3.73335e-08
2.40179e-09
0.000100062
1.0891e-08
2.60616e-09
0.000100059
-9.40782e-09
2.86947e-09
0.000100053
-2.88797e-08
3.17395e-09
0.000100052
-5.28614e-08
3.50048e-09
0.000100056
-7.79427e-08
3.80796e-09
0.000100056
-2.32452e-07
4.06343e-09
0.000100322
4.61818e-09
9.96337e-05
2.19596e-07
-1.74035e-08
9.96519e-05
6.65463e-08
-1.71963e-08
0.000100319
3.7544e-08
-1.70606e-08
0.000100062
1.11555e-08
-1.68378e-08
0.000100059
-9.10313e-09
-1.65553e-08
0.000100054
-2.85542e-08
-1.62294e-08
0.000100053
-5.25469e-08
-1.58844e-08
0.000100056
-7.76813e-08
-1.55681e-08
0.000100057
-2.31963e-07
-1.52969e-08
0.000100322
-1.47437e-08
9.9635e-05
2.19782e-07
-4.24963e-08
9.96564e-05
6.67049e-08
-4.23496e-08
0.000100324
3.77724e-08
-4.22208e-08
0.000100067
1.14395e-08
-4.19961e-08
0.000100064
-8.77657e-09
-4.17225e-08
0.000100059
-2.82093e-08
-4.14106e-08
0.000100058
-5.22224e-08
-4.10867e-08
0.000100061
-7.74201e-08
-4.08055e-08
0.000100062
-2.31453e-07
-4.05526e-08
0.000100327
-4.00324e-08
9.96409e-05
2.19901e-07
-6.99414e-08
9.96588e-05
6.6875e-08
-6.98683e-08
0.000100326
3.79979e-08
-6.97252e-08
0.000100069
1.17091e-08
-6.95303e-08
0.000100066
-8.47078e-09
-6.93086e-08
0.000100061
-2.78924e-08
-6.90581e-08
0.000100061
-5.19402e-08
-6.88025e-08
0.000100064
-7.72065e-08
-6.85932e-08
0.000100065
-2.30964e-07
-6.84487e-08
0.00010033
-6.79661e-08
9.96448e-05
2.2023e-07
-2.2233e-07
9.99166e-05
6.70229e-08
-2.22359e-07
0.000100585
3.81585e-08
-2.22012e-07
0.000100327
1.19182e-08
-2.21832e-07
0.000100324
-8.2172e-09
-2.21533e-07
0.000100319
-2.76204e-08
-2.21162e-07
0.000100318
-5.16875e-08
-2.20752e-07
0.000100321
-7.70585e-08
-2.20337e-07
0.000100322
-2.30783e-07
-2.20205e-07
0.000100586
-2.1945e-07
9.99012e-05
2.20217e-07
9.92467e-05
6.71464e-08
9.99143e-05
3.84085e-08
9.96576e-05
1.22873e-08
9.96549e-05
-7.7847e-09
9.96502e-05
-2.71604e-08
9.96499e-05
-5.1227e-08
9.9654e-05
-7.66025e-08
9.9656e-05
-2.30016e-07
9.99196e-05
9.92377e-05
2.4421e-07
2.57044e-07
9.87426e-05
8.35775e-08
2.57899e-07
9.98105e-05
4.79396e-08
2.5748e-07
9.94303e-05
1.19586e-08
2.58067e-07
9.94265e-05
-1.76769e-08
2.58562e-07
9.94139e-05
-4.58558e-08
2.59129e-07
9.94103e-05
-7.74801e-08
2.59733e-07
9.94158e-05
-1.05939e-07
2.60117e-07
9.94127e-05
-2.69795e-07
2.61284e-07
9.98129e-05
2.61613e-07
9.86877e-05
2.45083e-07
9.51252e-08
9.98382e-05
8.42426e-08
9.57567e-08
0.00010091
4.84959e-08
9.57759e-08
0.000100529
1.25592e-08
9.59609e-08
0.000100526
-1.70418e-08
9.62708e-08
0.000100515
-4.5235e-08
9.66273e-08
0.000100513
-7.69542e-08
9.70097e-08
0.00010052
-1.05757e-07
9.74381e-08
0.000100518
-2.69479e-07
9.78682e-08
0.000100921
9.81717e-08
9.97964e-05
2.44612e-07
6.40646e-08
9.9446e-05
8.42563e-08
6.45462e-08
0.000100517
4.87175e-08
6.47622e-08
0.000100135
1.282e-08
6.50573e-08
0.000100132
-1.67476e-08
6.54709e-08
0.000100121
-4.49184e-08
6.59485e-08
0.000100118
-7.66468e-08
6.64659e-08
0.000100124
-1.05344e-07
6.69991e-08
0.000100122
-2.68273e-07
6.73778e-08
0.000100523
6.81473e-08
9.94006e-05
2.4512e-07
3.15361e-08
9.94445e-05
8.44296e-08
3.20096e-08
0.000100516
4.90129e-08
3.22594e-08
0.000100135
1.32206e-08
3.2642e-08
0.000100132
-1.62734e-08
3.31439e-08
0.00010012
-4.4401e-08
3.37218e-08
0.000100118
-7.61182e-08
3.43441e-08
0.000100124
-1.04861e-07
3.49581e-08
0.000100122
-2.67734e-07
3.54196e-08
0.000100522
3.64211e-08
9.94015e-05
2.45494e-07
3.90759e-09
9.94348e-05
8.4711e-08
4.36136e-09
0.000100508
4.94133e-08
4.63465e-09
0.000100125
1.37238e-08
5.07366e-09
0.000100123
-1.56951e-08
5.63471e-09
0.000100111
-4.37828e-08
6.28229e-09
0.000100109
-7.55116e-08
6.97782e-09
0.000100116
-1.04346e-07
7.64888e-09
0.000100114
-2.6686e-07
8.15876e-09
0.000100513
9.29218e-09
9.93946e-05
2.45891e-07
-2.40464e-08
9.94347e-05
8.50218e-08
-2.36486e-08
0.000100509
4.98605e-08
-2.33735e-08
0.000100126
1.42864e-08
-2.29097e-08
0.000100123
-1.50467e-08
-2.23291e-08
0.000100112
-4.3091e-08
-2.16554e-08
0.00010011
-7.48384e-08
-2.09312e-08
0.000100117
-1.03778e-07
-2.02507e-08
0.000100115
-2.65911e-07
-1.9719e-08
0.000100513
-1.85524e-08
9.93976e-05
2.46278e-07
-5.75411e-08
9.94443e-05
8.53406e-08
-5.72623e-08
0.000100519
5.03238e-08
-5.70166e-08
0.000100136
1.4872e-08
-5.65637e-08
0.000100134
-1.43681e-08
-5.60181e-08
0.000100122
-4.23665e-08
-5.53824e-08
0.00010012
-7.4141e-08
-5.47013e-08
0.000100128
-1.0319e-07
-5.40843e-08
0.000100126
-2.64961e-07
-5.35831e-08
0.000100524
-5.24395e-08
9.94105e-05
2.46428e-07
-9.01697e-08
9.94458e-05
8.56885e-08
-9.02195e-08
0.000100521
5.07806e-08
-8.9884e-08
0.000100138
1.5425e-08
-8.94916e-08
0.000100136
-1.37369e-08
-8.90562e-08
0.000100124
-4.17025e-08
-8.85457e-08
0.000100123
-7.35225e-08
-8.79941e-08
0.00010013
-1.02714e-07
-8.75371e-08
0.000100129
-2.6388e-07
-8.72561e-08
0.000100525
-8.61114e-08
9.94152e-05
2.47342e-07
-2.50116e-07
9.98299e-05
8.60314e-08
-2.50217e-07
0.000100907
5.10808e-08
-2.49271e-07
0.000100523
1.58282e-08
-2.49018e-07
0.00010052
-1.32564e-08
-2.48441e-07
0.000100509
-4.11842e-08
-2.4776e-07
0.000100506
-7.3025e-08
-2.47028e-07
0.000100513
-1.02419e-07
-2.46104e-07
0.000100511
-2.63915e-07
-2.46246e-07
0.000100908
-2.4465e-07
9.97967e-05
2.47257e-07
9.87498e-05
8.60678e-08
9.98258e-05
5.15321e-08
9.94434e-05
1.65036e-08
9.94415e-05
-1.24167e-08
9.94313e-05
-4.02462e-08
9.94306e-05
-7.20337e-08
9.94394e-05
-1.01346e-07
9.94397e-05
-2.62342e-07
9.98352e-05
9.87311e-05
2.58011e-07
2.76638e-07
9.82086e-05
9.047e-08
2.7804e-07
9.97007e-05
4.89794e-08
2.7725e-07
9.91952e-05
8.4976e-09
2.78267e-07
9.91893e-05
-2.63204e-08
2.79008e-07
9.91703e-05
-5.90725e-08
2.79951e-07
9.91637e-05
-9.33183e-08
2.81044e-07
9.91696e-05
-1.24585e-07
2.81639e-07
9.9163e-05
-2.97076e-07
2.83689e-07
9.97025e-05
2.84222e-07
9.81069e-05
2.5948e-07
1.07721e-07
9.97483e-05
9.16849e-08
1.08864e-07
0.000101248
4.99522e-08
1.08843e-07
0.00010074
9.59709e-09
1.09193e-07
0.000100737
-2.52064e-08
1.09754e-07
0.00010072
-5.80242e-08
1.10386e-07
0.000100716
-9.23966e-08
1.1105e-07
0.000100725
-1.24301e-07
1.11798e-07
0.000100721
-2.96519e-07
1.12591e-07
0.000101265
1.1305e-07
9.96716e-05
2.58589e-07
7.29763e-08
9.92228e-05
9.16509e-08
7.38018e-08
0.000100719
5.02975e-08
7.41378e-08
0.000100212
1.00083e-08
7.46693e-08
0.000100208
-2.47042e-08
7.53996e-08
0.00010019
-5.7454e-08
7.62317e-08
0.000100186
-9.18511e-08
7.71233e-08
0.000100194
-1.23538e-07
7.80503e-08
0.000100188
-2.94409e-07
7.87195e-08
0.000100728
8.00462e-08
9.91399e-05
2.59469e-07
3.77669e-08
9.9221e-05
9.19753e-08
3.86195e-08
0.00010072
5.08309e-08
3.90042e-08
0.000100212
1.07199e-08
3.96749e-08
0.000100208
-2.3866e-08
4.05481e-08
0.00010019
-5.65453e-08
4.15481e-08
0.000100186
-9.09347e-08
4.26212e-08
0.000100194
-1.22695e-07
4.36968e-08
0.000100189
-2.93528e-07
4.45064e-08
0.000100728
4.62039e-08
9.91425e-05
2.59992e-07
6.16555e-09
9.92071e-05
9.24761e-08
6.93222e-09
0.000100708
5.15319e-08
7.38524e-09
0.000100199
1.1595e-08
8.14599e-09
0.000100195
-2.28647e-08
9.11093e-09
0.000100178
-5.54791e-08
1.02252e-08
0.000100174
-8.98938e-08
1.14281e-08
0.000100182
-1.21802e-07
1.26066e-08
0.000100177
-2.91945e-07
1.34744e-08
0.000100715
1.54602e-08
9.9134e-05
2.60627e-07
-2.59592e-08
9.92069e-05
9.30123e-08
-2.53419e-08
0.000100709
5.22988e-08
-2.48563e-08
0.0001002
1.25618e-08
-2.40602e-08
0.000100196
-2.1748e-08
-2.30704e-08
0.000100179
-5.42828e-08
-2.19116e-08
0.000100175
-8.87287e-08
-2.06507e-08
0.000100184
-1.20792e-07
-1.94374e-08
0.00010018
-2.90313e-07
-1.85532e-08
0.000100716
-1.6404e-08
9.91398e-05
2.61324e-07
-6.27174e-08
9.92205e-05
9.35481e-08
-6.22614e-08
0.000100725
5.30804e-08
-6.18312e-08
0.000100214
1.35611e-08
-6.10661e-08
0.000100211
-2.05776e-08
-6.01426e-08
0.000100195
-5.30198e-08
-5.90461e-08
0.000100191
-8.74943e-08
-5.7845e-08
0.0001002
-1.19723e-07
-5.67183e-08
0.000100197
-2.88705e-07
-5.58202e-08
0.000100731
-5.37671e-08
9.91599e-05
2.6151e-07
-9.99035e-08
9.92222e-05
9.41338e-08
-1.00058e-07
0.000100727
5.38539e-08
-9.94437e-08
0.000100217
1.45146e-08
-9.87829e-08
0.000100213
-1.94755e-08
-9.80445e-08
0.000100197
-5.18419e-08
-9.71521e-08
0.000100194
-8.63672e-08
-9.6157e-08
0.000100204
-1.18774e-07
-9.52421e-08
0.000100201
-2.86766e-07
-9.47874e-08
0.000100733
-9.24894e-08
9.91682e-05
2.63081e-07
-2.66376e-07
9.97341e-05
9.47572e-08
-2.666e-07
0.000101243
5.43698e-08
-2.64983e-07
0.000100729
1.52104e-08
-2.64634e-07
0.000100726
-1.86692e-08
-2.63621e-07
0.000100709
-5.09814e-08
-2.62494e-07
0.000100705
-8.54674e-08
-2.61292e-07
0.000100714
-1.18285e-07
-2.59638e-07
0.000100709
-2.86637e-07
-2.59718e-07
0.000101242
-2.56953e-07
9.96753e-05
2.62874e-07
9.8221e-05
9.4718e-08
9.97279e-05
5.50828e-08
9.92185e-05
1.62668e-08
9.92162e-05
-1.72624e-08
9.92017e-05
-4.92954e-08
9.92007e-05
-8.37286e-08
9.92131e-05
-1.16148e-07
9.92133e-05
-2.83976e-07
9.9744e-05
9.81907e-05
2.66859e-07
2.92313e-07
9.76501e-05
9.45128e-08
2.94356e-07
9.95793e-05
4.6712e-08
2.93268e-07
9.89503e-05
2.06035e-09
2.94834e-07
9.89398e-05
-3.72642e-08
2.95889e-07
9.89144e-05
-7.38766e-08
2.97355e-07
9.89036e-05
-1.10249e-07
2.99151e-07
9.89074e-05
-1.44365e-07
3.00107e-07
9.88978e-05
-3.2476e-07
3.03179e-07
9.95805e-05
3.04185e-07
9.74787e-05
2.69056e-07
1.18562e-07
9.96537e-05
9.63648e-08
1.20268e-07
0.000101596
4.82405e-08
1.20242e-07
0.000100961
3.86944e-09
1.20824e-07
0.000100956
-3.54494e-08
1.21712e-07
0.000100934
-7.21886e-08
1.22714e-07
0.000100928
-1.08667e-07
1.2377e-07
0.000100938
-1.43748e-07
1.24938e-07
0.000100932
-3.23626e-07
1.26196e-07
0.000101622
1.27073e-07
9.95258e-05
2.67791e-07
8.01107e-08
9.89942e-05
9.631e-08
8.13587e-08
0.00010093
4.87442e-08
8.18492e-08
0.000100299
4.46819e-09
8.26954e-08
0.000100291
-3.46789e-08
8.38363e-08
0.000100268
-7.12853e-08
8.51327e-08
0.000100261
-1.07814e-07
8.6519e-08
0.000100268
-1.42556e-07
8.79718e-08
0.000100261
-3.20439e-07
8.90426e-08
0.000100944
9.12477e-08
9.8856e-05
2.69128e-07
4.308e-08
9.89896e-05
9.68469e-08
4.44285e-08
0.00010093
4.95952e-08
4.49792e-08
0.000100296
5.58961e-09
4.60265e-08
0.000100289
-3.33609e-08
4.73817e-08
0.000100266
-6.98603e-08
4.89329e-08
0.000100259
-1.06383e-07
5.05973e-08
0.000100267
-1.41231e-07
5.22981e-08
0.00010026
-3.18983e-07
5.35933e-08
0.000100942
5.6343e-08
9.88591e-05
2.69819e-07
8.72141e-09
9.89724e-05
9.76244e-08
9.89076e-09
0.000100915
5.06834e-08
1.05721e-08
0.000100281
6.94835e-09
1.17542e-08
0.000100274
-3.18071e-08
1.3248e-08
0.000100252
-6.82055e-08
1.49803e-08
0.000100245
-1.04758e-07
1.68576e-08
0.000100253
-1.39805e-07
1.87476e-08
0.000100247
-3.1633e-07
2.01089e-08
0.000100926
2.34143e-08
9.88514e-05
2.70759e-07
-2.63853e-08
9.8972e-05
9.84542e-08
-2.54906e-08
0.000100918
5.18666e-08
-2.47297e-08
0.000100282
8.44616e-09
-2.34943e-08
0.000100276
-3.0069e-08
-2.1957e-08
0.000100254
-6.63351e-08
-2.01386e-08
0.000100248
-1.02911e-07
-1.81293e-08
0.000100257
-1.38175e-07
-1.61316e-08
0.000100251
-3.13644e-07
-1.47043e-08
0.000100927
-1.10234e-08
9.88616e-05
2.71876e-07
-6.56203e-08
9.89886e-05
9.92818e-08
-6.49146e-08
0.000100937
5.30694e-08
-6.42449e-08
0.000100301
9.99951e-09
-6.30637e-08
0.000100295
-2.82302e-08
-6.16178e-08
0.000100273
-6.43192e-08
-5.98666e-08
0.000100268
-1.00902e-07
-5.78912e-08
0.000100278
-1.36374e-07
-5.59244e-08
0.000100273
-3.11022e-07
-5.4416e-08
0.000100946
-5.07453e-08
9.88897e-05
2.72134e-07
-1.07461e-07
9.89926e-05
1.00172e-07
-1.07659e-07
0.000100942
5.42671e-08
-1.06722e-07
0.000100306
1.15086e-08
-1.05704e-07
0.0001003
-2.64522e-08
-1.04524e-07
0.000100279
-6.23636e-08
-1.0306e-07
0.000100274
-9.8938e-08
-1.01352e-07
0.000100285
-1.34674e-07
-9.9708e-08
0.000100281
-3.07571e-07
-9.86491e-08
0.000100952
-9.48462e-08
9.89056e-05
2.74372e-07
-2.78286e-07
9.96312e-05
1.01121e-07
-2.78594e-07
0.000101588
5.5079e-08
-2.76277e-07
0.000100946
1.26268e-08
-2.75758e-07
0.000100939
-2.51496e-08
-2.74122e-07
0.000100917
-6.09234e-08
-2.72326e-07
0.000100911
-9.74003e-08
-2.70434e-07
0.00010092
-1.33535e-07
-2.67496e-07
0.000100914
-3.07009e-07
-2.6733e-07
0.000101585
-2.62343e-07
9.95371e-05
2.74077e-07
9.76691e-05
1.01091e-07
9.96228e-05
5.61649e-08
9.89877e-05
1.42034e-08
9.89829e-05
-2.29266e-08
9.89652e-05
-5.81571e-08
9.89641e-05
-9.43892e-08
9.89795e-05
-1.30097e-07
9.8982e-05
-3.02309e-07
9.965e-05
9.76267e-05
2.69972e-07
3.03564e-07
9.70773e-05
9.52096e-08
3.0635e-07
9.94485e-05
4.19556e-08
3.05045e-07
9.86993e-05
-7.04802e-09
3.0729e-07
9.86823e-05
-5.14221e-08
3.0881e-07
9.86506e-05
-9.25017e-08
3.11022e-07
9.86343e-05
-1.31133e-07
3.13819e-07
9.86329e-05
-1.66992e-07
3.15373e-07
9.86189e-05
-3.55248e-07
3.19745e-07
9.945e-05
3.21554e-07
9.68026e-05
2.73058e-07
1.27474e-07
9.95575e-05
9.78425e-08
1.29831e-07
0.000101948
4.42525e-08
1.29858e-07
0.000101191
-4.2345e-09
1.3078e-07
0.000101181
-4.85664e-08
1.3211e-07
0.000101156
-8.97891e-08
1.33627e-07
0.000101147
-1.28504e-07
1.3523e-07
0.000101156
-1.65635e-07
1.36976e-07
0.000101148
-3.53071e-07
1.38789e-07
0.000101992
1.40492e-07
9.93547e-05
2.71458e-07
8.67855e-08
9.87642e-05
9.78163e-08
8.85673e-08
0.000101146
4.49808e-08
8.92761e-08
0.000100393
-3.36647e-09
9.05545e-08
0.00010038
-4.74335e-08
9.22448e-08
0.000100353
-8.8457e-08
9.41669e-08
0.000100342
-1.27265e-07
9.62209e-08
0.000100347
-1.63966e-07
9.83895e-08
0.000100337
-3.48544e-07
1.00023e-07
0.000101169
1.0374e-07
9.85451e-05
2.73338e-07
4.85015e-08
9.87553e-05
9.86574e-08
5.048e-08
0.000101143
4.62696e-08
5.12626e-08
0.000100388
-1.68807e-09
5.28141e-08
0.000100376
-4.54674e-08
5.48075e-08
0.000100348
-8.63381e-08
5.70902e-08
0.000100338
-1.25142e-07
5.95482e-08
0.000100343
-1.6196e-07
6.20901e-08
0.000100334
-3.46012e-07
6.40852e-08
0.000101163
6.86689e-08
9.85491e-05
2.74258e-07
1.16464e-08
9.87358e-05
9.9795e-08
1.33383e-08
0.000101128
4.78691e-08
1.4319e-08
0.000100371
3.13341e-10
1.60594e-08
0.000100359
-4.31776e-08
1.82546e-08
0.000100332
-8.38919e-08
2.08131e-08
0.000100323
-1.22725e-07
2.36109e-08
0.000100329
-1.59735e-07
2.6465e-08
0.000100321
-3.41614e-07
2.85679e-08
0.000101145
3.404e-08
9.85455e-05
2.75594e-07
-2.62061e-08
9.87351e-05
1.01013e-07
-2.49399e-08
0.000101131
4.96035e-08
-2.3831e-08
0.000100373
2.51921e-09
-2.20129e-08
0.000100362
-4.0605e-08
-1.97378e-08
0.000100336
-8.1099e-08
-1.70035e-08
0.000100327
-1.19953e-07
-1.39357e-08
0.000100334
-1.57183e-07
-1.07828e-08
0.000100327
-3.37216e-07
-8.4806e-09
0.000101146
-2.25534e-09
9.85619e-05
2.77244e-07
-6.7435e-08
9.87534e-05
1.02233e-07
-6.63894e-08
0.000101155
5.13687e-08
-6.54138e-08
0.000100394
4.82105e-09
-6.36822e-08
0.000100384
-3.78375e-08
-6.15137e-08
0.000100358
-7.80174e-08
-5.88213e-08
0.00010035
-1.16807e-07
-5.56886e-08
0.000100359
-1.54245e-07
-5.24056e-08
0.000100353
-3.32794e-07
-4.96682e-08
0.000101168
-4.34136e-08
9.85994e-05
2.77656e-07
-1.12581e-07
9.87609e-05
1.03512e-07
-1.12738e-07
0.000101164
5.31311e-08
-1.11425e-07
0.000100403
7.10007e-09
-1.09941e-07
0.000100393
-3.50823e-08
-1.08133e-07
0.000100368
-7.48843e-08
-1.05817e-07
0.000100361
-1.13532e-07
-1.03028e-07
0.000100372
-1.51093e-07
-9.99505e-08
0.000100368
-3.27037e-07
-9.78688e-08
0.000101178
-9.10536e-08
9.86278e-05
2.80617e-07
-2.85197e-07
9.9524e-05
1.04842e-07
-2.85547e-07
0.000101937
5.43343e-08
-2.82471e-07
0.000101168
8.8001e-09
-2.81657e-07
0.000101157
-3.30319e-08
-2.79165e-07
0.00010113
-7.2519e-08
-2.76383e-07
0.000101121
-1.10701e-07
-2.73219e-07
0.000101129
-1.4885e-07
-2.68373e-07
0.000101122
-3.24627e-07
-2.66686e-07
0.000101932
-2.57963e-07
9.93804e-05
2.8028e-07
9.71042e-05
1.04907e-07
9.95131e-05
5.59335e-08
9.87547e-05
1.11213e-08
9.87465e-05
-2.96278e-08
9.87272e-05
-6.80046e-08
9.87265e-05
-1.05747e-07
9.87444e-05
-1.4278e-07
9.87517e-05
-3.16514e-07
9.95581e-05
9.70525e-05
2.67571e-07
3.10835e-07
9.64997e-05
9.195e-08
3.14478e-07
9.93105e-05
3.37238e-08
3.13061e-07
9.84453e-05
-1.98439e-08
3.16146e-07
9.84205e-05
-6.97532e-08
3.18372e-07
9.83829e-05
-1.1598e-07
3.21678e-07
9.83595e-05
-1.57542e-07
3.2592e-07
9.83491e-05
-1.94801e-07
3.2857e-07
9.83284e-05
-3.94256e-07
3.3464e-07
9.9316e-05
3.3784e-07
9.60714e-05
2.71737e-07
1.34117e-07
9.94633e-05
9.55594e-08
1.37238e-07
0.000102302
3.70953e-08
1.37385e-07
0.000101426
-1.56082e-08
1.38788e-07
0.000101412
-6.53241e-08
1.40737e-07
0.000101384
-1.11625e-07
1.42992e-07
0.000101373
-1.53133e-07
1.45419e-07
0.000101378
-1.92043e-07
1.47992e-07
0.000101368
-3.90177e-07
1.50698e-07
0.000102375
1.53921e-07
9.91492e-05
2.69857e-07
9.24374e-08
9.85369e-05
9.56148e-08
9.49047e-08
0.000101364
3.81336e-08
9.59081e-08
0.000100493
-1.43437e-08
9.77763e-08
0.000100475
-6.36669e-08
1.00217e-07
0.000100443
-1.09672e-07
1.03005e-07
0.000100428
-1.51312e-07
1.05982e-07
0.000100428
-1.89579e-07
1.09138e-07
0.000100415
-3.83793e-07
1.11562e-07
0.000101403
1.17735e-07
9.81984e-05
2.72369e-07
5.36738e-08
9.85226e-05
9.68757e-08
5.64471e-08
0.000101358
4.00232e-08
5.75487e-08
0.000100484
-1.18953e-08
5.97766e-08
0.000100466
-6.08042e-08
6.26246e-08
0.000100436
-1.06597e-07
6.58907e-08
0.000100422
-1.4825e-07
6.93807e-08
0.000100423
-1.86681e-07
7.3027e-08
0.00010041
-3.79416e-07
7.5902e-08
0.000101393
8.32904e-08
9.8205e-05
2.73619e-07
1.49997e-08
9.85017e-05
9.84853e-08
1.73661e-08
0.000101343
4.23031e-08
1.87373e-08
0.000100466
-9.02938e-09
2.12161e-08
0.00010045
-5.75224e-08
2.43433e-08
0.00010042
-1.03117e-07
2.80037e-08
0.000100407
-1.44825e-07
3.19961e-08
0.000100409
-1.83494e-07
3.614e-08
0.000100397
-3.72435e-07
3.9121e-08
0.000101372
4.7728e-08
9.82097e-05
2.75468e-07
-2.49582e-08
9.85004e-05
1.00215e-07
-2.31902e-08
0.000101348
4.47678e-08
-2.16386e-08
0.000100469
-5.87839e-09
-1.90531e-08
0.000100453
-5.38332e-08
-1.57855e-08
0.000100425
-9.91168e-08
-1.18081e-08
0.000100413
-1.40833e-07
-7.25686e-09
0.000100416
-1.79822e-07
-2.41935e-09
0.000100406
-3.65536e-07
1.14935e-09
0.000101371
1.11419e-08
9.82343e-05
2.77778e-07
-6.7513e-08
9.8519e-05
1.01956e-07
-6.60221e-08
0.000101374
4.72788e-08
-6.46454e-08
0.000100493
-2.56817e-09
-6.21811e-08
0.000100477
-4.98033e-08
-5.90186e-08
0.00010045
-9.45325e-08
-5.49775e-08
0.000100439
-1.36038e-07
-5.00757e-08
0.000100444
-1.75211e-07
-4.45341e-08
0.000100436
-3.5842e-07
-3.98479e-08
0.000101394
-2.86941e-08
9.82824e-05
2.78465e-07
-1.14836e-07
9.85306e-05
1.0374e-07
-1.14867e-07
0.000101388
4.97969e-08
-1.13093e-07
0.000100506
7.70874e-10
-1.10981e-07
0.000100491
-4.56393e-08
-1.08269e-07
0.000100465
-8.95841e-08
-1.04671e-07
0.000100456
-1.30507e-07
-1.00031e-07
0.000100463
-1.69674e-07
-9.46204e-08
0.000100458
-3.48408e-07
-8.99658e-08
0.000101408
-7.77825e-08
9.83297e-05
2.82203e-07
-2.87482e-07
9.94153e-05
1.05538e-07
-2.87773e-07
0.000102287
5.15377e-08
-2.83851e-07
0.000101394
3.29427e-09
-2.82545e-07
0.000101378
-4.24457e-08
-2.78897e-07
0.000101347
-8.55613e-08
-2.74591e-07
0.000101335
-1.25563e-07
-2.69424e-07
0.000101339
-1.64691e-07
-2.61014e-07
0.000101328
-3.42248e-07
-2.56275e-07
0.000102277
-2.39612e-07
9.9201e-05
2.81926e-07
9.65354e-05
1.05824e-07
9.9402e-05
5.38436e-08
9.85234e-05
6.68857e-09
9.85116e-05
-3.72542e-08
9.84926e-05
-7.84671e-08
9.84934e-05
-1.16982e-07
9.85139e-05
-1.54276e-07
9.85285e-05
-3.26924e-07
9.9475e-05
9.64868e-05
2.61222e-07
3.15858e-07
9.59237e-05
8.55482e-08
3.2051e-07
9.91667e-05
2.20166e-08
3.19167e-07
9.81908e-05
-3.68497e-08
3.23324e-07
9.81571e-05
-9.31192e-08
3.26634e-07
9.81134e-05
-1.45916e-07
3.31561e-07
9.80813e-05
-1.92772e-07
3.37965e-07
9.80583e-05
-2.33955e-07
3.42483e-07
9.80277e-05
-4.51305e-07
3.50867e-07
9.91833e-05
3.5502e-07
9.52658e-05
2.66719e-07
1.39527e-07
9.9374e-05
9.03909e-08
1.43549e-07
0.000102657
2.6887e-08
1.43924e-07
0.000101666
-3.05883e-08
1.46014e-07
0.000101648
-8.63187e-08
1.48852e-07
0.000101618
-1.38883e-07
1.52207e-07
0.000101606
-1.8542e-07
1.55846e-07
0.000101607
-2.28737e-07
1.59733e-07
0.000101595
-4.45046e-07
1.63493e-07
0.00010278
1.68689e-07
9.88914e-05
2.64672e-07
9.7389e-08
9.83154e-05
9.06229e-08
1.00736e-07
0.000101582
2.83773e-08
1.02147e-07
0.000100598
-2.87213e-08
1.04828e-07
0.000100574
-8.38682e-08
1.08308e-07
0.00010054
-1.3603e-07
1.12294e-07
0.000100521
-1.82667e-07
1.16567e-07
0.000100515
-2.25512e-07
1.21041e-07
0.000100497
-4.36978e-07
1.24861e-07
0.000101654
1.3587e-07
9.77949e-05
2.67932e-07
5.86092e-08
9.82945e-05
9.24609e-08
6.23815e-08
0.000101573
3.1097e-08
6.39218e-08
0.000100584
-2.52008e-08
6.70557e-08
0.000100561
-7.97587e-08
7.10413e-08
0.000100528
-1.31618e-07
7.55939e-08
0.000100511
-1.78321e-07
8.04111e-08
0.000100506
-2.21086e-07
8.53647e-08
0.000100489
-4.28644e-07
8.94042e-08
0.000101637
1.02811e-07
9.78105e-05
2.69659e-07
1.88403e-08
9.82729e-05
9.46975e-08
2.20729e-08
0.000101559
3.42844e-08
2.39507e-08
0.000100568
-2.11793e-08
2.73924e-08
0.000100546
-7.5168e-08
3.17276e-08
0.000100514
-1.26797e-07
3.68035e-08
0.000100498
-1.7373e-07
4.2286e-08
0.000100495
-2.16574e-07
4.78642e-08
0.000100479
-4.1659e-07
5.17596e-08
0.000101611
6.576e-08
9.78316e-05
2.72168e-07
-2.25329e-08
9.82707e-05
9.70954e-08
-2.0101e-08
0.000101566
3.77019e-08
-1.79967e-08
0.000100572
-1.67976e-08
-1.44235e-08
0.00010055
-7.0037e-08
-9.86818e-09
0.00010052
-1.21278e-07
-4.24075e-09
0.000100505
-1.68394e-07
2.30444e-09
0.000100504
-2.11516e-07
9.39744e-09
0.000100488
-4.05894e-07
1.45845e-08
0.000101605
2.97328e-08
9.7866e-05
2.7527e-07
-6.60626e-08
9.82883e-05
9.95088e-08
-6.39976e-08
0.000101595
4.11767e-08
-6.21138e-08
0.000100596
-1.21762e-08
-5.87057e-08
0.000100576
-6.43307e-08
-5.42245e-08
0.000100547
-1.14664e-07
-4.82997e-08
0.000100534
-1.61357e-07
-4.07772e-08
0.000100535
-2.04608e-07
-3.16695e-08
0.000100521
-3.95388e-07
-2.31708e-08
0.000101625
-4.13332e-09
9.79223e-05
2.76384e-07
-1.15173e-07
9.83043e-05
1.01942e-07
-1.14947e-07
0.000101614
4.46755e-08
-1.12628e-07
0.000100615
-7.42251e-09
-1.09704e-07
0.000100595
-5.81867e-08
-1.05771e-07
0.000100568
-1.07003e-07
-1.00311e-07
0.000100557
-1.5223e-07
-9.28862e-08
0.000100561
-1.94632e-07
-8.30297e-08
0.000100553
-3.78501e-07
-7.30643e-08
0.000101644
-4.93641e-08
9.79974e-05
2.80933e-07
-2.8677e-07
9.93069e-05
1.04288e-07
-2.86922e-07
0.000102637
4.7107e-08
-2.8211e-07
0.000101621
-3.80268e-09
-2.80102e-07
0.0001016
-5.33216e-08
-2.74952e-07
0.000101566
-1.00462e-07
-2.68515e-07
0.00010155
-1.43224e-07
-2.59912e-07
0.000101549
-1.84346e-07
-2.45551e-07
0.000101533
-3.62298e-07
-2.33195e-07
0.000102617
-1.99288e-07
9.89893e-05
2.80808e-07
9.59684e-05
1.04943e-07
9.92916e-05
5.03359e-08
9.82964e-05
1.08498e-09
9.82811e-05
-4.56239e-08
9.82646e-05
-8.91835e-08
9.82685e-05
-1.28501e-07
9.82935e-05
-1.65101e-07
9.83199e-05
-3.30476e-07
9.94083e-05
9.59565e-05
2.52206e-07
3.19977e-07
9.53526e-05
7.68758e-08
3.25805e-07
9.90173e-05
7.30618e-09
3.24775e-07
9.79367e-05
-5.81087e-08
3.30303e-07
9.78933e-05
-1.22361e-07
3.35217e-07
9.78433e-05
-1.84275e-07
3.42556e-07
9.78012e-05
-2.40657e-07
3.52287e-07
9.77629e-05
-2.92598e-07
3.60259e-07
9.77195e-05
-5.46593e-07
3.7246e-07
9.90651e-05
3.78498e-07
9.43404e-05
2.59318e-07
1.44677e-07
9.92911e-05
8.32613e-08
1.49758e-07
0.00010301
1.42109e-08
1.50512e-07
0.00010191
-4.90287e-08
1.53551e-07
0.000101889
-1.12007e-07
1.5767e-07
0.00010186
-1.72943e-07
1.6266e-07
0.000101847
-2.28214e-07
1.68297e-07
0.000101847
-2.82068e-07
1.74139e-07
0.000101835
-5.3691e-07
1.79358e-07
0.000103228
1.87753e-07
9.85449e-05
2.57257e-07
1.02289e-07
9.81017e-05
8.38031e-08
1.06743e-07
0.000101799
1.63504e-08
1.08708e-07
0.000100708
-4.625e-08
1.12488e-07
0.000100679
-1.08344e-07
1.17407e-07
0.000100643
-1.6859e-07
1.23136e-07
0.000100621
-2.24116e-07
1.29255e-07
0.00010061
-2.77428e-07
1.35539e-07
0.000100589
-5.25966e-07
1.41085e-07
0.000101941
1.60635e-07
9.72963e-05
2.61409e-07
6.36316e-08
9.80729e-05
8.64123e-08
6.86415e-08
0.000101787
2.01968e-08
7.07666e-08
0.00010069
-4.12372e-08
7.50939e-08
0.000100661
-1.02423e-07
8.05967e-08
0.000100627
-1.62256e-07
8.68835e-08
0.000100607
-2.18023e-07
9.33501e-08
0.000100598
-2.71509e-07
9.96586e-08
0.000100579
-5.09992e-07
1.04657e-07
0.000101913
1.27035e-07
9.7335e-05
2.638e-07
2.31692e-08
9.80507e-05
8.94683e-08
2.74955e-08
0.000101776
2.45816e-08
3.00101e-08
0.000100675
-3.5662e-08
3.46821e-08
0.000100647
-9.60454e-08
4.0566e-08
0.000100615
-1.55714e-07
4.74198e-08
0.000100597
-2.1211e-07
5.46346e-08
0.00010059
-2.65893e-07
6.14807e-08
0.000100571
-4.89228e-07
6.44689e-08
0.000101876
8.39357e-08
9.73865e-05
2.67138e-07
-1.92595e-08
9.80471e-05
9.27188e-08
-1.59612e-08
0.000101785
2.92186e-08
-1.31894e-08
0.000100679
-2.96958e-08
-8.37924e-09
0.000100653
-8.90936e-08