/*--------------------------------*- C++ -*----------------------------------*\
  =========                 |
  \\      /  F ield         | OpenFOAM: The Open Source CFD Toolbox
   \\    /   O peration     | Website:  https://openfoam.org
    \\  /    A nd           | Version:  6
     \\/     M anipulation  |
\*---------------------------------------------------------------------------*/
FoamFile
{
    version     2.0;
    format      ascii;
    class       volVectorField;
    location    "1400";
    object      U;
}
// * * * * * * * * * * * * * * * * * * * * * * * * * * * * * * * * * * * * * //

dimensions      [0 1 -1 0 0 0 0];

internalField   nonuniform List<vector> 
7000
(
(0.000594013 0.00060672 0.997865)
(0.000747343 0.000608049 0.999401)
(0.000203566 0.000607956 0.998939)
(6.90704e-05 0.000608367 0.998939)
(4.72732e-06 0.000608899 0.998941)
(-5.86838e-05 0.000609484 0.99894)
(-0.000117762 0.000610063 0.998936)
(-0.000243886 0.000610602 0.998935)
(-0.000787644 0.000611479 0.999407)
(-0.000616396 0.000611043 0.99785)
(0.000595355 0.000771088 0.999413)
(0.000748317 0.000772037 1.00095)
(0.000204071 0.000772577 1.00049)
(6.99623e-05 0.00077326 1.00049)
(5.88304e-06 0.000774236 1.00049)
(-5.74472e-05 0.000775356 1.00049)
(-0.000116491 0.000776516 1.00049)
(-0.000242584 0.000777667 1.00049)
(-0.000786881 0.000778627 1.00096)
(-0.000616813 0.000779378 0.999402)
(0.000595234 0.000229035 0.998945)
(0.000748832 0.000229457 1.00048)
(0.000204747 0.000230111 1.00002)
(7.08049e-05 0.000230909 1.00002)
(6.88733e-06 0.000231943 1.00002)
(-5.63648e-05 0.000233142 1.00002)
(-0.000115436 0.000234398 1.00002)
(-0.000241655 0.000235572 1.00002)
(-0.000785875 0.000236548 1.00049)
(-0.000615895 0.000237904 0.998932)
(0.000595588 0.00010112 0.998945)
(0.000749429 0.00010184 1.00048)
(0.000205517 0.000102603 1.00002)
(7.18163e-05 0.000103578 1.00002)
(8.12118e-06 0.000104834 1.00002)
(-5.50069e-05 0.000106281 1.00002)
(-0.00011409 0.000107794 1.00002)
(-0.000240428 0.000109203 1.00002)
(-0.000784566 0.000110417 1.00049)
(-0.000615247 0.000111865 0.998934)
(0.000596017 4.16289e-05 0.998948)
(0.000750241 4.25157e-05 1.00049)
(0.000206454 4.33682e-05 1.00002)
(7.30361e-05 4.44831e-05 1.00002)
(9.59293e-06 4.59018e-05 1.00003)
(-5.34019e-05 4.75219e-05 1.00003)
(-0.000112511 4.92014e-05 1.00002)
(-0.000238993 5.07565e-05 1.00002)
(-0.000783105 5.21174e-05 1.00049)
(-0.000614478 5.36782e-05 0.998938)
(0.000596452 -2.04097e-05 0.998948)
(0.000751111 -1.95222e-05 1.00049)
(0.000207468 -1.86666e-05 1.00002)
(7.43494e-05 -1.75186e-05 1.00002)
(1.11609e-05 -1.60735e-05 1.00003)
(-5.17053e-05 -1.44374e-05 1.00003)
(-0.000110852 -1.27523e-05 1.00002)
(-0.000237489 -1.12037e-05 1.00002)
(-0.000781551 -9.82126e-06 1.00049)
(-0.000613629 -8.22498e-06 0.998939)
(0.000596853 -8.20686e-05 0.998945)
(0.000751955 -8.1192e-05 1.00048)
(0.00020846 -8.04185e-05 1.00002)
(7.5628e-05 -7.9355e-05 1.00002)
(1.26731e-05 -7.80289e-05 1.00002)
(-5.00807e-05 -7.65403e-05 1.00002)
(-0.000109277 -7.50191e-05 1.00002)
(-0.000236061 -7.3628e-05 1.00002)
(-0.000780065 -7.23748e-05 1.00049)
(-0.000612797 -7.09846e-05 0.998937)
(0.000597201 -0.000213308 0.998945)
(0.000752758 -0.000212411 1.00048)
(0.000209324 -0.000211794 1.00002)
(7.67362e-05 -0.000210899 1.00002)
(1.39728e-05 -0.000209788 1.00002)
(-4.86966e-05 -0.000208546 1.00002)
(-0.000107941 -0.000207278 1.00002)
(-0.000234864 -0.000206134 1.00002)
(-0.000778878 -0.000205061 1.00049)
(-0.000612083 -0.000204121 0.998937)
(0.000597885 -0.000756293 0.999409)
(0.000753372 -0.000755984 1.00095)
(0.000209968 -0.000755337 1.00049)
(7.76073e-05 -0.000754434 1.00049)
(1.5016e-05 -0.000753398 1.00049)
(-4.75606e-05 -0.000752227 1.00049)
(-0.000106838 -0.000751028 1.00048)
(-0.000233838 -0.00075001 1.00048)
(-0.000777932 -0.000749117 1.00095)
(-0.000611965 -0.000747598 0.9994)
(0.000597214 -0.000598924 0.997869)
(0.000753667 -0.000599583 0.999408)
(0.000210885 -0.000598869 0.998944)
(7.85705e-05 -0.00059845 0.998945)
(1.60834e-05 -0.000597927 0.998948)
(-4.63989e-05 -0.000597311 0.998948)
(-0.000105769 -0.00059666 0.998945)
(-0.000233087 -0.00059606 0.998945)
(-0.000776479 -0.000596001 0.999416)
(-0.000610271 -0.000594287 0.997864)
(0.00144196 0.00148459 0.994361)
(0.00167874 0.00149151 0.999162)
(0.000378748 0.00148934 0.997313)
(0.00019614 0.00149096 0.997298)
(-8.16402e-08 0.00149244 0.997281)
(-0.000203223 0.00149407 0.997272)
(-0.000380621 0.00149571 0.997272)
(-0.000526637 0.00149678 0.99727)
(-0.00182397 0.0015012 0.99918)
(-0.00152435 0.00149749 0.994226)
(0.00144893 0.00175338 0.99924)
(0.00168282 0.00175743 1.00405)
(0.000379969 0.00175746 1.0022)
(0.000198692 0.00175903 1.00219)
(2.81865e-06 0.00176112 1.00218)
(-0.000200269 0.00176345 1.00217)
(-0.000377803 0.0017659 1.00218)
(-0.000523349 0.00176832 1.00218)
(-0.00182284 0.00177147 1.00409)
(-0.00152815 0.00177308 0.999137)
(0.00144662 0.000456835 0.997354)
(0.00168273 0.000457817 1.00217)
(0.000380946 0.000458804 1.00031)
(0.000199818 0.000459863 1.0003)
(4.14587e-06 0.000461363 1.00029)
(-0.000198846 0.000463134 1.00028)
(-0.000376327 0.000465103 1.00028)
(-0.000522126 0.00046713 1.00028)
(-0.0018196 0.000468585 1.00219)
(-0.00152362 0.000472914 0.997242)
(0.00144804 0.000298745 0.997345)
(0.00168407 0.000300844 1.00216)
(0.000381982 0.000301977 1.00031)
(0.000201287 0.000303444 1.00029)
(6.06003e-06 0.000305462 1.00028)
(-0.000196635 0.00030785 1.00027)
(-0.000373966 0.000310477 1.00028)
(-0.000519957 0.000313089 1.00028)
(-0.00181658 0.000315164 1.00219)
(-0.00152209 0.000319717 0.997239)
(0.00144919 0.000118909 0.997336)
(0.00168581 0.000121132 1.00215)
(0.000383464 0.00012248 1.0003)
(0.0002033 0.000124385 1.00029)
(8.54396e-06 0.000126871 1.00027)
(-0.000193846 0.000129758 1.00027)
(-0.000371104 0.000132871 1.00027)
(-0.000517395 0.000135844 1.00027)
(-0.00181301 0.000138281 1.00218)
(-0.00151968 0.000143574 0.997236)
(0.00145035 -7.81215e-05 0.997335)
(0.00168768 -7.60422e-05 1.00216)
(0.000385211 -7.46381e-05 1.0003)
(0.000205678 -7.24622e-05 1.00029)
(1.14285e-05 -6.96891e-05 1.00027)
(-0.000190643 -6.64901e-05 1.00027)
(-0.00036789 -6.30852e-05 1.00027)
(-0.000514551 -5.9927e-05 1.00027)
(-0.00180906 -5.72642e-05 1.00218)
(-0.00151701 -5.16059e-05 0.997243)
(0.00145144 -0.000261801 0.997345)
(0.00168951 -0.000259985 1.00217)
(0.000387091 -0.000258615 1.00031)
(0.000208257 -0.000256352 1.0003)
(1.45206e-05 -0.000253552 1.00029)
(-0.000187241 -0.000250356 1.00028)
(-0.000364543 -0.000247012 1.00029)
(-0.000511632 -0.000244037 1.00029)
(-0.00180505 -0.000241434 1.00219)
(-0.0015143 -0.000236101 0.997261)
(0.00145193 -0.000427276 0.997354)
(0.00169124 -0.000425084 1.00218)
(0.000388946 -0.000424049 1.00032)
(0.000210753 -0.000422074 1.00031)
(1.74351e-05 -0.000419646 1.0003)
(-0.000184094 -0.000416858 1.00029)
(-0.000361564 -0.000413973 1.0003)
(-0.000509069 -0.000411448 1.0003)
(-0.00180161 -0.000409185 1.0022)
(-0.00151153 -0.000405326 0.997279)
(0.00145566 -0.00171844 0.999215)
(0.00169363 -0.00171887 1.00404)
(0.000390161 -0.00171639 1.00218)
(0.000212646 -0.00171421 1.00217)
(1.97861e-05 -0.00171147 1.00216)
(-0.00018145 -0.00170825 1.00215)
(-0.000358966 -0.00170482 1.00216)
(-0.000506783 -0.00170181 1.00216)
(-0.00179981 -0.00170028 1.00405)
(-0.00151249 -0.00169328 0.999132)
(0.00145104 -0.00146214 0.99438)
(0.00169353 -0.00146683 0.999203)
(0.000393115 -0.001463 0.997348)
(0.000215788 -0.00146217 0.997337)
(2.37534e-05 -0.00146051 0.997327)
(-0.000176873 -0.00145852 0.997325)
(-0.000354396 -0.00145636 0.997333)
(-0.000503343 -0.00145397 0.99734)
(-0.00179284 -0.00145522 0.999236)
(-0.0015039 -0.00144662 0.994332)
(0.00195 0.0020264 0.990188)
(0.00207457 0.00204067 0.998729)
(0.000347808 0.00203482 0.9955)
(0.000297739 0.00203883 0.995463)
(-2.17609e-05 0.00204175 0.995383)
(-0.000328972 0.00204518 0.99536)
(-0.000618233 0.00204886 0.995392)
(-0.000600501 0.00205056 0.995383)
(-0.00232759 0.0020611 0.998754)
(-0.0020992 0.00205299 0.989823)
(0.00196451 0.00220363 0.998921)
(0.0020834 0.00221228 1.00749)
(0.000351209 0.00221051 1.00425)
(0.000303978 0.00221432 1.00423)
(-1.54462e-05 0.00221873 1.00416)
(-0.000322687 0.0022237 1.00414)
(-0.00061289 0.00222894 1.00419)
(-0.000594391 0.00223364 1.00418)
(-0.0023258 0.00224187 1.00757)
(-0.00210728 0.00224431 0.998641)
(0.00195829 0.000481819 0.995606)
(0.00208132 0.000484708 1.00417)
(0.000353097 0.000486601 1.00093)
(0.000306273 0.000488933 1.0009)
(-1.26e-05 0.000492363 1.00083)
(-0.000319572 0.000496332 1.00081)
(-0.000609546 0.000500661 1.00085)
(-0.000591747 0.000505256 1.00084)
(-0.00231739 0.000508311 1.00422)
(-0.00209653 0.000516233 0.995302)
(0.00196186 0.000478027 0.995585)
(0.00208461 0.000483271 1.00416)
(0.000355361 0.000485486 1.00091)
(0.000309719 0.000488852 1.00088)
(-8.14925e-06 0.000493462 1.00081)
(-0.000314524 0.000498821 1.00079)
(-0.000604169 0.000504628 1.00083)
(-0.000586906 0.000510492 1.00083)
(-0.00231153 0.000514902 1.0042)
(-0.00209391 0.000523378 0.995296)
(0.00196403 0.000186822 0.995525)
(0.00208816 0.000191599 1.0041)
(0.000358606 0.000194288 1.00086)
(0.000314234 0.000198478 1.00083)
(-2.65529e-06 0.00020389 1.00076)
(-0.00030843 0.000210126 1.00074)
(-0.00059791 0.000216826 1.00078)
(-0.000581481 0.000223354 1.00078)
(-0.00230411 0.00022829 1.00414)
(-0.00208868 0.000239008 0.995254)
(0.0019664 -0.000108799 0.995525)
(0.00209192 -0.000104544 1.00411)
(0.000362238 -0.000101764 1.00086)
(0.000319316 -9.71776e-05 1.00083)
(3.48595e-06 -9.13715e-05 1.00076)
(-0.000301609 -8.46474e-05 1.00075)
(-0.000590974 -7.74193e-05 1.00079)
(-0.0005755 -7.05368e-05 1.00079)
(-0.00229595 -6.5205e-05 1.00415)
(-0.00208308 -5.34933e-05 0.995274)
(0.00196879 -0.000406959 0.995584)
(0.0020956 -0.000403951 1.00417)
(0.000366006 -0.000401162 1.00093)
(0.000324633 -0.000396455 1.0009)
(9.88615e-06 -0.000390722 1.00083)
(-0.000294472 -0.000384102 1.00081)
(-0.000583797 -0.000377026 1.00086)
(-0.000569303 -0.000370514 1.00086)
(-0.00228765 -0.000365423 1.00421)
(-0.00207759 -0.000353308 0.995355)
(0.00196917 -0.000427025 0.995605)
(0.00209857 -0.000423422 1.0042)
(0.000369842 -0.000421418 1.00095)
(0.000329782 -0.000417384 1.00092)
(1.58741e-05 -0.000412624 1.00085)
(-0.000287887 -0.000407065 1.00084)
(-0.000577363 -0.0004011 1.00088)
(-0.000563956 -0.000395855 1.00089)
(-0.00227971 -0.000391236 1.00424)
(-0.00207083 -0.000382609 0.995397)
(0.00197805 -0.00213937 0.998864)
(0.00210493 -0.00214089 1.00747)
(0.000372146 -0.00213436 1.00421)
(0.000333471 -0.00213057 1.00418)
(2.03327e-05 -0.00212525 1.00411)
(-0.000282791 -0.00211892 1.00409)
(-0.000572372 -0.00211207 1.00414)
(-0.000559298 -0.00210514 1.00413)
(-0.00227806 -0.00210415 1.00748)
(-0.00207461 -0.00208916 0.998637)
(0.00196821 -0.00198394 0.990237)
(0.00210389 -0.00199381 0.998832)
(0.000377037 -0.00198473 0.995587)
(0.000338732 -0.00198374 0.995563)
(2.79242e-05 -0.00198027 0.9955)
(-0.000273715 -0.00197631 0.995495)
(-0.000562162 -0.00197214 0.995548)
(-0.000551763 -0.00196627 0.995562)
(-0.00226341 -0.00197075 0.9989)
(-0.00205639 -0.00195227 0.990106)
(0.00227402 0.00239049 0.985022)
(0.00222623 0.00241319 0.997727)
(0.000253004 0.00240282 0.993251)
(0.000361137 0.00241022 0.993201)
(-8.67573e-05 0.00241471 0.993044)
(-0.000436529 0.0024206 0.992996)
(-0.000843486 0.00242746 0.993056)
(-0.000630626 0.00242985 0.993015)
(-0.00261487 0.00244844 0.997747)
(-0.00251138 0.00243581 0.984281)
(0.00229737 0.0024173 0.998088)
(0.00224084 0.00243136 1.01085)
(0.000259704 0.00242711 1.00635)
(0.000372728 0.00243408 1.00632)
(-7.5694e-05 0.0024413 1.00618)
(-0.000425449 0.00244982 1.00616)
(-0.000834702 0.0024591 1.00624)
(-0.00062063 0.00246676 1.00621)
(-0.00261108 0.00248203 1.01098)
(-0.00252366 0.00248652 0.997525)
(0.00228626 0.000450221 0.993458)
(0.00223596 0.000455897 1.0062)
(0.000262862 0.000459068 1.00171)
(0.000376297 0.000463037 1.00167)
(-7.09574e-05 0.000469096 1.00152)
(-0.000420052 0.000476008 1.00149)
(-0.000828659 0.000483431 1.00156)
(-0.000616228 0.000491625 1.00153)
(-0.00259553 0.000496745 1.00627)
(-0.00250475 0.00050962 0.992849)
(0.00229287 0.000631597 0.993437)
(0.00224197 0.000641243 1.00619)
(0.000266707 0.000644647 1.0017)
(0.000382517 0.000650687 1.00166)
(-6.30436e-05 0.000658831 1.00152)
(-0.000411189 0.000668184 1.00148)
(-0.000819247 0.000678226 1.00156)
(-0.000607609 0.000688478 1.00153)
(-0.00258574 0.000696304 1.00626)
(-0.00250065 0.00071036 0.992859)
(0.00229598 0.000226448 0.993319)
(0.00224762 0.000234552 1.00609)
(0.000272359 0.000238923 1.00159)
(0.000390448 0.000246259 1.00155)
(-5.3502e-05 0.000255635 1.00141)
(-0.000400674 0.000266392 1.00138)
(-0.000808418 0.000277957 1.00145)
(-0.000598343 0.000289382 1.00143)
(-0.00257252 0.000297836 1.00615)
(-0.00249092 0.000316607 0.992779)
(0.00229992 -0.000103303 0.993318)
(0.00225386 -9.61409e-05 1.0061)
(0.000278541 -9.14453e-05 1.00159)
(0.000399207 -8.35679e-05 1.00156)
(-4.29403e-05 -7.36323e-05 1.00142)
(-0.000388902 -6.20518e-05 1.00139)
(-0.000796329 -4.94824e-05 1.00147)
(-0.000587965 -3.72526e-05 1.00145)
(-0.00255823 -2.82238e-05 1.00615)
(-0.00248101 -7.38459e-06 0.99282)
(0.00230439 -0.000518852 0.993434)
(0.00226023 -0.000514508 1.00623)
(0.000284836 -0.00050956 1.00172)
(0.000408244 -0.000501526 1.00169)
(-3.19737e-05 -0.000491749 1.00155)
(-0.00037651 -0.000480276 1.00152)
(-0.000783614 -0.000467778 1.0016)
(-0.000576968 -0.000455952 1.00158)
(-0.00254366 -0.000447114 1.00628)
(-0.00247152 -0.000424678 0.992982)
(0.00230441 -0.000365237 0.993454)
(0.00226472 -0.000360019 1.00625)
(0.000291516 -0.000356771 1.00174)
(0.000417051 -0.000349768 1.00171)
(-2.16205e-05 -0.000341772 1.00157)
(-0.000364881 -0.000332211 1.00155)
(-0.000771959 -0.000321689 1.00164)
(-0.000567153 -0.000312017 1.00162)
(-0.00252866 -0.000303732 1.00631)
(-0.00245889 -0.000286353 0.993048)
(0.00231973 -0.00231886 0.99798)
(0.0022764 -0.00232129 1.01081)
(0.00029522 -0.00230935 1.00627)
(0.000423448 -0.00230353 1.00624)
(-1.41024e-05 -0.00229435 1.0061)
(-0.000356336 -0.00228361 1.00607)
(-0.000763263 -0.00227181 1.00615)
(-0.000558732 -0.00225871 1.00612)
(-0.00252553 -0.00225694 1.01081)
(-0.00246418 -0.00223016 0.997539)
(0.00230415 -0.00232435 0.985115)
(0.00227455 -0.00233991 0.997929)
(0.000302292 -0.00232429 0.993424)
(0.000431268 -0.00232326 0.993399)
(-1.52688e-06 -0.00231695 0.993275)
(-0.000340759 -0.00231019 0.993266)
(-0.000744725 -0.00230322 0.993372)
(-0.000543661 -0.0022923 0.993379)
(-0.00249984 -0.00229904 0.998049)
(-0.00243462 -0.00226864 0.984875)
(0.00250793 0.0026727 0.97937)
(0.00229681 0.00270452 0.996449)
(0.00016753 0.00268962 0.990768)
(0.000391514 0.00270149 0.990692)
(-0.000198323 0.00270787 0.990466)
(-0.000543399 0.00271721 0.990382)
(-0.00108214 0.00272884 0.990441)
(-0.000709091 0.0027326 0.990359)
(-0.00287059 0.00276086 0.99646)
(-0.00286861 0.00274485 0.978062)
(0.00254112 0.00256109 0.997041)
(0.00231813 0.0025811 1.01422)
(0.000178694 0.00257476 1.0085)
(0.000410415 0.00258596 1.00846)
(-0.000180544 0.00259672 1.00826)
(-0.000525098 0.00261009 1.00821)
(-0.00106772 0.00262527 1.00831)
(-0.000692834 0.0026372 1.00826)
(-0.00286152 0.00266107 1.01442)
(-0.00288348 0.00267069 0.996056)
(0.00252489 0.000439629 0.991114)
(0.00231062 0.000448821 1.00825)
(0.000183734 0.0004539 1.00255)
(0.000415448 0.000459989 1.00249)
(-0.000173421 0.000469545 1.00228)
(-0.000516716 0.000480326 1.00222)
(-0.00105802 0.000491797 1.00231)
(-0.000686362 0.000504852 1.00225)
(-0.00283721 0.000512618 1.00835)
(-0.00285464 0.000533232 0.99005)
(0.00253541 0.000770752 0.991086)
(0.0023202 0.000785986 1.00825)
(0.000189618 0.000790757 1.00254)
(0.000425411 0.000800397 1.00248)
(-0.000160956 0.000813143 1.00228)
(-0.000502822 0.000827726 1.00222)
(-0.00104332 0.000843337 1.00231)
(-0.000672579 0.00085943 1.00225)
(-0.00282167 0.000872123 1.00834)
(-0.00284787 0.000894887 0.99008)
(0.00253946 0.000242771 0.990925)
(0.00232826 0.00025505 1.00811)
(0.000198428 0.000261521 1.00239)
(0.000437775 0.000272968 1.00234)
(-0.000146158 0.000287506 1.00214)
(-0.000486518 0.000304214 1.00208)
(-0.00102641 0.000322209 1.00217)
(-0.000658116 0.000340404 1.00212)
(-0.0027998 0.000353766 1.00819)
(-0.00283113 0.000384981 0.98999)
(0.00254544 -6.8622e-05 0.990922)
(0.00233769 -5.75998e-05 1.00813)
(0.00020791 -5.04258e-05 1.0024)
(0.000451343 -3.82193e-05 1.00235)
(-0.000129769 -2.28157e-05 1.00215)
(-0.000468174 -4.72204e-06 1.0021)
(-0.00100728 1.51166e-05 1.0022)
(-0.000641593 3.50213e-05 1.00215)
(-0.00277644 4.94365e-05 1.0082)
(-0.00281457 8.43309e-05 0.990065)
(0.0025529 -0.000610536 0.991079)
(0.00234781 -0.000604359 1.00831)
(0.000217454 -0.000596465 1.00257)
(0.000465321 -0.000584073 1.00253)
(-0.00011265 -0.000568801 1.00233)
(-0.000448561 -0.000550575 1.00229)
(-0.000986666 -0.000530255 1.00239)
(-0.000623374 -0.000510036 1.00234)
(-0.00275243 -0.000495619 1.00838)
(-0.00279902 -0.000456131 0.990307)
(0.00255254 -0.000320637 0.991104)
(0.00235429 -0.000313285 1.00834)
(0.000227974 -0.000308657 1.0026)
(0.000479048 -0.000297592 1.00256)
(-9.61361e-05 -0.00028511 1.00237)
(-0.000429527 -0.000269715 1.00233)
(-0.000966659 -0.000251979 1.00244)
(-0.000606397 -0.000235192 1.0024)
(-0.00272545 -0.000219587 1.00842)
(-0.00277642 -0.000188293 0.99042)
(0.00257492 -0.0024238 0.996863)
(0.00237176 -0.00242637 1.01415)
(0.00023334 -0.00240844 1.00837)
(0.000489383 -0.00239979 1.00832)
(-8.40788e-05 -0.00238498 1.00812)
(-0.00041544 -0.00236768 1.00807)
(-0.00095206 -0.00234849 1.00817)
(-0.000590399 -0.00232495 1.00812)
(-0.0027173 -0.00231953 1.01414)
(-0.00278237 -0.00227412 0.996124)
(0.00255371 -0.00257897 0.979523)
(0.00236998 -0.00260007 0.99679)
(0.000243414 -0.00257718 0.991061)
(0.00050084 -0.00257592 0.991029)
(-6.43449e-05 -0.00256539 0.990862)
(-0.000390675 -0.00255448 0.990851)
(-0.00092052 -0.00254363 0.990994)
(-0.000564076 -0.00252423 0.991004)
(-0.00267478 -0.00253295 0.996995)
(-0.00273619 -0.00248461 0.979162)
(0.00267289 0.00289589 0.973625)
(0.00231108 0.00293742 0.995134)
(8.51827e-05 0.00291839 0.988243)
(0.0003853 0.00293589 0.988113)
(-0.000354686 0.00294496 0.987826)
(-0.000670219 0.00295922 0.987695)
(-0.00135076 0.00297781 0.987717)
(-0.000850445 0.00298426 0.987597)
(-0.00314859 0.00302446 0.99514)
(-0.00321001 0.00300674 0.971481)
(0.00271697 0.00266289 0.996029)
(0.00234046 0.00268964 1.01769)
(0.000102583 0.00268206 1.01074)
(0.000414224 0.00269884 1.01067)
(-0.000327182 0.00271454 1.01043)
(-0.000640831 0.00273478 1.01036)
(-0.001327 0.0027584 1.01045)
(-0.000823995 0.00277673 1.01038)
(-0.00312939 0.00281117 1.01802)
(-0.00322501 0.00282998 0.994435)
(0.00269571 0.000447885 0.988773)
(0.00233089 0.000461646 1.01037)
(0.000110234 0.000469374 1.00344)
(0.000421254 0.00047847 1.00335)
(-0.000316758 0.000492831 1.00309)
(-0.000628536 0.00050889 1.003)
(-0.00131244 0.000525763 1.00307)
(-0.000815189 0.000545426 1.00298)
(-0.00309457 0.00055657 1.01053)
(-0.00318439 0.000589989 0.987051)
(0.00271098 0.000897957 0.988713)
(0.002345 0.000920174 1.01036)
(0.000118989 0.000926783 1.00341)
(0.00043638 0.000941361 1.00332)
(-0.000298183 0.000960212 1.00307)
(-0.000607835 0.000981785 1.00298)
(-0.00129065 0.00100493 1.00306)
(-0.000794339 0.00102887 1.00297)
(-0.00306938 0.00104865 1.0105)
(-0.0031724 0.00108704 0.987088)
(0.00271618 0.000246091 0.988525)
(0.00235617 0.00026367 1.0102)
(0.000132038 0.000272966 1.00324)
(0.000454583 0.000289856 1.00316)
(-0.000276428 0.000311226 1.00291)
(-0.000583781 0.000335866 1.00283)
(-0.0012655 0.000362608 1.00291)
(-0.000772595 0.00039001 1.00283)
(-0.0030335 0.000410642 1.01032)
(-0.00314454 0.000462734 0.987019)
(0.00272484 -1.36132e-05 0.98852)
(0.00236978 2.5274e-06 1.01023)
(0.000145873 1.28819e-05 1.00326)
(0.000474527 3.08625e-05 1.00318)
(-0.000252272 5.35852e-05 1.00294)
(-0.00055654 8.05565e-05 1.00286)
(-0.00123679 0.000110492 1.00295)
(-0.000747407 0.000141259 1.00288)
(-0.00299562 0.00016407 1.01034)
(-0.00311739 0.000222361 0.987143)
(0.0027363 -0.000683069 0.988699)
(0.00238485 -0.000674231 1.01045)
(0.000159652 -0.000662469 1.00347)
(0.000495149 -0.000644354 1.00339)
(-0.000226726 -0.000621551 1.00315)
(-0.00052683 -0.000593778 1.00308)
(-0.00120484 -0.000562079 1.00318)
(-0.000718231 -0.000529093 1.00312)
(-0.00295564 -0.000504404 1.01055)
(-0.00309137 -0.000437648 0.987466)
(0.00273586 -0.00028992 0.988751)
(0.00239414 -0.000279726 1.01051)
(0.000175205 -0.000273338 1.00353)
(0.000515505 -0.000256915 1.00345)
(-0.000201458 -0.000238239 1.00322)
(-0.000496872 -0.00021428 1.00316)
(-0.00117196 -0.000185602 1.00327)
(-0.000688536 -0.000156026 1.00323)
(-0.00290869 -0.000127899 1.01062)
(-0.00305392 -7.0171e-05 0.987674)
(0.00276583 -0.00248084 0.995757)
(0.00241789 -0.00248262 1.0176)
(0.000182757 -0.00245821 1.01055)
(0.000531247 -0.00244553 1.01047)
(-0.000182822 -0.0024228 1.01022)
(-0.000474253 -0.00239581 1.01014)
(-0.00114654 -0.00236441 1.01024)
(-0.00065942 -0.00232358 1.01017)
(-0.00288593 -0.00230589 1.01757)
(-0.00305265 -0.00222703 0.994602)
(0.00273937 -0.00276979 0.973852)
(0.00241709 -0.00279604 0.99566)
(0.000196783 -0.00276532 0.988695)
(0.000548044 -0.00276324 0.988636)
(-0.000152833 -0.0027468 0.988446)
(-0.00043522 -0.00272982 0.988436)
(-0.00109512 -0.00271198 0.988605)
(-0.00061154 -0.00268038 0.988645)
(-0.0028133 -0.00268448 0.996005)
(-0.00298292 -0.00261056 0.973373)
(0.00277438 0.00306715 0.967876)
(0.00226772 0.00311892 0.993801)
(-1.14441e-05 0.00309644 0.985719)
(0.000335327 0.00312084 0.985515)
(-0.000557278 0.00313401 0.985169)
(-0.000835273 0.00315546 0.984975)
(-0.00166571 0.00318409 0.984927)
(-0.00106319 0.0031961 0.984757)
(-0.003491 0.00325143 0.993816)
(-0.00357952 0.00323514 0.964486)
(0.0028305 0.00272396 0.995085)
(0.00230697 0.00275849 1.02124)
(1.47159e-05 0.00275069 1.01307)
(0.000378008 0.00277472 1.01295)
(-0.000515465 0.00279758 1.01268)
(-0.000788767 0.00282782 1.01259)
(-0.001626 0.00286388 1.01266)
(-0.00102007 0.00289264 1.01257)
(-0.00345284 0.00294191 1.02178)
(-0.00358937 0.00297772 0.992582)
(0.00280446 0.000460748 0.986485)
(0.00229597 0.000480522 1.01254)
(2.57036e-05 0.000491626 1.00441)
(0.000387945 0.000505038 1.00426)
(-0.000500237 0.000526081 1.00397)
(-0.000770855 0.000549571 1.00384)
(-0.00160454 0.000574198 1.00387)
(-0.00100668 0.000602999 1.00375)
(-0.00340291 0.000620049 1.01282)
(-0.00353189 0.000674514 0.98378)
(0.00282528 0.00101135 0.986374)
(0.00231571 0.00104224 1.0125)
(3.85311e-05 0.00105139 1.00434)
(0.000410196 0.00107269 1.0042)
(-0.000473294 0.00109976 1.00391)
(-0.000740727 0.00113085 1.00379)
(-0.00157304 0.00116409 1.00383)
(-0.000976278 0.00119853 1.00372)
(-0.00336314 0.00122737 1.01275)
(-0.00351014 0.00129012 0.983836)
(0.00283217 0.000243184 0.98617)
(0.00233107 0.000267535 1.01234)
(5.72154e-05 0.000280642 1.00417)
(0.000436165 0.000304727 1.00403)
(-0.000442212 0.000335215 1.00375)
(-0.00070642 0.000370492 1.00363)
(-0.0015371 0.000408616 1.00368)
(-0.000945228 0.000448293 1.00358)
(-0.00330857 0.000477655 1.01255)
(-0.00346531 0.000559997 0.983834)
(0.00284433 5.60962e-05 0.986161)
(0.00235013 7.89371e-05 1.01239)
(7.67777e-05 9.33444e-05 1.00419)
(0.000464578 0.000118996 1.00406)
(-0.000407724 0.000151503 1.00379)
(-0.000667459 0.000190419 1.00368)
(-0.00149573 0.00023403 1.00374)
(-0.000908843 0.00028003 1.00365)
(-0.00325136 0.00031418 1.01255)
(-0.0034211 0.000406992 0.984033)
(0.00286086 -0.000733587 0.986349)
(0.00237153 -0.000720935 1.01263)
(9.60965e-05 -0.000704182 1.00442)
(0.000494097 -0.000678524 1.00429)
(-0.00037081 -0.000645436 1.00403)
(-0.00062383 -0.000604338 1.00393)
(-0.00144761 -0.000556004 1.00401)
(-0.000863595 -0.000502619 1.00393)
(-0.00318784 -0.000461951 1.01278)
(-0.00337746 -0.000348865 0.984452)
(0.00286103 -0.00025804 0.986441)
(0.00238489 -0.000244274 1.01274)
(0.000118185 -0.000235365 1.00453)
(0.000523409 -0.000211879 1.0044)
(-0.00033316 -0.00018452 1.00415)
(-0.000577659 -0.000147975 1.00407)
(-0.00139376 -0.000101468 1.00416)
(-0.00081226 -5.01572e-05 1.00411)
(-0.00310575 2.02973e-06 1.0129)
(-0.00331306 0.000109485 0.984814)
(0.00289905 -0.0024903 0.994687)
(0.00241558 -0.00249012 1.02111)
(0.000128924 -0.00245837 1.01279)
(0.000546626 -0.00243975 1.01266)
(-0.000304874 -0.00240601 1.01238)
(-0.000540765 -0.00236429 1.01227)
(-0.0013497 -0.00231293 1.01234)
(-0.000757663 -0.0022418 1.01225)
(-0.00305031 -0.00219661 1.02104)
(-0.00329533 -0.00205204 0.992959)
(0.00286817 -0.00290326 0.968186)
(0.00241712 -0.00293383 0.994565)
(0.000148242 -0.00289461 0.986373)
(0.000571283 -0.00289057 0.986276)
(-0.000259817 -0.00286611 0.98608)
(-0.000480346 -0.00283983 0.986078)
(-0.00126534 -0.00281094 0.98627)
(-0.000671353 -0.00275802 0.986371)
(-0.00291987 -0.00274987 0.99513)
(-0.00318343 -0.00262849 0.967667)
(0.00282362 0.00319916 0.962117)
(0.00217953 0.00326182 0.992406)
(-0.000124357 0.00323714 0.983184)
(0.00024039 0.00327007 0.982894)
(-0.000807723 0.00328966 0.982489)
(-0.00105528 0.00332175 0.982217)
(-0.00205286 0.00336513 0.982062)
(-0.00138742 0.00338744 0.981816)
(-0.00398896 0.00346244 0.992501)
(-0.0040163 0.00344643 0.956909)
(0.00289321 0.00275916 0.994178)
(0.00223115 0.00280291 1.0248)
(-8.60385e-05 0.00279654 1.01545)
(0.000302014 0.00283018 1.01529)
(-0.000744729 0.00286373 1.015)
(-0.000982232 0.00290882 1.01488)
(-0.00198628 0.00296332 1.01492)
(-0.00131628 0.00300942 1.01481)
(-0.00392511 0.00307788 1.02573)
(-0.00401686 0.00313145 0.99038)
(0.00286307 0.000478515 0.984247)
(0.00221982 0.000506113 1.01473)
(-7.05974e-05 0.000521625 1.00544)
(0.000316482 0.000541339 1.00523)
(-0.000722216 0.000571779 1.0049)
(-0.00095611 0.000605927 1.00473)
(-0.00195462 0.000641717 1.00471)
(-0.00129705 0.000683478 1.00456)
(-0.00385848 0.000710099 1.01525)
(-0.003947 0.00079908 0.98016)
(0.00289032 0.0011138 0.984074)
(0.00224659 0.00115542 1.01466)
(-5.19288e-05 0.00116824 1.00533)
(0.000348594 0.00119865 1.00513)
(-0.000683746 0.00123683 1.00481)
(-0.000912817 0.00128071 1.00465)
(-0.00190994 0.00132756 1.00463)
(-0.00125242 0.00137515 1.00449)
(-0.00378765 0.00141778 1.01512)
(-0.00390727 0.00153163 0.980237)
(0.00289976 0.000239302 0.98386)
(0.00226772 0.00027234 1.01451)
(-2.57776e-05 0.000290563 1.00516)
(0.000384886 0.000324106 1.00496)
(-0.000640345 0.000366581 1.00465)
(-0.000865174 0.000415668 1.00451)
(-0.00186057 0.000468226 1.00451)
(-0.00121065 0.000522154 1.00437)
(-0.00369576 0.000561292 1.01489)
(-0.00383736 0.000701984 0.980315)
(0.00291649 0.000136488 0.983843)
(0.00229383 0.000167944 1.01457)
(1.23051e-06 0.000187456 1.00519)
(0.000424304 0.000223097 1.005)
(-0.000592524 0.000268281 1.0047)
(-0.000811372 0.000322798 1.00457)
(-0.00180428 0.000384174 1.00459)
(-0.00116274 0.000449007 1.00446)
(-0.0036057 0.000497072 1.01485)
(-0.00377361 0.00064431 0.980567)
(0.00293923 -0.000763773 0.984028)
(0.00232311 -0.000745803 1.01484)
(2.7665e-05 -0.000722842 1.00543)
(0.000465367 -0.000687461 1.00525)
(-0.000540743 -0.000640838 1.00497)
(-0.000749182 -0.000581574 1.00485)
(-0.00173461 -0.00050966 1.00488)
(-0.00109671 -0.000426033 1.00478)
(-0.00350758 -0.000357582 1.01507)
(-0.00370833 -0.000174034 0.98107)
(0.002941 -0.00022436 0.984166)
(0.00234209 -0.000206032 1.01501)
(5.79731e-05 -0.000193741 1.00559)
(0.000506452 -0.000161339 1.00542)
(-0.000486091 -0.000122354 1.00514)
(-0.000679572 -6.78553e-05 1.00505)
(-0.00164844 5.24552e-06 1.00511)
(-0.00100758 9.48991e-05 1.00504)
(-0.00336476 0.000193822 1.01524)
(-0.003602 0.000396282 0.981666)
(0.00298742 -0.00246597 0.993614)
(0.00238031 -0.00246256 1.02463)
(7.29562e-05 -0.00242279 1.01507)
(0.00053933 -0.00239609 1.01488)
(-0.000444324 -0.00234779 1.01457)
(-0.000621271 -0.00228506 1.01442)
(-0.00157151 -0.00220154 1.01445)
(-0.000904402 -0.00207717 1.01432)
(-0.00323418 -0.00196815 1.0245)
(-0.00353262 -0.00168378 0.991017)
(0.00295305 -0.00299125 0.962518)
(0.00238558 -0.00302524 0.99347)
(9.90148e-05 -0.00297707 0.984089)
(0.000574958 -0.00296967 0.983952)
(-0.000378435 -0.00293475 0.98377)
(-0.000528065 -0.00289535 0.983789)
(-0.00143314 -0.00284744 0.984014)
(-0.000742683 -0.00275965 0.98421)
(-0.0029801 -0.00271547 0.99439)
(-0.00333061 -0.00250094 0.96211)
(0.00283264 0.0033049 0.956373)
(0.00206207 0.00337919 0.990939)
(-0.000249964 0.00335405 0.980639)
(0.000102724 0.00339753 0.980256)
(-0.0011071 0.00342691 0.97979)
(-0.00134551 0.00347472 0.979425)
(-0.00254299 0.00354033 0.979132)
(-0.00187098 0.00358232 0.978777)
(-0.00477205 0.00368738 0.991161)
(-0.0047393 0.00367414 0.948351)
(0.0029174 0.00278498 0.993312)
(0.00212903 0.00283966 1.02834)
(-0.000195372 0.0028369 1.01787)
(0.000189935 0.00288317 1.01768)
(-0.00101327 0.00293239 1.01737)
(-0.0012315 0.00299953 1.01725)
(-0.00243028 0.00308301 1.01726)
(-0.00175032 0.00315806 1.01713)
(-0.00465344 0.00325583 1.02989)
(-0.00473051 0.00334521 0.987404)
(0.00288421 0.000505647 0.982068)
(0.00211894 0.000543123 1.01691)
(-0.000174007 0.000564335 1.00652)
(0.00021136 0.000592954 1.00625)
(-0.00097975 0.000636558 1.0059)
(-0.00119209 0.000686426 1.0057)
(-0.00238323 0.000739488 1.00561)
(-0.0017216 0.000799358 1.00543)
(-0.00456586 0.000837711 1.01785)
(-0.00461511 0.000984554 0.97564)
(0.0029189 0.00120993 0.981822)
(0.00215446 0.00126465 1.01681)
(-0.000147224 0.00128259 1.00636)
(0.000256949 0.00132513 1.0061)
(-0.00092495 0.00137839 1.00576)
(-0.00112995 0.00144018 1.00557)
(-0.00231995 0.00150527 1.00551)
(-0.00165752 0.00156902 1.00533)
(-0.00445905 0.00162626 1.01763)
(-0.00450951 0.0018195 0.975926)
(0.00293212 0.000238456 0.981602)
(0.00218334 0.000282506 1.01667)
(-0.000111378 0.000307361 1.0062)
(0.000306931 0.000353142 1.00595)
(-0.000864948 0.000411327 1.00563)
(-0.00106485 0.000478415 1.00546)
(-0.00225495 0.000548427 1.00541)
(-0.00160264 0.000616331 1.00524)
(-0.0043263 0.000656169 1.01732)
(-0.00435713 0.000868374 0.976294)
(0.00295468 0.000223558 0.981575)
(0.00221839 0.000265883 1.01676)
(-7.49198e-05 0.000291647 1.00624)
(0.000360436 0.000339963 1.006)
(-0.000800246 0.00040121 1.0057)
(-0.000993134 0.000475327 1.00554)