/*--------------------------------*- C++ -*----------------------------------*\
  =========                 |
  \\      /  F ield         | OpenFOAM: The Open Source CFD Toolbox
   \\    /   O peration     | Website:  https://openfoam.org
    \\  /    A nd           | Version:  6
     \\/     M anipulation  |
\*---------------------------------------------------------------------------*/
FoamFile
{
    version     2.0;
    format      ascii;
    class       volVectorField;
    location    "0.068";
    object      U;
}
// * * * * * * * * * * * * * * * * * * * * * * * * * * * * * * * * * * * * * //

dimensions      [0 1 -1 0 0 0 0];

internalField   nonuniform List<vector> 
32000
(
(-4.19755e-07 1.40237e-06 0.0598057)
(2.78558e-06 1.73879e-06 0.132333)
(1.09435e-05 1.32786e-06 0.183502)
(2.35672e-05 9.61036e-07 0.222061)
(3.90994e-05 6.05842e-07 0.251792)
(5.58265e-05 3.36587e-07 0.274693)
(7.19052e-05 1.65911e-07 0.291959)
(8.56446e-05 5.64943e-08 0.304355)
(9.56338e-05 -3.8366e-09 0.312369)
(0.000100824 -3.46259e-08 0.316297)
(0.000100633 -5.98824e-08 0.316274)
(9.50105e-05 -1.01483e-07 0.312297)
(8.44695e-05 -1.83537e-07 0.304225)
(7.00819e-05 -3.2499e-07 0.291761)
(5.33924e-05 -5.35494e-07 0.274417)
(3.63077e-05 -8.45481e-07 0.251438)
(2.08844e-05 -1.22766e-06 0.221643)
(8.92124e-06 -1.58724e-06 0.183058)
(1.76161e-06 -1.9172e-06 0.131934)
(-5.67794e-07 -1.44272e-06 0.0595815)
(4.98738e-07 6.49507e-06 0.132344)
(1.27244e-05 1.00857e-05 0.324213)
(3.8009e-05 9.42831e-06 0.468998)
(7.39584e-05 7.48907e-06 0.58092)
(0.000116575 5.32405e-06 0.66815)
(0.000161577 3.42891e-06 0.735686)
(0.000204436 1.96106e-06 0.786748)
(0.000240936 9.01171e-07 0.823469)
(0.000267518 1.63393e-07 0.847239)
(0.000281523 -3.89614e-07 0.858903)
(0.000281451 -9.19322e-07 0.858857)
(0.000267128 -1.58927e-06 0.847093)
(0.000239795 -2.55287e-06 0.8232)
(0.000202087 -3.92587e-06 0.786329)
(0.000157833 -5.74941e-06 0.735091)
(0.000111747 -7.9632e-06 0.667378)
(6.89088e-05 -1.02838e-05 0.580009)
(3.39095e-05 -1.20441e-05 0.468041)
(1.04638e-05 -1.20039e-05 0.323384)
(1.32286e-07 -7.18681e-06 0.131923)
(1.37287e-06 1.08866e-05 0.183542)
(2.29823e-05 1.83884e-05 0.469053)
(6.45328e-05 1.83356e-05 0.693268)
(0.000121477 1.53009e-05 0.870421)
(0.000187555 1.13712e-05 1.01018)
(0.000256501 7.64483e-06 1.11916)
(0.000321719 4.56967e-06 1.20191)
(0.000377089 2.21522e-06 1.26158)
(0.000417441 4.5757e-07 1.30027)
(0.000438885 -9.55918e-07 1.31928)
(0.000439205 -2.34133e-06 1.31923)
(0.000418098 -4.02465e-06 1.3001)
(0.000377308 -6.29802e-06 1.26125)
(0.000320601 -9.35585e-06 1.20138)
(0.000253476 -1.32113e-05 1.11839)
(0.000182756 -1.76111e-05 1.00917)
(0.000115863 -2.1837e-05 0.869217)
(5.96281e-05 -2.44463e-05 0.692006)
(2.01126e-05 -2.29971e-05 0.467973)
(8.91369e-07 -1.27616e-05 0.183012)
(2.11122e-06 1.36516e-05 0.222146)
(3.19425e-05 2.43026e-05 0.581067)
(8.76846e-05 2.5294e-05 0.87053)
(0.000162716 2.18155e-05 1.10329)
(0.000248736 1.67028e-05 1.28902)
(0.00033776 1.15448e-05 1.43491)
(0.000421544 7.08411e-06 1.54623)
(0.000492498 3.52711e-06 1.62674)
(0.000544213 7.51743e-07 1.67905)
(0.000571861 -1.5721e-06 1.70479)
(0.000572669 -3.87933e-06 1.70474)
(0.000546212 -6.62393e-06 1.67887)
(0.000494578 -1.01984e-05 1.62638)
(0.000422362 -1.48337e-05 1.54564)
(0.000336322 -2.04717e-05 1.43405)
(0.000244903 -2.66195e-05 1.28786)
(0.000157413 -3.21299e-05 1.10189)
(8.26471e-05 -3.49146e-05 0.869065)
(2.88335e-05 -3.16262e-05 0.579815)
(1.57173e-06 -1.67432e-05 0.221538)
(2.63269e-06 1.45127e-05 0.251933)
(3.91172e-05 2.68454e-05 0.668409)
(0.000106548 2.88072e-05 1.01043)
(0.000196547 2.54752e-05 1.28917)
(0.000299024 1.99418e-05 1.51373)
(0.000404524 1.40615e-05 1.69131)
(0.000503466 8.78726e-06 1.82743)
(0.000587099 4.44447e-06 1.92619)
(0.000648047 9.42623e-07 1.99049)
(0.000680764 -2.07269e-06 2.02217)
(0.000682044 -5.09321e-06 2.02212)
(0.000651353 -8.63689e-06 1.99031)
(0.000591026 -1.31375e-05 1.92582)
(0.000506268 -1.88173e-05 1.82681)
(0.000404809 -2.55334e-05 1.69038)
(0.000296379 -3.25999e-05 1.51247)
(0.000191825 -3.85673e-05 1.28764)
(0.000101621 -4.09794e-05 1.00881)
(3.59167e-05 -3.61268e-05 0.66702)
(2.05535e-06 -1.84744e-05 0.251257)
(2.98417e-06 1.37732e-05 0.27489)
(4.45465e-05 2.62091e-05 0.736063)
(0.000121145 2.87723e-05 1.11956)
(0.000223015 2.59304e-05 1.43522)
(0.000338598 2.06372e-05 1.69146)
(0.000457222 1.47692e-05 1.89525)
(0.000568221 9.35136e-06 2.05209)
(0.000661916 4.77479e-06 2.1662)
(0.000730183 9.90865e-07 2.24064)
(0.000766925 -2.33437e-06 2.27736)
(0.000768601 -5.68707e-06 2.2773)
(0.000734588 -9.5827e-06 2.24046)
(0.000667399 -1.4441e-05 2.16583)
(0.000572704 -2.04466e-05 2.05144)
(0.000458983 -2.73904e-05 1.89427)
(0.00033699 -3.449e-05 1.69012)
(0.000218821 -4.01919e-05 1.43357)
(0.000116345 -4.19865e-05 1.1178)
(4.1287e-05 -3.62719e-05 0.734553)
(2.37581e-06 -1.80773e-05 0.274153)
(3.21058e-06 1.18096e-05 0.29221)
(4.84549e-05 2.29465e-05 0.787235)
(0.000131898 2.5616e-05 1.20244)
(0.000242753 2.34121e-05 1.54667)
(0.00036833 1.88645e-05 1.82772)
(0.000496991 1.36499e-05 2.05222)
(0.000617216 8.72394e-06 2.22558)
(0.000718604 4.47954e-06 2.352)
(0.000792463 9.03715e-07 2.4346)
(0.000832275 -2.28579e-06 2.47539)
(0.00083425 -5.51709e-06 2.47533)
(0.000797696 -9.24608e-06 2.43442)
(0.000725256 -1.38352e-05 2.35163)
(0.000622952 -1.94209e-05 2.22491)
(0.000499838 -2.57675e-05 2.05119)
(0.000367466 -3.21106e-05 1.8263)
(0.000238915 -3.69982e-05 1.54492)
(0.000127157 -3.8165e-05 1.20057)
(4.51279e-05 -3.24816e-05 0.785618)
(2.57408e-06 -1.58836e-05 0.291418)
(3.34617e-06 8.98042e-06 0.304651)
(5.11059e-05 1.77101e-05 0.824047)
(0.000139351 2.00057e-05 1.26222)
(0.000256595 1.84686e-05 1.6273)
(0.000389333 1.50131e-05 1.92659)
(0.000525217 1.09479e-05 2.16644)
(0.00065209 7.04199e-06 2.35211)
(0.000759025 3.62741e-06 2.48776)
(0.000836911 7.11727e-07 2.57649)
(0.000878929 -1.91646e-06 2.62033)
(0.000881109 -4.58817e-06 2.62028)
(0.000842708 -7.6569e-06 2.57631)
(0.000766468 -1.13983e-05 2.48737)
(0.000658662 -1.5902e-05 2.35142)
(0.00052877 -2.09544e-05 2.16537)
(0.000388927 -2.59188e-05 1.92511)
(0.000252944 -2.96226e-05 1.62546)
(0.000134601 -3.02821e-05 1.26025)
(4.77035e-05 -2.55018e-05 0.822342)
(2.68526e-06 -1.23033e-05 0.303813)
(3.42037e-06 5.59307e-06 0.312702)
(5.27329e-05 1.11356e-05 0.847889)
(0.000144007 1.26749e-05 1.30099)
(0.000265325 1.17768e-05 1.67969)
(0.000402662 9.62774e-06 1.99097)
(0.0005432 7.05561e-06 2.24095)
(0.000674367 4.5565e-06 2.43477)
(0.000784886 2.351e-06 2.57656)
(0.000865372 4.5126e-07 2.66938)
(0.00090881 -1.27275e-06 2.71526)
(0.000911114 -3.02915e-06 2.71521)
(0.00087151 -5.04058e-06 2.66919)
(0.000792801 -7.47832e-06 2.57616)
(0.00068143 -1.03917e-05 2.43407)
(0.000547153 -1.36329e-05 2.23985)
(0.000402495 -1.6782e-05 1.98944)
(0.000261745 -1.90801e-05 1.67779)
(0.000139217 -1.93917e-05 1.29895)
(4.92645e-05 -1.62202e-05 0.84612)
(2.74124e-06 -7.75798e-06 0.311832)
(3.45279e-06 1.89713e-06 0.316657)
(5.35032e-05 3.79482e-06 0.859609)
(0.000146238 4.33548e-06 1.32007)
(0.000269533 4.04103e-06 1.70549)
(0.000409113 3.31278e-06 2.02271)
(0.000551928 2.43359e-06 2.27772)
(0.000685198 1.57461e-06 2.4756)
(0.000797473 8.13002e-07 2.62045)
(0.000879233 1.54166e-07 2.71531)
(0.000923366 -4.45702e-07 2.76221)
(0.000925727 -1.05749e-06 2.76216)
(0.000885529 -1.75712e-06 2.71512)
(0.000805605 -2.60255e-06 2.62005)
(0.000692483 -3.60936e-06 2.47489)
(0.000556056 -4.72488e-06 2.2766)
(0.000409043 -5.80261e-06 2.02115)
(0.000265971 -6.58031e-06 1.70356)
(0.000141415 -6.66876e-06 1.31799)
(4.99963e-05 -5.55963e-06 0.857807)
(2.76391e-06 -2.64789e-06 0.315771)
(3.4528e-06 -1.89709e-06 0.316657)
(5.35032e-05 -3.79463e-06 0.859609)
(0.000146238 -4.33516e-06 1.32007)
(0.000269533 -4.0407e-06 1.70549)
(0.000409113 -3.31252e-06 2.02271)
(0.000551928 -2.43342e-06 2.27772)
(0.000685198 -1.57454e-06 2.4756)
(0.000797473 -8.13003e-07 2.62045)
(0.000879233 -1.54218e-07 2.71531)
(0.000923366 4.45612e-07 2.76221)
(0.000925727 1.05737e-06 2.76216)
(0.000885529 1.75695e-06 2.71512)
(0.000805605 2.60233e-06 2.62005)
(0.000692483 3.60908e-06 2.47489)
(0.000556056 4.72454e-06 2.2766)
(0.000409043 5.80221e-06 2.02115)
(0.000265971 6.57986e-06 1.70356)
(0.000141415 6.66828e-06 1.31799)
(4.99963e-05 5.55923e-06 0.857807)
(2.7639e-06 2.64769e-06 0.315771)
(3.42039e-06 -5.59297e-06 0.312702)
(5.27329e-05 -1.11353e-05 0.847889)
(0.000144007 -1.26744e-05 1.30099)
(0.000265325 -1.17764e-05 1.67969)
(0.000402662 -9.62748e-06 1.99097)
(0.0005432 -7.05547e-06 2.24095)
(0.000674367 -4.55645e-06 2.43477)
(0.000784886 -2.35102e-06 2.57656)
(0.000865372 -4.51324e-07 2.66938)
(0.000908811 1.27266e-06 2.71526)
(0.000911115 3.02904e-06 2.71521)
(0.00087151 5.04043e-06 2.66919)
(0.000792801 7.47813e-06 2.57616)
(0.00068143 1.03914e-05 2.43407)
(0.000547153 1.36327e-05 2.23985)
(0.000402495 1.67817e-05 1.98944)
(0.000261745 1.90796e-05 1.67779)
(0.000139217 1.93911e-05 1.29895)
(4.92645e-05 1.62197e-05 0.84612)
(2.74122e-06 7.75773e-06 0.311832)
(3.34619e-06 -8.9802e-06 0.304651)
(5.11058e-05 -1.77095e-05 0.824047)
(0.000139351 -2.00051e-05 1.26222)
(0.000256594 -1.84681e-05 1.6273)
(0.000389333 -1.50128e-05 1.92659)
(0.000525217 -1.09478e-05 2.16644)
(0.00065209 -7.04199e-06 2.35211)
(0.000759025 -3.62746e-06 2.48776)
(0.000836911 -7.11805e-07 2.57649)
(0.000878929 1.91638e-06 2.62033)
(0.000881109 4.58808e-06 2.62028)
(0.000842709 7.65678e-06 2.57631)
(0.000766468 1.13982e-05 2.48737)
(0.000658662 1.59018e-05 2.35142)
(0.00052877 2.09542e-05 2.16537)
(0.000388927 2.59185e-05 1.92511)
(0.000252944 2.96221e-05 1.62546)
(0.000134601 3.02814e-05 1.26025)
(4.77034e-05 2.55011e-05 0.822342)
(2.68521e-06 1.2303e-05 0.303813)
(3.21053e-06 -1.18093e-05 0.29221)
(4.84547e-05 -2.29459e-05 0.787235)
(0.000131897 -2.56156e-05 1.20244)
(0.000242753 -2.34119e-05 1.54667)
(0.00036833 -1.88643e-05 1.82772)
(0.000496991 -1.36499e-05 2.05222)
(0.000617216 -8.72399e-06 2.22558)
(0.000718605 -4.47962e-06 2.35201)
(0.000792463 -9.038e-07 2.4346)
(0.000832275 2.28571e-06 2.47539)
(0.000834251 5.51701e-06 2.47533)
(0.000797696 9.246e-06 2.43442)
(0.000725257 1.38351e-05 2.35163)
(0.000622952 1.94208e-05 2.22491)
(0.000499839 2.57674e-05 2.05119)
(0.000367466 3.21104e-05 1.8263)
(0.000238915 3.69979e-05 1.54492)
(0.000127156 3.81645e-05 1.20057)
(4.51277e-05 3.24811e-05 0.785618)
(2.57399e-06 1.58834e-05 0.291418)
(2.98404e-06 -1.37731e-05 0.27489)
(4.45464e-05 -2.62092e-05 0.736063)
(0.000121144 -2.87725e-05 1.11956)
(0.000223015 -2.59305e-05 1.43522)
(0.000338598 -2.06372e-05 1.69146)
(0.000457222 -1.47693e-05 1.89525)
(0.000568222 -9.35145e-06 2.05209)
(0.000661916 -4.7749e-06 2.1662)
(0.000730184 -9.90959e-07 2.24064)
(0.000766925 2.33429e-06 2.27736)
(0.000768602 5.68701e-06 2.2773)
(0.000734589 9.58265e-06 2.24046)
(0.0006674 1.44409e-05 2.16583)
(0.000572705 2.04466e-05 2.05144)
(0.000458984 2.73903e-05 1.89427)
(0.00033699 3.44901e-05 1.69012)
(0.000218821 4.01921e-05 1.43357)
(0.000116345 4.19867e-05 1.1178)
(4.12869e-05 3.6272e-05 0.734553)
(2.3757e-06 1.80774e-05 0.274153)
(2.63256e-06 -1.4513e-05 0.251933)
(3.91169e-05 -2.68461e-05 0.668409)
(0.000106547 -2.88078e-05 1.01043)
(0.000196546 -2.54755e-05 1.28917)
(0.000299023 -1.9942e-05 1.51373)
(0.000404524 -1.40617e-05 1.69131)
(0.000503467 -8.78747e-06 1.82743)
(0.0005871 -4.44466e-06 1.92619)
(0.000648048 -9.42765e-07 1.99049)
(0.000680765 2.0726e-06 2.02217)
(0.000682045 5.09315e-06 2.02212)
(0.000651354 8.63687e-06 1.99031)
(0.000591027 1.31375e-05 1.92582)
(0.000506269 1.88173e-05 1.82681)
(0.00040481 2.55335e-05 1.69038)
(0.00029638 3.26001e-05 1.51247)
(0.000191824 3.85678e-05 1.28764)
(0.000101621 4.09803e-05 1.00881)
(3.59165e-05 3.61277e-05 0.66702)
(2.05526e-06 1.84748e-05 0.251257)
(2.11116e-06 -1.36518e-05 0.222146)
(3.19418e-05 -2.43031e-05 0.581067)
(8.76837e-05 -2.52942e-05 0.87053)
(0.000162715 -2.18155e-05 1.10329)
(0.000248736 -1.6703e-05 1.28902)
(0.000337761 -1.15452e-05 1.43491)
(0.000421544 -7.08455e-06 1.54623)
(0.000492499 -3.52745e-06 1.62674)
(0.000544214 -7.51987e-07 1.67905)
(0.000571862 1.57195e-06 1.70479)
(0.00057267 3.87926e-06 1.70474)
(0.000546213 6.62395e-06 1.67887)
(0.00049458 1.01986e-05 1.62638)
(0.000422363 1.48341e-05 1.54564)
(0.000336323 2.04722e-05 1.43405)
(0.000244903 2.662e-05 1.28786)
(0.000157412 3.21303e-05 1.10189)
(8.26465e-05 3.49153e-05 0.869065)
(2.88331e-05 3.16268e-05 0.579815)
(1.57169e-06 1.67434e-05 0.221538)
(1.37273e-06 -1.08857e-05 0.183542)
(2.29813e-05 -1.8387e-05 0.469053)
(6.45314e-05 -1.83344e-05 0.693268)
(0.000121476 -1.53002e-05 0.870421)
(0.000187554 -1.13713e-05 1.01018)
(0.000256501 -7.64553e-06 1.11916)
(0.00032172 -4.5704e-06 1.20191)
(0.00037709 -2.21579e-06 1.26158)
(0.000417442 -4.57965e-07 1.30027)
(0.000438886 9.55678e-07 1.31928)
(0.000439206 2.34123e-06 1.31923)
(0.000418099 4.02472e-06 1.3001)
(0.000377309 6.29841e-06 1.26125)
(0.000320602 9.3567e-06 1.20138)
(0.000253477 1.32124e-05 1.11839)
(0.000182755 1.76116e-05 1.00917)
(0.000115862 2.18367e-05 0.869217)
(5.96269e-05 2.44455e-05 0.692006)
(2.01119e-05 2.29957e-05 0.467973)
(8.91324e-07 1.2761e-05 0.183012)
(4.9812e-07 -6.49386e-06 0.132344)
(1.27238e-05 -1.00831e-05 0.324213)
(3.8007e-05 -9.42597e-06 0.468998)
(7.39567e-05 -7.48799e-06 0.58092)
(0.000116574 -5.32405e-06 0.66815)
(0.000161577 -3.42955e-06 0.735686)
(0.000204437 -1.96179e-06 0.786749)
(0.000240937 -9.01767e-07 0.823469)
(0.000267519 -1.63831e-07 0.847239)
(0.000281524 3.89342e-07 0.858903)
(0.000281451 9.19226e-07 0.858857)
(0.000267129 1.58939e-06 0.847093)
(0.000239796 2.55335e-06 0.8232)
(0.000202089 3.92684e-06 0.786329)
(0.000157833 5.75059e-06 0.735091)
(0.000111746 7.96366e-06 0.667378)
(6.89068e-05 1.0283e-05 0.580009)
(3.39071e-05 1.2042e-05 0.468041)
(1.04625e-05 1.20006e-05 0.323384)
(1.32104e-07 7.18535e-06 0.131923)
(-4.2059e-07 -1.4007e-06 0.0598057)
(2.78499e-06 -1.73669e-06 0.132333)
(1.09414e-05 -1.3266e-06 0.183502)
(2.35656e-05 -9.60598e-07 0.222061)
(3.90985e-05 -6.0598e-07 0.251792)
(5.58264e-05 -3.36983e-07 0.274693)
(7.19057e-05 -1.66282e-07 0.291959)
(8.56452e-05 -5.67468e-08 0.304355)
(9.56343e-05 3.68412e-09 0.312369)
(0.000100824 3.45407e-08 0.316297)
(0.000100634 5.98509e-08 0.316274)
(9.50112e-05 1.01536e-07 0.312297)
(8.44705e-05 1.83767e-07 0.304225)
(7.00828e-05 3.25525e-07 0.291761)
(5.33926e-05 5.36254e-07 0.274417)
(3.63068e-05 8.45963e-07 0.251438)
(2.08826e-05 1.22736e-06 0.221643)
(8.91919e-06 1.58608e-06 0.183058)
(1.76066e-06 1.91553e-06 0.131934)
(-5.67869e-07 1.44182e-06 0.0595815)
(-1.59272e-06 3.0812e-06 0.0597989)
(9.62001e-07 4.13507e-06 0.132316)
(1.26771e-05 3.57526e-06 0.183479)
(3.39677e-05 2.81114e-06 0.222033)
(6.24826e-05 2.01998e-06 0.251763)
(9.46919e-05 1.35473e-06 0.274665)
(0.000126538 8.51512e-07 0.291935)
(0.000154108 4.68157e-07 0.304336)
(0.000174056 1.75451e-07 0.312358)
(0.000183904 -6.76937e-08 0.316294)
(0.000182323 -3.08104e-07 0.31628)
(0.000169312 -5.90146e-07 0.312313)
(0.000146274 -9.58507e-07 0.304248)
(0.000115967 -1.44784e-06 0.29179)
(8.22456e-05 -2.0725e-06 0.274449)
(4.96384e-05 -2.84462e-06 0.25147)
(2.26676e-05 -3.67579e-06 0.221672)
(4.7975e-06 -4.34205e-06 0.183082)
(-2.70824e-06 -4.55044e-06 0.13195)
(-2.00759e-06 -3.02803e-06 0.0595875)
(-5.77483e-07 1.56545e-05 0.132328)
(1.64131e-05 2.65363e-05 0.324173)
(5.92557e-05 2.70038e-05 0.468939)
(0.000125804 2.33773e-05 0.580849)
(0.000209216 1.8386e-05 0.668073)
(0.000300441 1.33814e-05 0.735611)
(0.000389261 8.90119e-06 0.786682)
(0.000465741 5.03522e-06 0.823417)
(0.000521288 1.66188e-06 0.847207)
(0.000549481 -1.46422e-06 0.858894)
(0.000546784 -4.64056e-06 0.858873)
(0.000513034 -8.16242e-06 0.847132)
(0.000451642 -1.22793e-05 0.82326)
(0.000369462 -1.71269e-05 0.786404)
(0.000276155 -2.26318e-05 0.735175)
(0.000183123 -2.83954e-05 0.667463)
(0.000101852 -3.34408e-05 0.580085)
(4.16371e-05 -3.5876e-05 0.468102)
(7.49594e-06 -3.24938e-05 0.323424)
(-1.84583e-06 -1.73799e-05 0.131937)
(9.29562e-07 2.84324e-05 0.183521)
(3.61645e-05 5.1464e-05 0.468995)
(0.000112645 5.50712e-05 0.693181)
(0.000224247 4.95756e-05 0.870314)
(0.000359467 4.02803e-05 1.01007)
(0.000504625 3.01001e-05 1.11905)
(0.000644539 2.03961e-05 1.20181)
(0.000764515 1.15869e-05 1.2615)
(0.000851816 3.56568e-06 1.30022)
(0.000896861 -4.08111e-06 1.31927)
(0.000894291 -1.19039e-05 1.31925)
(0.000843686 -2.04525e-05 1.30015)
(0.000749888 -3.01509e-05 1.26134)
(0.00062282 -4.11361e-05 1.20149)
(0.000476587 -5.30473e-05 1.11852)
(0.000327979 -6.47698e-05 1.0093)
(0.00019419 -7.40133e-05 0.86933)
(8.97001e-05 -7.67931e-05 0.692096)
(2.40784e-05 -6.68913e-05 0.46803)
(-8.4586e-07 -3.41244e-05 0.183032)
(2.44311e-06 3.79269e-05 0.222121)
(5.5707e-05 7.15104e-05 0.580995)
(0.000164367 7.90716e-05 0.870421)
(0.000318036 7.30457e-05 1.10315)
(0.00050062 6.06468e-05 1.28887)
(0.000694239 4.61061e-05 1.43477)
(0.000879526 3.15995e-05 1.5461)
(0.00103789 1.79592e-05 1.62664)
(0.00115324 5.1861e-06 1.67899)
(0.00121343 -7.21061e-06 1.70477)
(0.00121159 -1.99465e-05 1.70477)
(0.00114702 -3.37388e-05 1.67894)
(0.0010256 -4.90904e-05 1.6265)
(0.000859611 -6.60367e-05 1.54578)
(0.000666681 -8.38304e-05 1.4342)
(0.000467996 -0.000100564 1.28802)
(0.000285619 -0.000112675 1.10204)
(0.000138827 -0.000114381 0.869175)
(4.18907e-05 -9.71075e-05 0.579884)
(3.80298e-07 -4.80444e-05 0.221561)
(3.66396e-06 4.2434e-05 0.251905)
(7.29198e-05 8.24477e-05 0.668329)
(0.000210201 9.33561e-05 1.01031)
(0.000401171 8.79279e-05 1.28901)
(0.000625456 7.41878e-05 1.51356)
(0.000861417 5.71173e-05 1.69114)
(0.0010861 3.94601e-05 1.82728)
(0.00127767 2.23933e-05 1.92607)
(0.00141727 6.06695e-06 1.99042)
(0.00149067 -9.98883e-06 2.02215)
(0.00148976 -2.65347e-05 2.02215)
(0.00141354 -4.43333e-05 1.99039)
(0.00126869 -6.38633e-05 1.92595)
(0.00106936 -8.49993e-05 1.82697)
(0.000836015 -0.000106634 1.69055)
(0.000593522 -0.000126241 1.51264)
(0.00036812 -0.000139375 1.28779)
(0.000183404 -0.000139172 1.00894)
(5.81019e-05 -0.00011591 0.667097)
(1.41067e-06 -5.599e-05 0.251281)
(4.5911e-06 4.20085e-05 0.27486)
(8.70561e-05 8.34665e-05 0.735975)
(0.000248358 9.62049e-05 1.11942)
(0.000470796 9.19484e-05 1.43504)
(0.00073028 7.85287e-05 1.69128)
(0.00100192 6.10351e-05 1.89506)
(0.00125971 4.24081e-05 2.05192)
(0.00147912 2.40065e-05 2.16607)
(0.00163904 6.11085e-06 2.24055)
(0.00172354 -1.16651e-05 2.27733)
(0.00172348 -3.00254e-05 2.27733)
(0.00163765 -4.96746e-05 2.24055)
(0.00147331 -7.09994e-05 2.16597)
(0.00124612 -9.37218e-05 2.05162)
(0.00097886 -0.000116508 1.89446)
(0.000699442 -0.000136539 1.69031)
(0.00043765 -0.000149055 1.43374)
(0.00022081 -0.000146967 1.11793)
(7.15444e-05 -0.000120615 0.734634)
(2.19116e-06 -5.71952e-05 0.274178)
(5.2582e-06 3.72701e-05 0.292179)
(9.80036e-05 7.5282e-05 0.787143)
(0.000278349 8.79167e-05 1.2023)
(0.00052594 8.49477e-05 1.54649)
(0.000813668 7.32109e-05 1.82752)
(0.00111396 5.73033e-05 2.05202)
(0.00139834 3.99754e-05 2.22539)
(0.00164008 2.25663e-05 2.35186)
(0.00181627 5.42288e-06 2.43451)
(0.00190966 -1.17337e-05 2.47535)
(0.00191029 -2.94837e-05 2.47537)
(0.00181675 -4.84056e-05 2.43451)
(0.0016368 -6.87698e-05 2.35177)
(0.00138725 -9.02105e-05 2.2251)
(0.00109275 -0.000111369 2.0514)
(0.000783679 -0.000129515 1.8265)
(0.000492694 -0.000140186 1.5451)
(0.000250181 -0.000136911 1.20071)
(8.19229e-05 -0.000111128 0.7857)
(2.73516e-06 -5.19661e-05 0.291443)
(5.707e-06 2.90899e-05 0.304619)
(0.000105918 5.94482e-05 0.823951)
(0.000300326 7.00721e-05 1.26207)
(0.000566643 6.82333e-05 1.62711)
(0.000875496 5.91877e-05 1.92638)
(0.00119727 4.65581e-05 2.16623)
(0.00150159 3.25674e-05 2.35192)
(0.00176007 1.83371e-05 2.48761)
(0.00194846 4.19713e-06 2.57639)
(0.00204848 -1.00295e-05 2.6203)
(0.00204959 -2.47655e-05 2.62031)
(0.00195024 -4.04297e-05 2.5764)
(0.00175854 -5.71855e-05 2.48752)
(0.00149219 -7.46732e-05 2.35161)
(0.00117726 -9.17256e-05 2.16558)
(0.000845956 -0.00010608 1.92532)
(0.000533163 -0.000114114 1.62564)
(0.000271584 -0.000110686 1.26039)
(8.93557e-05 -8.91334e-05 0.822424)
(3.08274e-06 -4.12655e-05 0.303838)
(5.98023e-06 1.84395e-05 0.312669)
(0.000111027 3.79657e-05 0.847792)
(0.000314665 4.50171e-05 1.30084)
(0.000593355 4.40552e-05 1.6795)
(0.000916225 3.83742e-05 1.99076)
(0.00125228 3.02818e-05 2.24074)
(0.00156988 2.12173e-05 2.43458)
(0.0018395 1.19232e-05 2.5764)
(0.002036 2.63378e-06 2.66927)
(0.00214042 -6.74487e-06 2.71522)
(0.00214183 -1.64664e-05 2.71524)
(0.00203857 -2.67812e-05 2.66928)
(0.00183902 -3.77708e-05 2.57631)
(0.00156146 -4.91746e-05 2.43426)
(0.0012329 -6.0207e-05 2.24006)
(0.000886834 -6.93774e-05 1.98965)
(0.000559596 -7.43344e-05 1.67798)
(0.000285456 -7.1781e-05 1.29909)
(9.4103e-05 -5.75091e-05 0.846203)
(3.28264e-06 -2.64528e-05 0.311856)
(6.109e-06 6.31042e-06 0.316625)
(0.000113527 1.30402e-05 0.85951)
(0.000321729 1.55071e-05 1.31991)
(0.000606563 1.52129e-05 1.7053)
(0.000936413 1.32782e-05 2.02249)
(0.00127959 1.04943e-05 2.2775)
(0.00160381 7.35884e-06 2.47541)
(0.001879 4.13111e-06 2.62029)
(0.00207954 8.95727e-07 2.7152)
(0.00218615 -2.37628e-06 2.76217)
(0.0021877 -5.76912e-06 2.76219)
(0.00208249 -9.36569e-06 2.71521)
(0.001879 -1.31901e-05 2.6202)
(0.00159583 -1.71473e-05 2.47508)
(0.00126047 -2.09605e-05 2.27682)
(0.000907039 -2.41102e-05 2.02136)
(0.000572617 -2.57822e-05 1.70375)
(0.000292254 -2.48422e-05 1.31813)
(9.6407e-05 -1.98531e-05 0.857889)
(3.37271e-06 -9.10297e-06 0.315794)
(6.10901e-06 -6.31038e-06 0.316625)
(0.000113527 -1.304e-05 0.85951)
(0.000321729 -1.55068e-05 1.31991)
(0.000606563 -1.52125e-05 1.7053)
(0.000936413 -1.32778e-05 2.02249)
(0.00127959 -1.04939e-05 2.2775)
(0.00160381 -7.35834e-06 2.47541)
(0.001879 -4.13052e-06 2.62029)
(0.00207954 -8.94993e-07 2.7152)
(0.00218615 2.37717e-06 2.76217)
(0.0021877 5.77017e-06 2.76219)
(0.00208249 9.36687e-06 2.71521)
(0.001879 1.31913e-05 2.6202)
(0.00159583 1.71485e-05 2.47508)
(0.00126048 2.09617e-05 2.27682)
(0.000907039 2.41112e-05 2.02136)
(0.000572617 2.57829e-05 1.70375)
(0.000292254 2.48427e-05 1.31813)
(9.6407e-05 1.98533e-05 0.857889)
(3.37271e-06 9.10301e-06 0.315794)
(5.98026e-06 -1.84394e-05 0.312669)
(0.000111027 -3.79653e-05 0.847792)
(0.000314665 -4.50166e-05 1.30084)
(0.000593355 -4.40547e-05 1.6795)
(0.000916225 -3.83738e-05 1.99076)
(0.00125228 -3.02814e-05 2.24074)
(0.00156988 -2.12169e-05 2.43458)
(0.0018395 -1.19226e-05 2.5764)
(0.002036 -2.63311e-06 2.66927)
(0.00214042 6.74571e-06 2.71522)
(0.00214183 1.64674e-05 2.71524)
(0.00203858 2.67823e-05 2.66928)
(0.00183902 3.7772e-05 2.57631)
(0.00156146 4.91758e-05 2.43426)
(0.00123291 6.02082e-05 2.24006)
(0.000886834 6.93783e-05 1.98965)
(0.000559596 7.43351e-05 1.67798)
(0.000285456 7.17814e-05 1.29909)
(9.4103e-05 5.75092e-05 0.846203)
(3.28263e-06 2.64528e-05 0.311856)
(5.70702e-06 -2.90897e-05 0.304619)
(0.000105918 -5.94476e-05 0.823951)
(0.000300326 -7.00715e-05 1.26207)
(0.000566643 -6.82329e-05 1.62711)
(0.000875497 -5.91874e-05 1.92638)
(0.00119727 -4.65578e-05 2.16623)
(0.00150159 -3.25671e-05 2.35192)
(0.00176008 -1.83367e-05 2.48761)
(0.00194846 -4.19657e-06 2.57639)
(0.00204848 1.00303e-05 2.6203)
(0.0020496 2.47664e-05 2.62031)
(0.00195024 4.04308e-05 2.5764)
(0.00175854 5.71867e-05 2.48752)
(0.00149219 7.46744e-05 2.35161)
(0.00117726 9.17267e-05 2.16558)
(0.000845957 0.000106081 1.92532)
(0.000533164 0.000114115 1.62564)
(0.000271584 0.000110686 1.26039)
(8.93556e-05 8.91334e-05 0.822424)
(3.08271e-06 4.12655e-05 0.303838)
(5.25816e-06 -3.72698e-05 0.292179)
(9.80036e-05 -7.52815e-05 0.787143)
(0.000278349 -8.79164e-05 1.2023)
(0.00052594 -8.49475e-05 1.54649)
(0.000813669 -7.32108e-05 1.82752)
(0.00111396 -5.73032e-05 2.05202)
(0.00139834 -3.99753e-05 2.22539)
(0.00164008 -2.2566e-05 2.35186)
(0.00181628 -5.42246e-06 2.43451)
(0.00190966 1.17342e-05 2.47535)
(0.00191029 2.94844e-05 2.47537)
(0.00181675 4.84065e-05 2.43452)
(0.0016368 6.87708e-05 2.35177)
(0.00138725 9.02116e-05 2.2251)
(0.00109276 0.00011137 2.0514)
(0.00078368 0.000129516 1.8265)
(0.000492694 0.000140186 1.5451)
(0.000250181 0.000136911 1.20071)
(8.19229e-05 0.000111128 0.7857)
(2.73509e-06 5.19662e-05 0.291443)
(4.59098e-06 -4.20086e-05 0.27486)
(8.70561e-05 -8.34667e-05 0.735975)
(0.000248358 -9.62052e-05 1.11942)
(0.000470796 -9.19486e-05 1.43504)
(0.000730281 -7.85288e-05 1.69128)
(0.00100192 -6.10351e-05 1.89506)
(0.00125972 -4.24081e-05 2.05192)
(0.00147912 -2.40064e-05 2.16607)
(0.00163904 -6.11058e-06 2.24055)
(0.00172354 1.16655e-05 2.27733)
(0.00172348 3.0026e-05 2.27733)
(0.00163765 4.96753e-05 2.24055)
(0.00147332 7.10002e-05 2.16597)
(0.00124612 9.37227e-05 2.05162)
(0.000978861 0.000116509 1.89446)
(0.000699443 0.00013654 1.69031)
(0.000437651 0.000149056 1.43374)
(0.00022081 0.000146968 1.11793)
(7.15444e-05 0.000120616 0.734634)
(2.19106e-06 5.71955e-05 0.274178)
(3.66386e-06 -4.24344e-05 0.251905)
(7.29196e-05 -8.24486e-05 0.668329)
(0.000210201 -9.33569e-05 1.01031)
(0.000401171 -8.79283e-05 1.28901)
(0.000625457 -7.41881e-05 1.51356)
(0.000861419 -5.71176e-05 1.69114)
(0.00108611 -3.94603e-05 1.82728)
(0.00127767 -2.23933e-05 1.92607)
(0.00141727 -6.06685e-06 1.99042)
(0.00149068 9.98911e-06 2.02215)
(0.00148976 2.65351e-05 2.02215)
(0.00141354 4.43338e-05 1.99039)
(0.00126869 6.3864e-05 1.92595)
(0.00106936 8.50001e-05 1.82697)
(0.000836017 0.000106635 1.69056)
(0.000593523 0.000126242 1.51264)
(0.000368121 0.000139377 1.28779)
(0.000183404 0.000139173 1.00894)
(5.81018e-05 0.000115911 0.667097)
(1.41061e-06 5.59905e-05 0.251281)
(2.44307e-06 -3.79271e-05 0.222121)
(5.57065e-05 -7.15109e-05 0.580995)
(0.000164367 -7.90719e-05 0.870421)
(0.000318036 -7.30458e-05 1.10315)
(0.000500621 -6.06471e-05 1.28887)
(0.00069424 -4.61066e-05 1.43477)
(0.000879528 -3.15999e-05 1.5461)
(0.00103789 -1.79594e-05 1.62664)
(0.00115324 -5.18615e-06 1.67899)
(0.00121343 7.21074e-06 1.70478)
(0.0012116 1.99468e-05 1.70477)
(0.00114703 3.37392e-05 1.67894)
(0.0010256 4.9091e-05 1.6265)
(0.000859614 6.60377e-05 1.54578)
(0.000666683 8.38314e-05 1.4342)
(0.000467997 0.000100565 1.28802)
(0.000285619 0.000112676 1.10204)
(0.000138827 0.000114382 0.869175)
(4.18905e-05 9.71084e-05 0.579884)
(3.80289e-07 4.80448e-05 0.221561)
(9.29475e-07 -2.84317e-05 0.183521)
(3.61635e-05 -5.14625e-05 0.468995)
(0.000112643 -5.50699e-05 0.693181)
(0.000224246 -4.95749e-05 0.870314)
(0.000359468 -4.02804e-05 1.01007)
(0.000504626 -3.01006e-05 1.11905)
(0.000644542 -2.03967e-05 1.20181)
(0.000764518 -1.15873e-05 1.2615)
(0.000851819 -3.56588e-06 1.30022)
(0.000896864 4.08112e-06 1.31927)
(0.000894294 1.19041e-05 1.31925)
(0.000843689 2.04529e-05 1.30015)
(0.000749892 3.01517e-05 1.26134)
(0.000622823 4.11374e-05 1.20149)
(0.000476589 5.30488e-05 1.11852)
(0.000327979 6.47707e-05 1.0093)
(0.00019419 7.40134e-05 0.86933)
(8.96992e-05 7.67925e-05 0.692096)
(2.40777e-05 6.68903e-05 0.46803)
(-8.45886e-07 3.41238e-05 0.183032)
(-5.77832e-07 -1.56528e-05 0.132328)
(1.64119e-05 -2.6533e-05 0.324173)
(5.92538e-05 -2.70014e-05 0.468939)
(0.000125803 -2.33762e-05 0.580849)
(0.000209216 -1.83859e-05 0.668073)
(0.000300442 -1.3382e-05 0.735611)
(0.000389263 -8.90177e-06 0.786682)
(0.000465743 -5.03564e-06 0.823417)
(0.000521291 -1.6621e-06 0.847207)
(0.000549483 1.46421e-06 0.858895)
(0.000546787 4.64077e-06 0.858873)
(0.000513036 8.16291e-06 0.847132)
(0.000451645 1.22801e-05 0.82326)
(0.000369464 1.71283e-05 0.786404)
(0.000276157 2.26334e-05 0.735175)
(0.000183123 2.83962e-05 0.667463)
(0.00010185 3.34403e-05 0.580085)
(4.1635e-05 3.58741e-05 0.468102)
(7.49478e-06 3.24909e-05 0.323424)
(-1.84602e-06 1.73785e-05 0.131937)
(-1.59315e-06 -3.07992e-06 0.0597989)
(9.60937e-07 -4.1332e-06 0.132316)
(1.26753e-05 -3.57408e-06 0.183479)
(3.39663e-05 -2.81076e-06 0.222033)
(6.24819e-05 -2.02017e-06 0.251763)
(9.46921e-05 -1.35516e-06 0.274665)
(0.000126539 -8.51919e-07 0.291935)
(0.00015411 -4.68437e-07 0.304336)
(0.000174057 -1.7562e-07 0.312358)
(0.000183905 6.76053e-08 0.316294)
(0.000182324 3.08083e-07 0.31628)
(0.000169313 5.90227e-07 0.312313)
(0.000146276 9.58786e-07 0.304248)
(0.000115969 1.44844e-06 0.29179)
(8.2246e-05 2.07331e-06 0.274449)
(4.96377e-05 2.84512e-06 0.25147)
(2.26659e-05 3.6755e-06 0.221672)
(4.79555e-06 4.34087e-06 0.183082)
(-2.70918e-06 4.54877e-06 0.13195)
(-2.00766e-06 3.02712e-06 0.0595875)
(-2.79846e-06 4.99656e-06 0.059788)
(-1.38273e-07 6.81072e-06 0.132289)
(1.67523e-05 6.03619e-06 0.18344)
(4.90501e-05 4.80958e-06 0.221986)
(9.334e-05 3.52868e-06 0.251712)
(0.000144013 2.42764e-06 0.274615)
(0.000194541 1.56397e-06 0.29189)
(0.000238542 8.87222e-07 0.304302)
(0.000270505 3.47747e-07 0.312338)
(0.000286319 -1.20374e-07 0.31629)
(0.000283744 -5.90123e-07 0.316293)
(0.000262725 -1.13191e-06 0.312342)
(0.000225548 -1.81485e-06 0.304291)
(0.000176761 -2.69323e-06 0.291843)
(0.000122774 -3.78966e-06 0.274507)
(7.11135e-05 -5.09951e-06 0.251528)
(2.924e-05 -6.4697e-06 0.221723)
(2.76881e-06 -7.53218e-06 0.183122)
(-6.73806e-06 -7.67209e-06 0.131975)
(-3.57562e-06 -4.97019e-06 0.0595967)
(-1.49032e-06 2.58734e-05 0.132303)
(2.27965e-05 4.45667e-05 0.324104)
(8.79644e-05 4.60112e-05 0.468836)
(0.000191619 4.038e-05 0.580722)
(0.000323404 3.22346e-05 0.667936)
(0.000468862 2.38376e-05 0.735476)
(0.000611455 1.61172e-05 0.786563)
(0.000734905 9.26239e-06 0.823325)
(0.000824997 3.09691e-06 0.847151)
(0.000871012 -2.75592e-06 0.858881)
(0.000866947 -8.75516e-06 0.858905)
(0.000812366 -1.53543e-05 0.847208)
(0.000712804 -2.29238e-05 0.823374)
(0.000579571 -3.16385e-05 0.786545)
(0.000428752 -4.13147e-05 0.73533)
(0.000279347 -5.1191e-05 0.667617)
(0.000150407 -5.95193e-05 0.580223)
(5.71515e-05 -6.30125e-05 0.46821)
(6.95271e-06 -5.61666e-05 0.323492)
(-3.80411e-06 -2.94128e-05 0.13196)
(8.22173e-07 4.76854e-05 0.183485)
(5.39313e-05 8.73258e-05 0.468894)
(0.000172986 9.45178e-05 0.693027)
(0.000349415 8.6076e-05 0.870124)
(0.000565455 7.08306e-05 1.00986)
(0.000799085 5.36466e-05 1.11885)
(0.00102562 3.68404e-05 1.20163)
(0.00122088 2.11733e-05 1.26136)
(0.0013637 6.52499e-06 1.30014)
(0.001438 -7.7234e-06 1.31925)