/*--------------------------------*- C++ -*----------------------------------*\
  =========                 |
  \\      /  F ield         | OpenFOAM: The Open Source CFD Toolbox
   \\    /   O peration     | Website:  https://openfoam.org
    \\  /    A nd           | Version:  6
     \\/     M anipulation  |
\*---------------------------------------------------------------------------*/
FoamFile
{
    version     2.0;
    format      ascii;
    class       surfaceScalarField;
    location    "2000";
    object      phi;
}
// * * * * * * * * * * * * * * * * * * * * * * * * * * * * * * * * * * * * * //

dimensions      [0 3 -1 0 0 0 0];

internalField   nonuniform List<scalar> 
19500
(
1.54908e-07
1.5561e-07
9.96901e-05
1.63994e-08
1.55543e-07
9.99836e-05
1.02992e-08
1.5542e-07
9.98514e-05
4.63934e-09
1.55177e-07
9.98512e-05
-1.83883e-09
1.54872e-07
9.98523e-05
-8.12566e-09
1.54505e-07
9.98525e-05
-1.31691e-08
1.54106e-07
9.98517e-05
-1.82944e-08
1.53739e-07
9.98521e-05
-1.58799e-07
1.53364e-07
9.99879e-05
1.52781e-07
9.9689e-05
1.54849e-07
1.6633e-08
9.99848e-05
1.62361e-08
1.64807e-08
0.000100278
1.01336e-08
1.63794e-08
0.000100146
4.41635e-09
1.6251e-08
0.000100145
-2.10588e-09
1.60862e-08
0.000100146
-8.41884e-09
1.58972e-08
0.000100146
-1.34503e-08
1.56996e-08
0.000100144
-1.84415e-08
1.55146e-08
0.000100144
-1.59389e-07
1.53506e-08
0.00010028
1.51837e-08
9.99789e-05
1.54758e-07
1.07249e-08
9.98518e-05
1.61348e-08
1.06025e-08
0.000100145
9.97967e-09
1.04708e-08
0.000100013
4.22673e-09
1.0296e-08
0.000100012
-2.32993e-09
1.00735e-08
0.000100013
-8.66018e-09
9.81784e-09
0.000100013
-1.36675e-08
9.54999e-09
0.000100012
-1.86032e-08
9.3012e-09
0.000100012
-1.59784e-07
9.07961e-09
0.000100148
8.77566e-09
9.98473e-05
1.54595e-07
5.21663e-09
9.98516e-05
1.60272e-08
5.08114e-09
0.000100145
9.80821e-09
4.94978e-09
0.000100012
4.00835e-09
4.76641e-09
0.000100012
-2.58286e-09
4.53084e-09
0.000100013
-8.92841e-09
4.2589e-09
0.000100013
-1.3914e-08
3.9742e-09
0.000100011
-1.8787e-08
3.71075e-09
0.000100011
-1.60171e-07
3.47452e-09
0.000100148
3.1699e-09
9.98461e-05
1.54433e-07
-1.16285e-09
9.98526e-05
1.59129e-08
-1.29039e-09
0.000100146
9.6279e-09
-1.41235e-09
0.000100013
3.77697e-09
-1.57786e-09
0.000100013
-2.85026e-09
-1.78985e-09
0.000100014
-9.21043e-09
-2.03295e-09
0.000100013
-1.41725e-08
-2.28449e-09
0.000100012
-1.89753e-08
-2.5137e-09
0.000100012
-1.60573e-07
-2.71108e-09
0.000100148
-2.96264e-09
9.98462e-05
1.54275e-07
-7.42474e-09
9.98526e-05
1.58099e-08
-7.53248e-09
0.000100145
9.46467e-09
-7.63247e-09
0.000100013
3.56635e-09
-7.76306e-09
0.000100013
-3.0921e-09
-7.92913e-09
0.000100014
-9.4626e-09
-8.11701e-09
0.000100013
-1.44016e-08
-8.30748e-09
0.000100012
-1.91391e-08
-8.47675e-09
0.000100011
-1.60904e-07
-8.61435e-09
0.000100148
-8.78331e-09
9.98455e-05
1.54138e-07
-1.25616e-08
9.98516e-05
1.5729e-08
-1.26431e-08
0.000100144
9.33587e-09
-1.27035e-08
0.000100012
3.39939e-09
-1.27887e-08
0.000100012
-3.28139e-09
-1.28978e-08
0.000100012
-9.65616e-09
-1.30201e-08
0.000100012
-1.45746e-08
-1.31408e-08
0.00010001
-1.92591e-08
-1.32446e-08
0.00010001
-1.6113e-07
-1.33283e-08
0.000100147
-1.3413e-08
9.98441e-05
1.5405e-07
-1.78878e-08
9.98519e-05
1.56733e-08
-1.78705e-08
0.000100144
9.24937e-09
-1.78974e-08
0.000100012
3.28669e-09
-1.79414e-08
0.000100012
-3.4064e-09
-1.79953e-08
0.000100012
-9.77979e-09
-1.80533e-08
0.000100012
-1.46821e-08
-1.81067e-08
0.000100011
-1.93279e-08
-1.81469e-08
0.00010001
-1.61263e-07
-1.81817e-08
0.000100147
-1.82947e-08
9.98442e-05
1.53951e-07
-1.57447e-07
9.99862e-05
1.56463e-08
-1.57607e-07
0.000100279
9.20218e-09
-1.5769e-07
0.000100147
3.22003e-09
-1.57735e-07
0.000100146
-3.47227e-09
-1.57797e-07
0.000100147
-9.83752e-09
-1.57845e-07
0.000100147
-1.47339e-08
-1.57873e-07
0.000100145
-1.93625e-08
-1.57897e-07
0.000100145
-1.61293e-07
-1.57889e-07
0.000100282
-1.57807e-07
9.99788e-05
1.53791e-07
9.96893e-05
1.56682e-08
9.99811e-05
9.1417e-09
9.98494e-05
3.15338e-09
9.98488e-05
-3.53349e-09
9.98495e-05
-9.8817e-09
9.98491e-05
-1.47602e-08
9.98476e-05
-1.94682e-08
9.98474e-05
-1.6122e-07
9.99845e-05
9.96815e-05
2.18453e-07
2.21407e-07
9.92528e-05
6.48815e-08
2.21209e-07
9.99187e-05
3.52008e-08
2.20687e-07
9.96631e-05
8.4018e-09
2.20238e-07
9.96606e-05
-1.20034e-08
2.19594e-07
9.96561e-05
-3.13039e-08
2.18818e-07
9.9656e-05
-5.48209e-08
2.17961e-07
9.96603e-05
-7.91747e-08
2.1708e-07
9.96624e-05
-2.30378e-07
2.16583e-07
9.99255e-05
2.15108e-07
9.92458e-05
2.18233e-07
6.89681e-08
9.99216e-05
6.45317e-08
6.87362e-08
0.000100587
3.46176e-08
6.84817e-08
0.000100331
7.6096e-09
6.81287e-08
0.000100327
-1.29313e-08
6.77152e-08
0.000100322
-3.23074e-08
6.72517e-08
0.00010032
-5.5847e-08
6.67648e-08
0.000100322
-8.00917e-08
6.63201e-08
0.000100322
-2.31868e-07
6.59394e-08
0.000100585
6.50118e-08
9.98993e-05
2.17766e-07
4.12059e-08
9.96645e-05
6.42687e-08
4.08616e-08
0.000100329
3.4294e-08
4.05857e-08
0.000100073
7.20495e-09
4.01512e-08
0.00010007
-1.34014e-08
3.96183e-08
0.000100065
-3.28117e-08
3.90149e-08
0.000100064
-5.6344e-08
3.83796e-08
0.000100067
-8.04804e-08
3.77883e-08
0.000100068
-2.3246e-07
3.72557e-08
0.000100332
3.61609e-08
9.96458e-05
2.17474e-07
1.59458e-08
9.9662e-05
6.395e-08
1.55352e-08
0.000100326
3.38573e-08
1.52359e-08
0.000100071
6.67856e-09
1.4778e-08
0.000100068
-1.39946e-08
1.42007e-08
0.000100062
-3.34349e-08
1.35416e-08
0.000100061
-5.69383e-08
1.28465e-08
0.000100063
-8.09737e-08
1.21967e-08
0.000100064
-2.33501e-07
1.16374e-08
0.000100329
1.05672e-08
9.96403e-05
2.1711e-07
-3.49765e-09
9.96576e-05
6.36246e-08
-3.8927e-09
0.000100321
3.33888e-08
-4.18817e-09
0.000100066
6.09684e-09
-4.61971e-09
0.000100062
-1.46574e-08
-5.16918e-09
0.000100057
-3.41321e-08
-5.79581e-09
0.000100055
-5.7604e-08
-6.45215e-09
0.000100058
-8.15331e-08
-7.06112e-09
0.000100058
-2.34524e-07
-7.55943e-09
0.000100324
-8.47354e-09
9.96327e-05
2.16747e-07
-2.26064e-08
9.96576e-05
6.33218e-08
-2.29472e-08
0.000100321
3.29494e-08
-2.32074e-08
0.000100065
5.54641e-09
-2.3567e-08
0.000100062
-1.52839e-08
-2.40276e-08
0.000100056
-3.47867e-08
-2.45496e-08
0.000100054
-5.8223e-08
-2.50904e-08
0.000100057
-8.20467e-08
-2.5589e-08
0.000100057
-2.35386e-07
-2.59767e-08
0.000100323
-2.66303e-08
9.96302e-05
2.16425e-07
-4.68861e-08
9.96621e-05
6.30721e-08
-4.71798e-08
0.000100324
3.25853e-08
-4.73762e-08
0.00010007
5.08788e-09
-4.76307e-08
0.000100066
-1.58028e-08
-4.79672e-08
0.00010006
-3.53229e-08
-4.83472e-08
0.000100058
-5.87259e-08
-4.87391e-08
0.00010006
-8.24625e-08
-4.91072e-08
0.00010006
-2.35987e-07
-4.93674e-08
0.000100327
-4.97224e-08
9.9633e-05
2.16144e-07
-7.3056e-08
9.96645e-05
6.29129e-08
-7.32856e-08
0.000100326
3.23324e-08
-7.33723e-08
0.000100072
4.7577e-09
-7.35135e-08
0.000100068
-1.61766e-08
-7.3719e-08
0.000100062
-3.57082e-08
-7.39508e-08
0.00010006
-5.90935e-08
-7.41888e-08
0.000100062
-8.27673e-08
-7.44183e-08
0.000100062
-2.36293e-07
-7.46123e-08
0.000100329
-7.46382e-08
9.96346e-05
2.16211e-07
-2.2532e-07
9.99247e-05
6.28352e-08
-2.25664e-07
0.000100587
3.21688e-08
-2.25573e-07
0.000100332
4.56544e-09
-2.25768e-07
0.000100329
-1.63752e-08
-2.25934e-07
0.000100323
-3.58998e-08
-2.26083e-07
0.000100321
-5.92611e-08
-2.26195e-07
0.000100323
-8.29477e-08
-2.26236e-07
0.000100323
-2.36547e-07
-2.26404e-07
0.00010059
-2.2611e-07
9.98955e-05
2.15881e-07
9.92498e-05
6.26971e-08
9.99103e-05
3.20403e-08
9.96562e-05
4.46746e-09
9.96524e-05
-1.64601e-08
9.96463e-05
-3.59564e-08
9.96443e-05
-5.92616e-08
9.96465e-05
-8.28083e-08
9.96465e-05
-2.36226e-07
9.99133e-05
9.92201e-05
2.45008e-07
2.48676e-07
9.87618e-05
8.30899e-08
2.48366e-07
9.9835e-05
4.74168e-08
2.47107e-07
9.94545e-05
1.16079e-08
2.46339e-07
9.9453e-05
-1.76538e-08
2.45094e-07
9.94433e-05
-4.52966e-08
2.43623e-07
9.94431e-05
-7.63844e-08
2.42006e-07
9.94524e-05
-1.0433e-07
2.40228e-07
9.94532e-05
-2.61885e-07
2.39658e-07
9.98466e-05
2.36605e-07
9.87494e-05
2.44674e-07
8.87059e-08
9.98397e-05
8.2613e-08
8.84461e-08
0.000100912
4.63106e-08
8.78948e-08
0.000100529
1.00841e-08
8.71664e-08
0.000100526
-1.94996e-08
8.63106e-08
0.000100513
-4.73486e-08
8.53197e-08
0.000100509
-7.84683e-08
8.42409e-08
0.000100514
-1.06402e-07
8.32509e-08
0.00010051
-2.64884e-07
8.2555e-08
0.000100904
8.03193e-08
9.97929e-05
2.43525e-07
5.56802e-08
9.94567e-05
8.20511e-08
5.50333e-08
0.000100527
4.56958e-08
5.45149e-08
0.000100146
9.29227e-09
5.36373e-08
0.000100143
-2.04208e-08
5.25511e-08
0.000100132
-4.83433e-08
5.12887e-08
0.000100129
-7.9455e-08
4.99193e-08
0.000100135
-1.07127e-07
4.86204e-08
0.000100133
-2.65743e-07
4.75493e-08
0.000100529
4.51617e-08
9.94175e-05
2.43061e-07
2.20556e-08
9.94553e-05
8.14053e-08
2.12964e-08
0.000100525
4.48062e-08
2.0734e-08
0.000100144
8.19332e-09
1.98228e-08
0.000100141
-2.16844e-08
1.86664e-08
0.000100129
-4.96962e-08
1.73196e-08
0.000100126
-8.07631e-08
1.58637e-08
0.000100131
-1.08232e-07
1.44676e-08
0.000100128
-2.67934e-07
1.33607e-08
0.000100526
1.10482e-08
9.94086e-05
2.42369e-07
-5.75318e-09
9.94457e-05
8.07741e-08
-6.50287e-09
0.000100513
4.38841e-08
-7.03306e-09
0.000100133
7.02129e-09
-7.86885e-09
0.00010013
-2.30483e-08
-8.94008e-09
0.000100117
-5.11598e-08
-1.01794e-08
0.000100114
-8.21889e-08
-1.15026e-08
0.000100119
-1.09457e-07
-1.27652e-08
0.000100115
-2.69943e-07
-1.37349e-08
0.000100514
-1.56053e-08
9.93915e-05
2.4173e-07
-3.29987e-08
9.94458e-05
8.01924e-08
-3.36645e-08
0.000100512
4.30377e-08
-3.4105e-08
0.000100133
5.94811e-09
-3.47767e-08
0.000100129
-2.42889e-08
-3.56424e-08
0.000100116
-5.24758e-08
-3.66286e-08
0.000100112
-8.3454e-08
-3.76602e-08
0.000100117
-1.10527e-07
-3.86358e-08
0.000100112
-2.71586e-07
-3.93425e-08
0.000100512
-4.05594e-08
9.93855e-05
2.41208e-07
-6.4987e-08
9.94555e-05
7.97166e-08
-6.55507e-08
0.000100521
4.23534e-08
-6.58775e-08
0.000100142
5.08837e-09
-6.63321e-08
0.000100138
-2.52675e-08
-6.69343e-08
0.000100125
-5.34935e-08
-6.76042e-08
0.00010012
-8.44153e-08
-6.82867e-08
0.000100125
-1.11308e-07
-6.89313e-08
0.00010012
-2.72684e-07
-6.93476e-08
0.000100521
-6.98704e-08
9.93914e-05
2.40645e-07
-9.54275e-08
9.94568e-05
7.94348e-08
-9.60472e-08
0.000100521
4.19048e-08
-9.61062e-08
0.000100142
4.50533e-09
-9.63351e-08
0.000100138
-2.59285e-08
-9.66826e-08
0.000100125
-5.41695e-08
-9.70531e-08
0.00010012
-8.5048e-08
-9.74069e-08
0.000100125
-1.11838e-07
-9.77685e-08
0.00010012
-2.72995e-07
-9.80811e-08
0.000100521
-9.78776e-08
9.93914e-05
2.41139e-07
-2.55273e-07
9.9846e-05
7.93945e-08
-2.55945e-07
0.000100911
4.16527e-08
-2.55417e-07
0.000100532
4.222e-09
-2.55804e-07
0.000100529
-2.6223e-08
-2.56003e-07
0.000100515
-5.44489e-08
-2.56166e-07
0.000100511
-8.52765e-08
-2.56273e-07
0.000100516
-1.12127e-07
-2.56067e-07
0.000100511
-2.7373e-07
-2.56675e-07
0.000100913
-2.55794e-07
9.97818e-05
2.40457e-07
9.87557e-05
7.89161e-08
9.98177e-05
4.13845e-08
9.94401e-05
4.02836e-09
9.94358e-05
-2.63255e-08
9.94224e-05
-5.44334e-08
9.94181e-05
-8.51019e-08
9.94226e-05
-1.1164e-07
9.94187e-05
-2.72852e-07
9.98199e-05
9.86925e-05
2.60143e-07
2.64331e-07
9.82402e-05
9.12408e-08
2.63867e-07
9.9743e-05
5.03297e-08
2.61739e-07
9.92367e-05
1.06595e-08
2.60522e-07
9.92351e-05
-2.3233e-08
2.58389e-07
9.92218e-05
-5.50725e-08
2.55934e-07
9.9222e-05
-8.86614e-08
2.53303e-07
9.92358e-05
-1.19582e-07
2.50193e-07
9.92369e-05
-2.82514e-07
2.49339e-07
9.97635e-05
2.43943e-07
9.82258e-05
2.59649e-07
9.79327e-08
9.97494e-05
9.05338e-08
9.75762e-08
0.000101251
4.8511e-08
9.66066e-08
0.000100739
8.15709e-09
9.53634e-08
0.000100734
-2.63628e-08
9.38906e-08
0.000100715
-5.86228e-08
9.21487e-08
0.000100708
-9.22931e-08
9.02314e-08
0.000100714
-1.23255e-07
8.84091e-08
0.000100706
-2.87731e-07
8.72411e-08
0.000101234
8.30767e-08
9.96687e-05
2.57716e-07
6.03007e-08
9.92396e-05
8.95547e-08
5.92496e-08
0.000100737
4.7481e-08
5.83796e-08
0.000100229
6.81863e-09
5.6892e-08
0.000100226
-2.79047e-08
5.5036e-08
0.000100208
-6.02652e-08
5.28318e-08
0.000100204
-9.39579e-08
5.03967e-08
0.000100212
-1.24466e-07
4.80072e-08
0.000100207
-2.89245e-07
4.61171e-08
0.000100738
4.15992e-08
9.91721e-05
2.57023e-07
2.34735e-08
9.92381e-05
8.8462e-08
2.22872e-08
0.000100733
4.59628e-08
2.13501e-08
0.000100227
4.90456e-09
1.98111e-08
0.000100222
-3.01459e-08
1.78465e-08
0.000100204
-6.26999e-08
1.55138e-08
0.000100198
-9.63675e-08
1.29385e-08
0.000100205
-1.26567e-07
1.03862e-08
0.000100199
-2.93362e-07
8.41518e-09
0.000100733
3.99266e-09
9.9155e-05
2.55851e-07
-8.34625e-09
9.92246e-05
8.7416e-08
-9.55464e-09
0.000100717
4.44213e-08
-1.03918e-08
0.000100211
2.90745e-09
-1.17807e-08
0.000100206
-3.25158e-08
-1.35705e-08
0.000100187
-6.52936e-08
-1.56724e-08
0.000100181
-9.895e-08
-1.79594e-08
0.000100186
-1.28867e-07
-2.02144e-08
0.000100178
-2.97013e-07
-2.19153e-08
0.000100716
-2.53604e-08
9.91258e-05
2.54858e-07
-3.93468e-08
9.92249e-05
8.64602e-08
-4.04568e-08
0.000100714
4.30262e-08
-4.11012e-08
0.00010021
1.11399e-09
-4.21875e-08
0.000100204
-3.46222e-08
-4.35915e-08
0.000100185
-6.75691e-08
-4.51997e-08
0.000100177
-1.0118e-07
-4.68988e-08
0.000100182
-1.30807e-07
-4.85334e-08
0.000100173
-2.99971e-07
-4.97219e-08
0.000100712
-5.16978e-08
9.91138e-05
2.5414e-07
-7.38193e-08
9.92387e-05
8.56876e-08
-7.4716e-08
0.000100726
4.19232e-08
-7.51732e-08
0.000100222
-2.77298e-10
-7.58851e-08
0.000100216
-3.62159e-08
-7.68185e-08
0.000100197
-6.92421e-08
-7.78407e-08
0.000100189
-1.0276e-07
-7.88637e-08
0.000100193
-1.32127e-07
-7.98255e-08
0.000100183
-3.01802e-07
-8.04049e-08
0.000100724
-8.10044e-08
9.91208e-05
2.53225e-07
-1.07789e-07
9.92403e-05
8.52455e-08
-1.08864e-07
0.000100726
4.12254e-08
-1.08857e-07
0.000100223
-1.17793e-09
-1.09196e-07
0.000100217
-3.72296e-08
-1.097e-07
0.000100197
-7.02645e-08
-1.10201e-07
0.000100189
-1.03695e-07
-1.10635e-07
0.000100193
-1.3289e-07
-1.11055e-07
0.000100183
-3.01993e-07
-1.11448e-07
0.000100724
-1.10573e-07
9.91209e-05
2.54175e-07
-2.74235e-07
9.97609e-05
8.52806e-08
-2.75299e-07
0.000101249
4.09062e-08
-2.74276e-07
0.000100745
-1.51866e-09
-2.7487e-07
0.000100739
-3.75937e-08
-2.74976e-07
0.00010072
-7.06045e-08
-2.75041e-07
0.000100712
-1.03908e-07
-2.75004e-07
0.000100716
-1.33236e-07
-2.74305e-07
0.000100706
-3.02769e-07
-2.74897e-07
0.000101249
-2.72968e-07
9.96433e-05
2.53059e-07
9.82303e-05
8.44267e-08
9.97128e-05
4.04901e-08
9.92116e-05
-1.8104e-09
9.9205e-05
-3.76211e-08
9.91851e-05
-7.03006e-08
9.91775e-05
-1.03338e-07
9.91824e-05
-1.31934e-07
9.91749e-05
-3.00941e-07
9.97158e-05
9.81198e-05
2.70695e-07
2.75431e-07
9.7697e-05
9.70713e-08
2.74689e-07
9.9645e-05
5.07256e-08
2.71587e-07
9.90145e-05
7.81676e-09
2.69701e-07
9.90113e-05
-2.976e-08
2.66304e-07
9.8996e-05
-6.47709e-08
2.6245e-07
9.89976e-05
-1.00326e-07
2.5832e-07
9.90158e-05
-1.34061e-07
2.5341e-07
9.90206e-05
-2.98884e-07
2.51931e-07
9.96806e-05
2.42557e-07
9.76873e-05
2.69903e-07
1.04846e-07
9.96531e-05
9.59188e-08
1.04246e-07
0.000101598
4.78773e-08
1.02757e-07
0.000100959
3.91563e-09
1.00805e-07
0.00010095
-3.47435e-08
9.84401e-08
0.000100925
-7.05548e-08
9.561e-08
0.000100914
-1.06123e-07
9.24287e-08
0.000100918
-1.40041e-07
8.93337e-08
0.000100907
-3.07776e-07
8.73804e-08
0.00010157
7.97928e-08
9.95267e-05
2.67125e-07
6.25007e-08
9.90179e-05
9.44243e-08
6.08865e-08
0.000100956
4.62744e-08
5.95356e-08
0.000100324
1.80195e-09
5.71947e-08
0.000100317
-3.71749e-08
5.42269e-08
0.000100294
-7.31756e-08
5.06296e-08
0.000100287
-1.08787e-07
4.6541e-08
0.000100296
-1.42111e-07
4.23721e-08
0.00010029
-3.11011e-07
3.90694e-08
0.000100958
3.05187e-08
9.89131e-05
2.66088e-07
2.32761e-08
9.90142e-05
9.27224e-08
2.1531e-08
0.000100949
4.38692e-08
2.00803e-08
0.000100318
-1.30053e-09
1.76631e-08
0.00010031
-4.08814e-08
1.45401e-08
0.000100286
-7.73118e-08
1.07421e-08
0.000100278
-1.12997e-07
6.42102e-09
0.000100284
-1.45982e-07
1.94909e-09
0.000100275
-3.1867e-07
-1.54373e-09
0.00010095
-9.94154e-09
9.88792e-05
2.64264e-07
-1.13279e-08
9.8998e-05
9.10988e-08
-1.31282e-08
0.000100928
4.146e-08
-1.43752e-08
0.000100298
-4.48363e-09
-1.65216e-08
0.000100289
-4.47479e-08
-1.93142e-08
0.000100264
-8.167e-08
-2.2669e-08
0.000100254
-1.17484e-07
-2.64173e-08
0.000100258
-1.50142e-07
-3.0256e-08
0.000100246
-3.25483e-07
-3.32322e-08
0.000100925
-3.94024e-08
9.88319e-05
2.62812e-07
-4.48264e-08
9.89985e-05
8.96397e-08
-4.64989e-08
0.000100924
3.93164e-08
-4.73986e-08
0.000100296
-7.2867e-09
-4.90281e-08
0.000100286
-4.81139e-08
-5.114e-08
0.00010026
-8.54033e-08
-5.35933e-08
0.000100248
-1.21253e-07
-5.62121e-08
0.00010025
-1.53571e-07
-5.88051e-08
0.000100236
-3.30723e-07
-6.06762e-08
0.000100919
-6.3695e-08
9.88093e-05
2.61879e-07
-8.0874e-08
9.90158e-05
8.84947e-08
-8.21516e-08
0.000100938
3.76755e-08
-8.27583e-08
0.000100311
-9.37544e-09
-8.37774e-08
0.000100301
-5.05386e-08
-8.50886e-08
0.000100274
-8.7977e-08
-8.65068e-08
0.000100262
-1.23733e-07
-8.78791e-08
0.000100263
-1.5565e-07
-8.91354e-08
0.000100248
-3.33568e-07
-8.97407e-08
0.000100933
-9.0059e-08
9.88155e-05
2.60548e-07
-1.18401e-07
9.90201e-05
8.78493e-08
-1.19918e-07
0.000100939
3.66829e-08
-1.19833e-07
0.000100314
-1.06386e-08
-1.20276e-07
0.000100303
-5.1944e-08
-1.20897e-07
0.000100276
-8.9354e-08
-1.21455e-07
0.000100264
-1.24927e-07
-1.21831e-07
0.000100265
-1.56518e-07
-1.22096e-07
0.00010025
-3.33181e-07
-1.22324e-07
0.000100936
-1.2024e-07
9.88199e-05
2.61977e-07
-2.89178e-07
9.96725e-05
8.79926e-08
-2.90687e-07
0.000101597
3.63455e-08
-2.89167e-07
0.000100968
-1.09569e-08
-2.8993e-07
0.000100959
-5.2267e-08
-2.89762e-07
0.000100932
-8.9591e-08
-2.89491e-07
0.00010092
-1.24876e-07
-2.89008e-07
0.000100921
-1.5664e-07
-2.87214e-07
0.000100905
-3.33486e-07
-2.87456e-07
0.000101594
-2.82752e-07
9.94751e-05
2.60332e-07
9.76826e-05
8.67588e-08
9.95976e-05
3.58152e-08
9.89752e-05
-1.12717e-08
9.8964e-05
-5.20102e-08
9.89378e-05
-8.86373e-08
9.89264e-05
-1.23414e-07
9.89299e-05
-1.54128e-07
9.89201e-05
-3.29127e-07
9.96061e-05
9.75095e-05
2.7621e-07
2.81363e-07
9.71426e-05
1.00419e-07
2.8012e-07
9.95438e-05
4.99344e-08
2.75855e-07
9.87921e-05
4.12061e-09
2.72949e-07
9.8787e-05
-3.71347e-08
2.67783e-07
9.87721e-05
-7.56657e-08
2.61897e-07
9.87766e-05
-1.12811e-07
2.55701e-07
9.88e-05
-1.48048e-07
2.48166e-07
9.88107e-05
-3.10361e-07
2.45892e-07
9.96014e-05
2.31182e-07
9.715e-05
2.74877e-07
1.09153e-07
9.95537e-05
9.85185e-08
1.08116e-07
0.00010195
4.55967e-08
1.05957e-07
0.000101185
-1.82634e-09
1.03012e-07
0.00010117
-4.48434e-08
9.9345e-08
0.000101139
-8.46054e-08
9.48771e-08
0.000101123
-1.21942e-07
8.98347e-08
0.000101124
-1.57119e-07
8.46997e-08
0.000101109
-3.24161e-07
8.13093e-08
0.000101906
6.83354e-08
9.93687e-05
2.71129e-07
6.34371e-08
9.87957e-05
9.63637e-08
6.10452e-08
0.000101181
4.31915e-08
5.90274e-08
0.000100427
-5.04456e-09
5.54761e-08
0.000100415
-4.86077e-08
5.08733e-08
0.000100389
-8.86767e-08
4.5137e-08
0.00010038
-1.26194e-07
3.84418e-08
0.000100387
-1.60664e-07
3.12619e-08
0.00010038
-3.30438e-07
2.53207e-08
0.000101188
9.28926e-09
9.86444e-05
2.69549e-07
2.23247e-08
9.8789e-05
9.38181e-08
1.9823e-08
0.000101169
3.95155e-08
1.76702e-08
0.000100417
-9.90829e-09
1.40113e-08
0.000100404
-5.45809e-08
9.18918e-09
0.000100375
-9.5525e-08
3.14294e-09
0.000100363
-1.33458e-07
-3.97601e-09
0.000100367
-1.67702e-07
-1.17225e-08
0.000100355
-3.44644e-07
-1.82164e-08
0.000101173
-3.42144e-08
9.85805e-05
2.66866e-07
-1.47633e-08
9.87713e-05
9.13832e-08
-1.73253e-08
0.000101143
3.5869e-08
-1.91299e-08
0.000100394
-1.48388e-08
-2.2324e-08
0.000100379
-6.07485e-08
-2.65472e-08
0.000100349
-1.02719e-07
-3.17636e-08
0.000100333
-1.41187e-07
-3.77906e-08
0.000100332
-1.75347e-07
-4.42979e-08
0.000100315
-3.57748e-07
-4.96095e-08
0.000101142
-6.11333e-08
9.85033e-05
2.64816e-07
-5.04201e-08
9.87724e-05
8.92414e-08
-5.27773e-08
0.000101138
3.26877e-08
-5.40169e-08
0.00010039
-1.90895e-08
-5.63602e-08
0.000100375
-6.59889e-08
-5.94137e-08
0.000100343
-1.08736e-07
-6.3018e-08
0.000100325
-1.47552e-07
-6.69407e-08
0.000100321
-1.81453e-07
-7.09103e-08
0.000100299
-3.67566e-07
-7.37889e-08
0.000101133
-7.83929e-08
9.84612e-05
2.63614e-07
-8.74283e-08
9.87921e-05
8.76277e-08
-8.91348e-08
0.000101153
3.03528e-08
-8.99214e-08
0.000100407
-2.21016e-08
-9.1306e-08
0.000100391
-6.95382e-08
-9.30421e-08
0.000100358
-1.12585e-07
-9.48736e-08
0.000100339
-1.51308e-07
-9.65573e-08
0.000100334
-1.84683e-07
-9.79201e-08
0.000100311
-3.71806e-07
-9.82679e-08
0.000101148
-9.69805e-08
9.84646e-05
2.61848e-07
-1.2696e-07
9.88007e-05
8.67367e-08
-1.28947e-07
0.000101157
2.90177e-08
-1.28792e-07
0.000100413
-2.37673e-08
-1.29333e-07
0.000100397
-7.13383e-08
-1.29991e-07
0.000100363
-1.14263e-07
-1.3045e-07
0.000100344
-1.52556e-07
-1.30482e-07
0.000100339
-1.85408e-07
-1.30206e-07
0.000100317
-3.69527e-07
-1.29443e-07
0.000101154
-1.24138e-07
9.84802e-05
2.63739e-07
-2.99573e-07
9.95841e-05
8.69864e-08
-3.01425e-07
0.000101949
2.87059e-08
-2.99332e-07
0.0001012
-2.39535e-08
-3.00128e-07
0.000101185
-7.14267e-08
-2.99403e-07
0.000101152
-1.14073e-07
-2.98366e-07
0.000101133
-1.51818e-07
-2.96765e-07
0.000101127
-1.84485e-07
-2.92899e-07
0.000101104
-3.67212e-07
-2.9111e-07
0.000101942
-2.81252e-07
9.92676e-05
2.61631e-07
9.71234e-05
8.54436e-08
9.94742e-05
2.8171e-08
9.8735e-05
-2.40759e-08
9.87178e-05
-7.04653e-08
9.86865e-05
-1.11762e-07
9.8671e-05
-1.48389e-07
9.86715e-05
-1.79164e-07
9.86604e-05
-3.58196e-07
9.94964e-05
9.68714e-05
2.77122e-07
2.82402e-07
9.65863e-05
1.00963e-07
2.80401e-07
9.94427e-05
4.7505e-08
2.74743e-07
9.85739e-05
-5.45903e-10
2.70348e-07
9.85675e-05
-4.51015e-08
2.62772e-07
9.85564e-05
-8.66455e-08
2.54124e-07
9.85664e-05
-1.2593e-07
2.44924e-07
9.85963e-05
-1.62149e-07
2.34504e-07
9.86155e-05
-3.16836e-07
2.32249e-07
9.95284e-05
2.10774e-07
9.66247e-05
2.74953e-07
1.10393e-07
9.9454e-05
9.7926e-08
1.08684e-07
0.000102302
4.10725e-08
1.05649e-07
0.000101414
-9.43311e-09
1.01319e-07
0.000101393
-5.66559e-08
9.57561e-08
0.000101355
-1.002e-07
8.88862e-08
0.000101334
-1.39228e-07
8.09378e-08
0.000101329
-1.74852e-07
7.25894e-08
0.000101309
-3.3657e-07
6.70874e-08
0.000102236
4.41962e-08
9.92015e-05
2.70089e-07
6.24261e-08
9.85768e-05
9.49138e-08
5.89948e-08
0.000101409
3.75448e-08
5.60521e-08
0.000100537
-1.42314e-08
5.079e-08
0.000100521
-6.23626e-08
4.37739e-08
0.000100492
-1.0656e-07
3.47651e-08
0.00010048
-1.45942e-07
2.379e-08
0.000100486
-1.80803e-07
1.12835e-08
0.000100479
-3.48709e-07
2.58794e-10
0.000101426
-3.15076e-08
9.83741e-05
2.67692e-07
2.01448e-08
9.85668e-05
9.12008e-08
1.66306e-08
0.000101391
3.20525e-08
1.35242e-08
0.000100522
-2.17161e-08
8.12119e-09
0.000100503
-7.18451e-08
8.10571e-10
0.000100471
-1.17917e-07
-8.69366e-09
0.000100455
-1.58625e-07
-2.04292e-08
0.000100454
-1.94167e-07
-3.41271e-08
0.000100438
-3.76538e-07
-4.65104e-08
0.000101406
-7.84127e-08
9.82533e-05
2.63908e-07
-1.86927e-08
9.85495e-05
8.76428e-08
-2.2222e-08
0.000101362
2.66501e-08
-2.47739e-08
0.000100496
-2.92245e-08
-2.9399e-08
0.000100475
-8.15786e-08
-3.56453e-08
0.00010044
-1.29825e-07
-4.36423e-08
0.000100419
-1.72238e-07
-5.33264e-08
0.00010041
-2.08582e-07
-6.43877e-08
0.000100384
-4.03292e-07
-7.43008e-08
0.000101368
-9.57059e-08
9.81199e-05
2.61088e-07
-5.5721e-08
9.85515e-05
8.45873e-08
-5.88919e-08
0.000101354
2.20452e-08
-6.05678e-08
0.000100492
-3.55347e-08
-6.38212e-08
0.00010047
-8.96392e-08
-6.80897e-08
0.000100432
-1.39522e-07
-7.32436e-08
0.000100407
-1.83011e-07
-7.89755e-08
0.000100392
-2.19612e-07
-8.49597e-08
0.000100359
-4.21693e-07
-8.94999e-08
0.000101353
-9.57535e-08
9.80421e-05
2.59546e-07
-9.28008e-08
9.85727e-05
8.23959e-08
-9.49835e-08
0.00010137
1.88385e-08
-9.59513e-08
0.000100509
-3.9732e-08
-9.7715e-08
0.000100486
-9.46919e-08
-9.98364e-08
0.000100447
-1.45118e-07
-1.01975e-07
0.000100421
-1.8863e-07
-1.03647e-07
0.000100404
-2.24683e-07
-1.04598e-07
0.000100369
-4.2737e-07
-1.03369e-07
0.000101368
-9.71896e-08
9.8041e-05
2.57337e-07
-1.33117e-07
9.85865e-05
8.12358e-08
-1.35502e-07
0.000101376
1.71638e-08
-1.35203e-07
0.000100519
-4.17424e-08
-1.35735e-07
0.000100496
-9.67423e-08
-1.36209e-07
0.000100457
-1.46739e-07
-1.36171e-07
0.000100431
-1.89426e-07
-1.35215e-07
0.000100416
-2.23992e-07
-1.33022e-07
0.000100383
-4.19883e-07
-1.29906e-07
0.000101379
-1.17028e-07
9.80829e-05
2.59807e-07
-3.05548e-07
9.94997e-05
8.17049e-08
-3.07746e-07
0.000102302
1.70426e-08
-3.04992e-07
0.000101437
-4.15343e-08
-3.05574e-07
0.000101416
-9.61381e-08
-3.03848e-07
0.000101376
-1.45403e-07
-3.01307e-07
0.000101349
-1.86586e-07
-2.97351e-07
0.000101333
-2.20457e-07
-2.89575e-07
0.000101296
-4.10846e-07
-2.84117e-07
0.00010229
-2.63099e-07
9.9006e-05
2.5716e-07
9.65624e-05
7.99059e-08
9.93455e-05
1.6697e-08
9.84949e-05
-4.10465e-08
9.84716e-05
-9.36975e-08
9.84368e-05
-1.40391e-07
9.84178e-05
-1.7945e-07
9.84147e-05
-2.10109e-07
9.84033e-05
-3.91646e-07
9.93968e-05
9.62187e-05
2.75391e-07
2.8026e-07
9.60339e-05
1.00034e-07
2.77151e-07
9.9344e-05
4.42409e-08
2.69843e-07
9.83625e-05
-5.49861e-09
2.6338e-07
9.83559e-05
-5.25391e-08
2.5264e-07
9.83522e-05
-9.75177e-08
2.40259e-07
9.83716e-05
-1.40281e-07
2.27498e-07
9.84122e-05
-1.80774e-07
2.14218e-07
9.84425e-05
-3.25374e-07
2.15971e-07
9.94584e-05
1.94327e-07
9.6106e-05
2.71982e-07
1.09526e-07
9.9356e-05
9.53337e-08
1.06826e-07
0.000102652
3.49205e-08
1.02646e-07
0.000101645
-1.84847e-08
9.64031e-08
0.000101615
-6.95032e-08
8.81616e-08
0.000101573
-1.17049e-07
7.77384e-08
0.000101545
-1.58817e-07
6.55284e-08
0.000101533
-1.95575e-07
5.23817e-08
0.000101508
-3.43961e-07
4.42203e-08
0.000102559
4.9455e-09
9.90476e-05
2.6585e-07
5.96983e-08
9.8364e-05
9.12143e-08
5.48962e-08
0.000101639
2.98563e-08
5.06908e-08
0.000100653
-2.54763e-08
4.30468e-08
0.000100632
-7.80657e-08
3.25377e-08
0.000100602
-1.26761e-07
1.85256e-08
0.000100589
-1.6913e-07
7.08708e-10
0.000100594
-2.04414e-07
-2.08389e-08
0.000100589
-3.63364e-07
-4.15952e-08
0.000101673
-1.0403e-07
9.81207e-05
2.62288e-07
1.66655e-08
9.83508e-05
8.58972e-08
1.18234e-08
0.000101614
2.18025e-08
7.44188e-09
0.000100632
-3.67954e-08
-3.68738e-10
0.000100608
-9.2988e-08
-1.12717e-08
0.000100573
-1.45422e-07
-2.60516e-08
0.000100553
-1.9116e-07
-4.52957e-08
0.000100546
-2.28884e-07
-6.9317e-08
0.000100526
-4.17201e-07
-9.44931e-08
0.00010165
-1.6049e-07
9.78943e-05
2.57123e-07
-2.3109e-08
9.83352e-05
8.08165e-08
-2.78395e-08
0.000101581
1.39495e-08
-3.1369e-08
0.000100604
-4.80616e-08
-3.79092e-08
0.000100578
-1.08219e-07
-4.69794e-08
0.000100538
-1.65044e-07
-5.90848e-08
0.00010051
-2.14997e-07
-7.45264e-08
0.000100491
-2.5673e-07
-9.37558e-08
0.000100452
-4.73923e-07
-1.13762e-07
0.000101608
-1.58487e-07
9.76459e-05
2.53335e-07
-6.06522e-08
9.83388e-05
7.65646e-08
-6.47559e-08
0.000101571
7.42765e-09
-6.69647e-08
0.000100599
-5.72705e-08
-7.13374e-08
0.00010057
-1.20474e-07
-7.71299e-08
0.000100527
-1.80564e-07
-8.42785e-08
0.000100494
-2.3387e-07
-9.24718e-08
0.000100465
-2.78968e-07
-1.01442e-07
0.000100414
-5.13658e-07
-1.08345e-07
0.000101586
-1.1697e-07
9.74892e-05
2.51374e-07
-9.72863e-08
9.83609e-05
7.36848e-08
-9.99621e-08
0.000101585
3.16435e-09
-1.01088e-07
0.000100616
-6.29395e-08
-1.03197e-07
0.000100587
-1.27421e-07
-1.05574e-07
0.000100542
-1.88483e-07
-1.07683e-07
0.000100507
-2.42168e-07
-1.08668e-07
0.000100476
-2.86483e-07
-1.075e-07
0.000100422
-5.20184e-07
-1.01356e-07
0.000101597
-7.83917e-08
9.74851e-05
2.48777e-07
-1.37721e-07
9.8381e-05
7.22786e-08
-1.40501e-07
0.000101596
1.2166e-09
-1.40006e-07
0.000100631
-6.51195e-08
-1.40384e-07
0.000100602
-1.29298e-07
-1.40322e-07
0.000100558
-1.89282e-07
-1.39135e-07
0.000100524
-2.40655e-07
-1.3584e-07
0.000100496
-2.81198e-07
-1.29845e-07
0.000100448
-4.96021e-07
-1.19663e-07
0.000101617
-8.67613e-08
9.75978e-05
2.51778e-07
-3.09004e-07
9.94218e-05
7.30249e-08
-3.11286e-07
0.000102654
1.47698e-09
-3.07719e-07
0.000101679
-6.41238e-08
-3.07718e-07
0.000101651
-1.27285e-07
-3.04354e-07
0.000101605
-1.85436e-07
-2.9916e-07
0.000101569
-2.33866e-07
-2.90995e-07
0.000101538
-2.70887e-07
-2.76335e-07
0.000101483
-4.69464e-07
-2.63299e-07
0.000102636
-2.22382e-07
9.8675e-05
2.48816e-07
9.60067e-05
7.12009e-08
9.92137e-05
1.67357e-09
9.82583e-05
-6.23329e-08
9.82293e-05
-1.2209e-07
9.81934e-05
-1.75665e-07
9.81733e-05
-2.19367e-07
9.81689e-05
-2.51092e-07
9.81608e-05
-4.32784e-07
9.93179e-05
9.55631e-05
2.72439e-07
2.76225e-07
9.54884e-05
9.88133e-08
2.71681e-07
9.92489e-05
4.12698e-08
2.62487e-07
9.81602e-05
-9.44302e-09
2.53331e-07
9.81554e-05
-5.81052e-08
2.38608e-07
9.81634e-05
-1.05819e-07
2.21637e-07
9.81981e-05
-1.56009e-07
2.0476e-07
9.82562e-05
-2.11756e-07
1.90991e-07
9.83044e-05
-3.59201e-07
2.09248e-07
9.93911e-05
2.17732e-07
9.55212e-05
2.67384e-07
1.07497e-07
9.92605e-05
9.18498e-08
1.03461e-07
0.000102998
2.81301e-08
9.78539e-08
0.000101876
-2.7927e-08
8.90717e-08
0.000101838
-8.21567e-08
7.71125e-08
0.00010179
-1.32943e-07
6.16188e-08
0.000101756
-1.78686e-07
4.29366e-08
0.00010174
-2.20048e-07
2.27487e-08
0.000101716
-3.43324e-07
1.19377e-08
0.000102874
-4.65071e-08
9.89619e-05
2.59864e-07
5.59045e-08
9.8159e-05
8.63711e-08
4.93565e-08
0.000101869
2.10692e-08
4.35054e-08
0.000100776
-3.79074e-08
3.26436e-08
0.000100749
-9.47726e-08
1.71747e-08
0.000100721
-1.4774e-07
-4.33563e-09
0.000100709
-1.94176e-07
-3.32129e-08
0.000100717
-2.32811e-07
-7.06687e-08
0.00010072
-3.77249e-07
-1.09099e-07
0.000101935
-2.36311e-07
9.79286e-05
2.54745e-07
1.22334e-08
9.81429e-05
7.89208e-08
5.70764e-09
0.000101836
9.49455e-09
-3.1958e-10
0.000100748
-5.47624e-08
-1.13561e-08
0.000100718
-1.18026e-07
-2.73065e-08
0.000100683
-1.78514e-07
-4.99766e-08
0.000100661
-2.32805e-07
-8.13128e-08
0.00010065
-2.80721e-07
-1.23808e-07
0.000100627
-4.93356e-07
-1.71697e-07
0.000101924
-3.08547e-07
9.74705e-05
2.47902e-07
-2.79672e-08
9.81307e-05
7.18421e-08
-3.41421e-08
0.0001018
-1.69147e-09
-3.89037e-08
0.000100719
-7.13823e-08
-4.79182e-08
0.000100686
-1.41619e-07
-6.07897e-08
0.000100644
-2.1085e-07
-7.87698e-08
0.000100611
-2.75165e-07
-1.0324e-07
0.000100579
-3.33698e-07
-1.36269e-07
0.000100525
-6.1324e-07
-1.74479e-07
0.00010189
-2.6666e-07
9.69907e-05
2.42942e-07
-6.5453e-08