/*--------------------------------*- C++ -*----------------------------------*\
  =========                 |
  \\      /  F ield         | OpenFOAM: The Open Source CFD Toolbox
   \\    /   O peration     | Website:  https://openfoam.org
    \\  /    A nd           | Version:  6
     \\/     M anipulation  |
\*---------------------------------------------------------------------------*/
FoamFile
{
    version     2.0;
    format      ascii;
    class       volScalarField;
    location    "0.715";
    object      T;
}
// * * * * * * * * * * * * * * * * * * * * * * * * * * * * * * * * * * * * * //

dimensions      [0 0 0 1 0 0 0];

internalField   nonuniform List<scalar> 
7000
(
106.228
106.226
106.222
106.217
106.21
106.203
106.196
106.189
106.184
106.182
106.228
106.226
106.222
106.217
106.21
106.203
106.196
106.189
106.184
106.182
106.228
106.226
106.222
106.217
106.21
106.203
106.196
106.189
106.184
106.182
106.228
106.226
106.222
106.217
106.21
106.203
106.196
106.189
106.184
106.182
106.228
106.226
106.222
106.217
106.21
106.203
106.196
106.189
106.184
106.182
106.228
106.226
106.222
106.217
106.21
106.203
106.196
106.189
106.184
106.182
106.228
106.226
106.222
106.217
106.21
106.203
106.196
106.189
106.184
106.182
106.228
106.226
106.222
106.217
106.21
106.203
106.196
106.189
106.184
106.182
106.228
106.226
106.222
106.217
106.21
106.203
106.196
106.189
106.184
106.182
106.228
106.226
106.222
106.217
106.21
106.203
106.196
106.189
106.184
106.182
98.7107
98.7045
98.6927
98.676
98.6555
98.6331
98.6109
98.5911
98.5762
98.5682
98.7106
98.7045
98.6927
98.6759
98.6555
98.6331
98.6109
98.5911
98.5762
98.5682
98.7106
98.7045
98.6927
98.6759
98.6555
98.6331
98.6108
98.5911
98.5762
98.5682
98.7106
98.7045
98.6927
98.6759
98.6555
98.6331
98.6108
98.5911
98.5762
98.5682
98.7106
98.7045
98.6927
98.6759
98.6555
98.6331
98.6108
98.5911
98.5762
98.5682
98.7106
98.7045
98.6927
98.6759
98.6555
98.6331
98.6108
98.5911
98.5762
98.5682
98.7106
98.7045
98.6927
98.6759
98.6555
98.6331
98.6108
98.5911
98.5762
98.5682
98.7106
98.7045
98.6927
98.6759
98.6555
98.6331
98.6108
98.5911
98.5762
98.5682
98.7106
98.7045
98.6927
98.6759
98.6555
98.6331
98.6108
98.5911
98.5762
98.5682
98.7106
98.7045
98.6927
98.6759
98.6555
98.6331
98.6109
98.5911
98.5762
98.5682
91.2721
91.2616
91.2412
91.2122
91.1767
91.1374
91.0981
91.0629
91.0362
91.0217
91.2721
91.2616
91.2412
91.2122
91.1766
91.1374
91.0981
91.0628
91.0361
91.0217
91.2721
91.2615
91.2411
91.2122
91.1766
91.1374
91.098
91.0628
91.0361
91.0217
91.2721
91.2615
91.2411
91.2122
91.1766
91.1374
91.098
91.0628
91.0361
91.0217
91.272
91.2615
91.2411
91.2121
91.1766
91.1374
91.098
91.0628
91.0361
91.0217
91.272
91.2615
91.2411
91.2121
91.1766
91.1374
91.098
91.0628
91.0361
91.0217
91.272
91.2615
91.2411
91.2121
91.1766
91.1374
91.098
91.0628
91.0361
91.0217
91.272
91.2615
91.2411
91.2122
91.1766
91.1374
91.098
91.0628
91.0361
91.0217
91.2721
91.2615
91.2411
91.2122
91.1766
91.1374
91.098
91.0628
91.0361
91.0217
91.2721
91.2615
91.2412
91.2122
91.1766
91.1374
91.0981
91.0629
91.0361
91.0217
83.9638
83.9484
83.9185
83.8758
83.8229
83.7638
83.7039
83.6495
83.6077
83.5848
83.9638
83.9484
83.9185
83.8757
83.8229
83.7638
83.7039
83.6495
83.6077
83.5848
83.9637
83.9484
83.9185
83.8757
83.8228
83.7638
83.7039
83.6495
83.6076
83.5848
83.9637
83.9483
83.9184
83.8757
83.8228
83.7638
83.7038
83.6494
83.6076
83.5848
83.9637
83.9483
83.9184
83.8757
83.8228
83.7638
83.7038
83.6494
83.6076
83.5848
83.9637
83.9483
83.9184
83.8757
83.8228
83.7638
83.7038
83.6494
83.6076
83.5848
83.9637
83.9483
83.9184
83.8757
83.8228
83.7638
83.7038
83.6494
83.6076
83.5848
83.9637
83.9483
83.9184
83.8757
83.8228
83.7638
83.7038
83.6494
83.6076
83.5848
83.9637
83.9484
83.9185
83.8757
83.8228
83.7638
83.7039
83.6495
83.6076
83.5848
83.9637
83.9484
83.9185
83.8757
83.8229
83.7638
83.7039
83.6495
83.6077
83.5848
76.8352
76.8145
76.7739
76.7154
76.6423
76.5592
76.4734
76.3938
76.3312
76.2965
76.8352
76.8145
76.7739
76.7154
76.6422
76.5592
76.4733
76.3937
76.3312
76.2964
76.8352
76.8144
76.7739
76.7154
76.6422
76.5592
76.4733
76.3937
76.3312
76.2964
76.8352
76.8144
76.7738
76.7154
76.6422
76.5592
76.4733
76.3937
76.3312
76.2964
76.8352
76.8144
76.7738
76.7154
76.6422
76.5592
76.4733
76.3937
76.3312
76.2964
76.8352
76.8144
76.7738
76.7153
76.6422
76.5592
76.4733
76.3937
76.3312
76.2964
76.8352
76.8144
76.7738
76.7154
76.6422
76.5592
76.4733
76.3937
76.3312
76.2964
76.8352
76.8144
76.7738
76.7154
76.6422
76.5592
76.4733
76.3937
76.3312
76.2964
76.8352
76.8144
76.7739
76.7154
76.6422
76.5592
76.4733
76.3937
76.3312
76.2964
76.8352
76.8145
76.7739
76.7154
76.6422
76.5592
76.4733
76.3937
76.3312
76.2965
69.9335
69.9069
69.8545
69.7782
69.6812
69.569
69.4497
69.3356
69.243
69.19
69.9334
69.9068
69.8545
69.7782
69.6812
69.5689
69.4496
69.3356
69.243
69.19
69.9334
69.9068
69.8544
69.7781
69.6812
69.5689
69.4496
69.3356
69.243
69.1899
69.9334
69.9068
69.8544
69.7781
69.6811
69.5689
69.4496
69.3355
69.243
69.1899
69.9334
69.9068
69.8544
69.7781
69.6811
69.5688
69.4496
69.3355
69.2429
69.1899
69.9334
69.9068
69.8544
69.7781
69.6811
69.5688
69.4496
69.3355
69.2429
69.1899
69.9334
69.9068
69.8544
69.7781
69.6811
69.5689
69.4496
69.3355
69.243
69.1899
69.9334
69.9068
69.8544
69.7781
69.6812
69.5689
69.4496
69.3356
69.243
69.1899
69.9334
69.9068
69.8544
69.7781
69.6812
69.5689
69.4496
69.3356
69.243
69.19
69.9334
69.9068
69.8545
69.7782
69.6812
69.5689
69.4497
69.3356
69.243
69.19
63.3022
63.2694
63.2045
63.1088
62.9847
62.8372
62.6748
62.5126
62.3738
62.2901
63.3021
63.2694
63.2045
63.1087
62.9847
62.8371
62.6748
62.5125
62.3737
62.29
63.3021
63.2693
63.2044
63.1087
62.9846
62.8371
62.6748
62.5125
62.3737
62.29
63.3021
63.2693
63.2044
63.1087
62.9846
62.8371
62.6747
62.5125
62.3737
62.29
63.3021
63.2693
63.2044
63.1086
62.9846
62.8371
62.6747
62.5124
62.3737
62.29
63.3021
63.2693
63.2044
63.1086
62.9846
62.8371
62.6747
62.5124
62.3737
62.29
63.3021
63.2693
63.2044
63.1086
62.9846
62.8371
62.6747
62.5124
62.3737
62.29
63.3021
63.2693
63.2044
63.1087
62.9846
62.8371
62.6748
62.5125
62.3737
62.29
63.3021
63.2694
63.2045
63.1087
62.9846
62.8371
62.6748
62.5125
62.3737
62.29
63.3021
63.2694
63.2045
63.1087
62.9847
62.8372
62.6748
62.5125
62.3738
62.2901
56.9809
56.9422
56.865
56.7493
56.5962
56.4082
56.1916
55.9613
55.748
55.6068
56.9809
56.9422
56.8649
56.7493
56.5962
56.4081
56.1916
55.9613
55.7479
55.6067
56.9808
56.9422
56.8649
56.7492
56.5961
56.4081
56.1915
55.9612
55.7479
55.6067
56.9808
56.9421
56.8648
56.7492
56.5961
56.4081
56.1915
55.9612
55.7479
55.6067
56.9808
56.9421
56.8648
56.7492
56.5961
56.4081
56.1915
55.9612
55.7478
55.6067
56.9808
56.9421
56.8648
56.7492
56.5961
56.4081
56.1915
55.9612
55.7478
55.6067
56.9808
56.9421
56.8648
56.7492
56.5961
56.4081
56.1915
55.9612
55.7478
55.6067
56.9808
56.9421
56.8649
56.7492
56.5961
56.4081
56.1915
55.9612
55.7479
55.6067
56.9808
56.9422
56.8649
56.7493
56.5961
56.4081
56.1916
55.9612
55.7479
55.6067
56.9809
56.9422
56.8649
56.7493
56.5962
56.4082
56.1916
55.9613
55.748
55.6068
51.0043
50.9606
50.8726
50.7391
50.5582
50.3279
50.0478
49.7243
49.3862
49.1218
51.0042
50.9605
50.8725
50.739
50.5581
50.3278
50.0477
49.7242
49.3862
49.1217
51.0042
50.9605
50.8725
50.739
50.5581
50.3278
50.0477
49.7242
49.3861
49.1217
51.0041
50.9604
50.8725
50.7389
50.5581
50.3278
50.0477
49.7241
49.3861
49.1217
51.0041
50.9604
50.8724
50.7389
50.558
50.3278
50.0476
49.7241
49.3861
49.1217
51.0041
50.9604
50.8724
50.7389
50.558
50.3278
50.0476
49.7241
49.3861
49.1217
51.0041
50.9604
50.8724
50.7389
50.558
50.3278
50.0476
49.7241
49.3861
49.1217
51.0041
50.9604
50.8725
50.739
50.5581
50.3278
50.0477
49.7242
49.3861
49.1217
51.0042
50.9605
50.8725
50.739
50.5581
50.3278
50.0477
49.7242
49.3862
49.1217
51.0042
50.9605
50.8725
50.739
50.5581
50.3279
50.0478
49.7242
49.3862
49.1218
45.4006
45.3537
45.2587
45.1128
44.9112
44.6455
44.3028
43.8657
43.3233
42.7508
45.4005
45.3536
45.2586
45.1128
44.9111
44.6454
44.3028
43.8656
43.3232
42.7508
45.4005
45.3536
45.2586
45.1127
44.9111
44.6454
44.3027
43.8656
43.3232
42.7507
45.4004
45.3535
45.2586
45.1127
44.9111
44.6453
44.3027
43.8655
43.3231
42.7507
45.4004
45.3535
45.2585
45.1127
44.911
44.6453
44.3027
43.8655
43.3231
42.7507
45.4004
45.3535
45.2585
45.1127
44.911
44.6453
44.3027
43.8655
43.3231
42.7507
45.4004
45.3535
45.2586
45.1127
44.911
44.6453
44.3027
43.8655
43.3231
42.7507
45.4004
45.3536
45.2586
45.1127
44.9111
44.6454
44.3027
43.8656
43.3232
42.7507
45.4005
45.3536
45.2586
45.1128
44.9111
44.6454
44.3028
43.8656
43.3232
42.7507
45.4005
45.3536
45.2587
45.1128
44.9112
44.6454
44.3028
43.8657
43.3233
42.7508
40.191
40.1436
40.0474
39.8988
39.6909
39.4108
39.0334
38.5057
37.6977
36.2278
40.1909
40.1436
40.0473
39.8987
39.6908
39.4107
39.0334
38.5056
37.6976
36.2277
40.1909
40.1435
40.0473
39.8987
39.6908
39.4107
39.0333
38.5055
37.6975
36.2276
40.1909
40.1435
40.0473
39.8986
39.6907
39.4106
39.0333
38.5055
37.6975
36.2276
40.1908
40.1435
40.0472
39.8986
39.6907
39.4106
39.0333
38.5055
37.6975
36.2276
40.1908
40.1435
40.0472
39.8986
39.6907
39.4106
39.0333
38.5055
37.6975
36.2276
40.1908
40.1435
40.0473
39.8986
39.6907
39.4106
39.0333
38.5055
37.6975
36.2276
40.1909
40.1435
40.0473
39.8987
39.6907
39.4107
39.0333
38.5055
37.6975
36.2276
40.1909
40.1435
40.0473
39.8987
39.6908
39.4107
39.0333
38.5056
37.6976
36.2277
40.1909
40.1436
40.0474
39.8987
39.6908
39.4107
39.0334
38.5056
37.6976
36.2277
35.3884
35.3438
35.2535
35.1144
34.9208
34.6614
34.3156
33.8438
33.174
32.1963
35.3884
35.3438
35.2534
35.1143
34.9207
34.6614
34.3155
33.8437
33.1739
32.1962
35.3883
35.3437
35.2534
35.1143
34.9206
34.6613
34.3155
33.8437
33.1739
32.1962
35.3883
35.3437
35.2534
35.1143
34.9206
34.6613
34.3154
33.8436
33.1739
32.1961
35.3883
35.3437
35.2533
35.1143
34.9206
34.6613
34.3154
33.8436
33.1738
32.1961
35.3883
35.3437
35.2533
35.1143
34.9206
34.6613
34.3154
33.8436
33.1738
32.1961
35.3883
35.3437
35.2534
35.1143
34.9206
34.6613
34.3154
33.8436
33.1738
32.1961
35.3883
35.3437
35.2534
35.1143
34.9206
34.6613
34.3155
33.8436
33.1739
32.1961
35.3884
35.3438
35.2534
35.1143
34.9207
34.6614
34.3155
33.8437
33.1739
32.1962
35.3884
35.3438
35.2535
35.1144
34.9207
34.6614
34.3156
33.8437
33.174
32.1963
30.9972
30.9586
30.881
30.7636
30.604
30.3981
30.1383
29.8141
29.4184
28.9775
30.9971
30.9585
30.881
30.7635
30.604
30.398
30.1382
29.8141
29.4183
28.9774
30.9971
30.9585
30.8809
30.7635
30.6039
30.398
30.1382
29.814
29.4183
28.9773
30.997
30.9584
30.8809
30.7635
30.6039
30.3979
30.1381
29.814
29.4182
28.9773
30.997
30.9584
30.8809
30.7634
30.6039
30.3979
30.1381
29.814
29.4182
28.9773
30.997
30.9584
30.8809
30.7634
30.6039
30.3979
30.1381
29.814
29.4182
28.9773
30.997
30.9584
30.8809
30.7634
30.6039
30.3979
30.1381
29.814
29.4182
28.9773
30.9971
30.9584
30.8809
30.7635
30.6039
30.398
30.1382
29.814
29.4183
28.9773
30.9971
30.9585
30.881
30.7635
30.604
30.398
30.1382
29.8141
29.4183
28.9774
30.9971
30.9585
30.881
30.7636
30.604
30.3981
30.1383
29.8141
29.4184
28.9774
27.0129
26.9828
26.9236
26.8368
26.7253
26.593
26.4466
26.2986
26.1774
26.1482
27.0129
26.9828
26.9235
26.8368
26.7253
26.593
26.4465
26.2986
26.1773
26.1482
27.0128
26.9827
26.9235
26.8367
26.7252
26.5929
26.4465
26.2985
26.1773
26.1481
27.0128
26.9827
26.9234
26.8367
26.7252
26.5929
26.4464
26.2985
26.1772
26.1481
27.0128
26.9827
26.9234
26.8367
26.7252
26.5929
26.4464
26.2985
26.1772
26.148
27.0128
26.9827
26.9234
26.8367
26.7252
26.5929
26.4464
26.2985
26.1772
26.148
27.0128
26.9827
26.9234
26.8367
26.7252
26.5929
26.4464
26.2985
26.1772
26.1481
27.0128
26.9827
26.9235
26.8367
26.7252
26.5929
26.4465
26.2985
26.1773
26.1481
27.0129
26.9828
26.9235
26.8368
26.7252
26.593
26.4465
26.2986
26.1773
26.1481
27.0129
26.9828
26.9236
26.8368
26.7253
26.593
26.4466
26.2986
26.1774
26.1482
23.4241
23.404
23.3659
23.3146
23.2574
23.2059
23.1777
23.1999
23.3151
23.5909
23.424
23.4039
23.3659
23.3145
23.2573
23.2059
23.1777
23.1998
23.3151
23.5908
23.424
23.4039
23.3659
23.3145
23.2573
23.2058
23.1776
23.1998
23.315
23.5908
23.4239
23.4038
23.3658
23.3145
23.2573
23.2058
23.1776
23.1998
23.315
23.5907
23.4239
23.4038
23.3658
23.3144
23.2572
23.2058
23.1776
23.1997
23.315
23.5907
23.4239
23.4038
23.3658
23.3144
23.2572
23.2058
23.1776
23.1997
23.315
23.5907
23.4239
23.4038
23.3658
23.3145
23.2573
23.2058
23.1776
23.1998
23.315
23.5907
23.424
23.4038
23.3658
23.3145
23.2573
23.2058
23.1776
23.1998
23.315
23.5908
23.424
23.4039
23.3659
23.3145
23.2573
23.2059
23.1777
23.1998
23.3151
23.5908
23.424
23.4039
23.3659
23.3146
23.2574
23.2059
23.1777
23.1999
23.3151
23.5909
20.2129
20.2031
20.1867
20.1708
20.1671
20.193
20.2742
20.4464
20.7581
21.2699
20.2129
20.203
20.1866
20.1708
20.167
20.1929
20.2741
20.4464
20.7581
21.2698
20.2128
20.203
20.1866
20.1707
20.167
20.1929
20.2741
20.4463
20.758
21.2698
20.2128
20.2029
20.1866
20.1707
20.1669
20.1929
20.274
20.4463
20.758
21.2697
20.2128
20.2029
20.1866
20.1707
20.1669
20.1929
20.274
20.4463
20.758
21.2697
20.2128
20.2029
20.1865
20.1707
20.1669
20.1929
20.274
20.4463
20.758
21.2697
20.2128
20.2029
20.1866
20.1707
20.1669
20.1929
20.274
20.4463
20.758
21.2697
20.2128
20.203
20.1866
20.1707
20.167
20.1929
20.2741
20.4463
20.758
21.2698
20.2129
20.203
20.1866
20.1708
20.167
20.1929
20.2741
20.4464
20.7581
21.2698
20.2129
20.203
20.1867
20.1708
20.1671
20.193
20.2742
20.4464
20.7581
21.2699
17.3577
17.3572
17.3604
17.3762
17.4191
17.5113
17.6843
17.9812
18.4566
19.1688
17.3577
17.3572
17.3604
17.3761
17.4191
17.5112
17.6842
17.9812
18.4565
19.1688
17.3576
17.3571
17.3603
17.3761
17.419
17.5112
17.6842
17.9811
18.4565
19.1687
17.3576
17.3571
17.3603
17.3761
17.419
17.5112
17.6841
17.9811
18.4564
19.1687
17.3576
17.3571
17.3603
17.376
17.419
17.5111
17.6841
17.9811
18.4564
19.1687
17.3576
17.3571
17.3603
17.376
17.419
17.5111
17.6841
17.9811
18.4564
19.1687
17.3576
17.3571
17.3603
17.3761
17.419
17.5112
17.6841
17.9811
18.4564
19.1687
17.3576
17.3571
17.3603
17.3761
17.419
17.5112
17.6842
17.9811
18.4565
19.1687
17.3577
17.3572
17.3604
17.3761
17.4191
17.5112
17.6842
17.9812
18.4565
19.1688
17.3577
17.3572
17.3604
17.3762
17.4191
17.5113
17.6843
17.9812
18.4566
19.1688
14.8342
14.8412
14.86
14.9005
14.9788
15.1198
15.3597
15.7499
16.3586
17.2623
14.8341
14.8412
14.86
14.9004
14.9787
15.1197
15.3596
15.7498
16.3586
17.2622
14.8341
14.8411
14.86
14.9004
14.9787
15.1197
15.3596
15.7498
16.3585
17.2622
14.8341
14.8411
14.8599
14.9004
14.9787
15.1196
15.3596
15.7498
16.3585
17.2621
14.8341
14.8411
14.8599
14.9003
14.9786
15.1196
15.3596
15.7497
16.3585
17.2621
14.8341
14.8411
14.8599
14.9003
14.9786
15.1196
15.3596
15.7497
16.3585
17.2621
14.8341
14.8411
14.8599
14.9004
14.9787
15.1196
15.3596
15.7498
16.3585
17.2621
14.8341
14.8411
14.86
14.9004
14.9787
15.1197
15.3596
15.7498
16.3585
17.2622
14.8341
14.8412
14.86
14.9004
14.9787
15.1197
15.3596
15.7498
16.3586
17.2622
14.8341
14.8412
14.86
14.9005
14.9788
15.1198
15.3597
15.7499
16.3586
17.2623
12.617
12.6294
12.6587
12.7148
12.8139
12.9811
13.2544
13.6922
14.3865
15.4787
12.617
12.6293
12.6586
12.7147
12.8139
12.9811
13.2544
13.6921
14.3865
15.4786
12.617
12.6293
12.6586
12.7147
12.8138
12.9811
13.2543
13.6921
14.3864
15.4786
12.617
12.6293
12.6586
12.7147
12.8138
12.981
13.2543
13.6921
14.3864
15.4786
12.6169
12.6293
12.6586
12.7146
12.8138
12.981
13.2543
13.692
14.3864
15.4786
12.6169
12.6293
12.6586
12.7146
12.8138
12.981
13.2543
13.692
14.3864
15.4786
12.6169
12.6293
12.6586
12.7147
12.8138
12.981
13.2543
13.6921
14.3864
15.4786
12.617
12.6293
12.6586
12.7147
12.8138
12.9811
13.2543
13.6921
14.3864
15.4786
12.617
12.6293
12.6586
12.7147
12.8139
12.9811
13.2544
13.6921
14.3865
15.4787
12.617
12.6294
12.6587
12.7148
12.8139
12.9812
13.2544
13.6922
14.3865
15.4787
10.6815
10.6966
10.731
10.7933
10.8978
11.066
11.3307
11.7452
12.4119
13.5874
10.6815
10.6966
10.7309
10.7932
10.8977
11.0659
11.3307
11.7452
12.4118
13.5873
10.6815
10.6965
10.7309
10.7932
10.8977
11.0659
11.3306
11.7451
12.4118
13.5873
10.6814
10.6965
10.7309
10.7932
10.8977
11.0659
11.3306
11.7451
12.4118
13.5873
10.6814
10.6965
10.7309
10.7932
10.8977
11.0659
11.3306
11.7451
12.4118
13.5872
10.6814
10.6965
10.7309
10.7932
10.8977
11.0659
11.3306
11.7451
12.4118
13.5872
10.6814
10.6965
10.7309
10.7932
10.8977
11.0659
11.3306
11.7451
12.4118
13.5873
10.6815
10.6965
10.7309
10.7932
10.8977
11.0659
11.3306
11.7451
12.4118
13.5873
10.6815
10.6966
10.7309
10.7932
10.8977
11.066
11.3307
11.7452
12.4118
13.5873
10.6815
10.6966
10.731
10.7933
10.8978
11.066
11.3307
11.7452
12.4119
13.5874
32.739
31.6227
32.1596
34.1183
37.4831
42.3786
49.071
58.0326
70.1184
87.0377
32.7389
31.6226
32.1595
34.1182
37.483
42.3785
49.0709
58.0325
70.1183
87.0375
32.7389
31.6225
32.1594
34.1181
37.4829
42.3784
49.0708
58.0324
70.1182
87.0374
32.7388
31.6225
32.1594
34.118
37.4828
42.3783
49.0707
58.0323
70.1181
87.0373
32.7388
31.6225
32.1594
34.118
37.4828
42.3783
49.0707
58.0323
70.1181
87.0373
32.7388
31.6225
32.1594
34.118
37.4828
42.3783
49.0707
58.0323
70.1181
87.0373
32.7388
31.6225
32.1594
34.118
37.4828
42.3783
49.0707
58.0323
70.1181
87.0373
32.7389
31.6225
32.1594
34.118
37.4829
42.3783
49.0707
58.0324
70.1181
87.0374
32.7389
31.6226
32.1595
34.1181
37.4829
42.3784
49.0708
58.0324
70.1182
87.0375
32.739
31.6226
32.1595
34.1182
37.483
42.3785
49.0709
58.0325
70.1183
87.0376
30.9003
30.556
31.3746
33.3982
36.6879
41.3666
47.6357
55.7906
66.2133
79.2187
30.9002
30.5559
31.3745
33.3981
36.6878
41.3664
47.6355
55.7904
66.2132
79.2185
30.9001
30.5559
31.3744
33.398
36.6877
41.3663
47.6354
55.7903
66.213
79.2184
30.9001
30.5558
31.3744
33.3979
36.6877
41.3663
47.6354
55.7903
66.213
79.2184
30.9001
30.5558
31.3744
33.3979
36.6876
41.3663
47.6353
55.7902
66.2129
79.2183
30.9001
30.5558
31.3744
33.3979
36.6876
41.3662
47.6353
55.7902
66.2129
79.2183
30.9001
30.5558
31.3744
33.3979
36.6877
41.3663
47.6354
55.7902
66.213
79.2183
30.9001
30.5558
31.3744
33.398
36.6877
41.3663
47.6354
55.7903
66.213
79.2184
30.9002
30.5559
31.3745
33.398
36.6878
41.3664
47.6355
55.7904
66.2131
79.2185
30.9002
30.556
31.3746
33.3981
36.6879
41.3665
47.6356
55.7905
66.2132
79.2186
28.6499
28.9142
30.0203
32.0959
35.2365
39.5454
45.1443
52.1578
60.6482
70.4309
28.6498
28.9141
30.0202
32.0958
35.2364
39.5453
45.1442
52.1576
60.648
70.4308
28.6497
28.914
30.0201
32.0957
35.2363
39.5452
45.1441
52.1575
60.6479
70.4306
28.6497
28.914
30.0201
32.0957
35.2363
39.5451
45.144
52.1575
60.6479
70.4306
28.6497
28.9139
30.0201
32.0956
35.2362
39.5451
45.144
52.1574
60.6478
70.4305
28.6497
28.9139
30.02
32.0956
35.2362
39.5451
45.144
52.1574
60.6478
70.4305
28.6497
28.914
30.0201
32.0957
35.2362
39.5451
45.144
52.1574
60.6479
70.4306
28.6497
28.914
30.0201
32.0957
35.2363
39.5452
45.144
52.1575
60.6479
70.4306
28.6498
28.9141
30.0202
32.0958
35.2364
39.5452
45.1441
52.1576
60.648
70.4307
28.6498
28.9141
30.0203
32.0959
35.2365
39.5454
45.1442
52.1577
60.6481
70.4309
26.3507
27.0173
28.329
30.4079
33.3434
37.2085
42.0596
47.9154
54.7022
62.1554
26.3506
27.0172
28.3289
30.4078
33.3433
37.2084
42.0595
47.9153
54.7021
62.1553
26.3505
27.0172
28.3288
30.4077
33.3432
37.2083
42.0594
47.9152
54.702
62.1552
26.3505
27.0171
28.3288
30.4077
33.3432
37.2082
42.0594
47.9151
54.7019
62.1551
26.3505
27.0171
28.3287
30.4076
33.3431
37.2082
42.0593
47.9151
54.7019
62.1551
26.3505
27.0171
28.3287
30.4076
33.3431
37.2082
42.0593
47.9151
54.7019
62.1551
26.3505
27.0171
28.3287
30.4077
33.3432
37.2082
42.0593
47.9151
54.7019
62.1551
26.3505
27.0172
28.3288
30.4077
33.3432
37.2083
42.0594
47.9151
54.702
62.1552
26.3506
27.0172
28.3288
30.4078
33.3433
37.2083
42.0595
47.9152
54.7021
62.1553
26.3507
27.0173
28.3289
30.4079
33.3434
37.2085
42.0596
47.9154
54.7022
62.1554
24.1287
25.0584
26.4971
28.5354
31.2389
34.6496
38.7799
43.5955
48.9856
54.725
24.1286
25.0583
26.497
28.5353
31.2388
34.6495
38.7798
43.5954
48.9855
54.7248
24.1285
25.0582
26.4969
28.5352
31.2387
34.6494
38.7797
43.5953
48.9854
54.7247
24.1285
25.0582
26.4969
28.5351
31.2386
34.6493
38.7796
43.5953
48.9853
54.7246
24.1285
25.0582
26.4968
28.5351
31.2386
34.6493
38.7796
43.5952
48.9853
54.7246
24.1285
25.0582
26.4968
28.5351
31.2386
34.6493
38.7796
43.5952
48.9853
54.7246
24.1285
25.0582
26.4969
28.5351
31.2386
34.6493
38.7796
43.5953
48.9853
54.7246
24.1285
25.0582
26.4969
28.5352
31.2387
34.6494
38.7797
43.5953
48.9854
54.7247
24.1286
25.0583
26.497
28.5352
31.2387
34.6495
38.7798
43.5954
48.9855
54.7248
24.1287
25.0584
26.4971
28.5353
31.2389
34.6496
38.7799
43.5955
48.9856
54.7249
22.05
23.1662
24.6842
26.6604
29.1346
32.123
35.6101
39.5382
43.7961
48.2147
22.0499
23.1662
24.6841
26.6603
29.1345
32.1229
35.61
39.538
43.796
48.2146
22.0499
23.1661
24.6841
26.6602
29.1344
32.1228
35.6099
39.5379
43.7959
48.2145
22.0498
23.1661
24.684
26.6602
29.1343
32.1228
35.6099
39.5379
43.7958
48.2144
22.0498
23.166
24.684
26.6601
29.1343
32.1227
35.6098
39.5379
43.7958
48.2144
22.0498
23.166
24.684
26.6601
29.1343
32.1227
35.6098
39.5379
43.7958
48.2144
22.0498
23.166
24.684
26.6602
29.1343
32.1228
35.6099
39.5379
43.7958
48.2144
22.0499
23.1661
24.684
26.6602
29.1344
32.1228
35.6099
39.5379
43.7959
48.2145
22.0499
23.1662
24.6841
26.6603
29.1345
32.1229
35.61
39.538
43.796
48.2146
22.05
23.1662
24.6842
26.6604
29.1346
32.123
35.6101
39.5382
43.7961
48.2147
20.1608
21.4385
23.0218
24.9395
27.2117
29.8362
32.779
35.9694
39.3003
42.6442
20.1608
21.4384
23.0217
24.9395
27.2116
29.8361
32.7789
35.9693
39.3002
42.6441
20.1607
21.4384
23.0217
24.9394
27.2115
29.836
32.7788
35.9692
39.3001
42.644
20.1607
21.4383
23.0216
24.9393
27.2115
29.8359
32.7788
35.9691
39.3001
42.6439
20.1607
21.4383
23.0216
24.9393
27.2115
29.8359
32.7788
35.9691
39.3
42.6439
20.1607
21.4383
23.0216
24.9393
27.2115
29.8359
32.7788
35.9691
39.3
42.6439
20.1607
21.4383
23.0216
24.9393
27.2115
29.8359
32.7788
35.9691
39.3001
42.6439
20.1607
21.4384
23.0217
24.9394
27.2115
29.836
32.7788
35.9692
39.3001
42.644
20.1608
21.4384
23.0217
24.9395
27.2116
29.8361
32.7789
35.9693
39.3002
42.6441
20.1608
21.4385
23.0218
24.9395
27.2117
29.8362
32.779
35.9694
39.3004
42.6442
18.499
19.9597
21.6229
23.5055
25.6205
27.956
30.4645
33.0597
35.6236
38.0354
18.4989
19.9596
21.6228
23.5054
25.6204
27.9559
30.4644
33.0596
35.6235
38.0353
18.4989
19.9596
21.6228
23.5053
25.6203
27.9558
30.4643
33.0596
35.6234
38.0352
18.4988
19.9596
21.6227
23.5053
25.6203
27.9557
30.4642
33.0595
35.6233
38.0351
18.4988
19.9595
21.6227
23.5052
25.6203
27.9557
30.4642
33.0595
35.6233
38.0351
18.4988
19.9595
21.6227
23.5052
25.6203
27.9557
30.4642
33.0595
35.6233
38.0351
18.4988
19.9596
21.6227
23.5053
25.6203
27.9558
30.4642
33.0595
35.6233
38.0352
18.4989
19.9596
21.6228
23.5053
25.6203
27.9558
30.4643
33.0596
35.6234
38.0352
18.4989
19.9597
21.6228
23.5054
25.6204
27.9559
30.4644
33.0597
35.6235
38.0353
18.499
19.9597
21.6229
23.5055
25.6205
27.956
30.4645
33.0598
35.6236
38.0354
17.1112
18.821
20.5918
22.4699
24.4821
26.616
28.8131
30.9641
32.909
34.4594
17.1111
18.8209
20.5917
22.4698
24.482
26.6159
28.813
30.964
32.9089
34.4593
17.1111
18.8209
20.5916
22.4698
24.482
26.6158
28.8129
30.964
32.9088
34.4592
17.111
18.8208
20.5916
22.4697
24.4819
26.6158
28.8128
30.9639
32.9088
34.4591
17.111
18.8208
20.5916
22.4697
24.4819
26.6157
28.8128
30.9639
32.9087
34.4591
17.111
18.8208
20.5916
22.4697
24.4819
26.6157
28.8128
30.9639
32.9087
34.4591
17.111
18.8208
20.5916
22.4697
24.4819
26.6158
28.8129
30.9639
32.9088
34.4592
17.1111
18.8209
20.5917
22.4698
24.482
26.6158
28.8129
30.964
32.9088
34.4592
17.1111
18.8209
20.5917
22.4699
24.482
26.6159
28.813
30.9641
32.9089
34.4593
17.1112
18.821
20.5918
22.4699
24.4821
26.616
28.8131
30.9642
32.909
34.4594
16.1279
18.1524
20.0316
21.9234
23.8872
25.9169
27.9468
29.8436
31.3808
32.1702
16.1278
18.1524
20.0315
21.9233
23.8872
25.9169
27.9468
29.8435
31.3807
32.1701
16.1278
18.1523
20.0315
21.9233
23.8871
25.9168
27.9467
29.8435
31.3806
32.17
16.1278
18.1523
20.0314
21.9232
23.8871
25.9168
27.9466
29.8434
31.3806
32.17
16.1278
18.1523
20.0314
21.9232
23.8871
25.9167
27.9466
29.8434
31.3806
32.1699
16.1278
18.1523
20.0314
21.9232
23.8871
25.9168
27.9466
29.8434
31.3806
32.1699
16.1278
18.1523
20.0314
21.9233
23.8871
25.9168
27.9467
29.8434
31.3806
32.17
16.1278
18.1523
20.0315
21.9233
23.8871
25.9168
27.9467
29.8435
31.3807
32.17
16.1279
18.1524
20.0315
21.9234
23.8872
25.9169
27.9468
29.8436
31.3807
32.1701
16.1279
18.1525
20.0316
21.9235
23.8873
25.917
27.9469
29.8437
31.3809
32.1702
112.748
124.944
132.398
137.6
141.438
144.313
146.439
147.945
148.91
149.382
112.748
124.944
132.398
137.6
141.438
144.313
146.439
147.945
148.91
149.382
112.747
124.944
132.397
137.6
141.438
144.313
146.439
147.944
148.91
149.382
112.747
124.944
132.397
137.6
141.438
144.313
146.439
147.944
148.91
149.382
112.747
124.944
132.397
137.599
141.438
144.313
146.439
147.944
148.91
149.382
112.747
124.944
132.397
137.599
141.438
144.313
146.439
147.944
148.91
149.382
112.747
124.944
132.397
137.6
141.438
144.313
146.439
147.944
148.91
149.382
112.747
124.944
132.397
137.6
141.438
144.313
146.439
147.945
148.91
149.382
112.747
124.944
132.398
137.6
141.438
144.313
146.439
147.945
148.91
149.382
112.748
124.944
132.398
137.6
141.438
144.313
146.439
147.945
148.91
149.382
94.1581
105.016
112.676
118.222
122.329
125.39
127.641
129.228
130.243
130.738
94.158
105.015
112.676
118.222
122.329
125.389
127.641
129.228
130.243
130.737
94.1579
105.015
112.676
118.222
122.328
125.389
127.641
129.228
130.242
130.737
94.1578
105.015
112.676
118.222
122.328
125.389
127.64
129.228
130.242
130.737
94.1577
105.015
112.676
118.222
122.328
125.389
127.64
129.228
130.242
130.737
94.1577
105.015
112.676
118.222
122.328
125.389
127.64
129.228
130.242
130.737
94.1578
105.015
112.676
118.222
122.328
125.389
127.64
129.228
130.242
130.737
94.1578
105.015
112.676
118.222
122.328
125.389
127.641
129.228
130.243
130.737
94.1579
105.015
112.676
118.222
122.328
125.389
127.641
129.228
130.243
130.738
94.1581
105.016
112.676
118.222
122.329
125.39
127.641
129.228
130.243
130.738
80.6541
89.319
96.1308
101.369
105.37
108.398
110.642
112.231
113.248
113.745
80.6539
89.3189
96.1306
101.369
105.369
108.398
110.642
112.231
113.248
113.745
80.6538
89.3187
96.1305
101.369
105.369
108.398
110.642
112.231
113.248
113.745
80.6537
89.3187
96.1305
101.369
105.369
108.398
110.642
112.231
113.248
113.745
80.6537
89.3186
96.1304
101.369
105.369
108.398
110.642
112.231
113.248
113.745
80.6537
89.3186
96.1304
101.369
105.369
108.398
110.642
112.231
113.248
113.745
80.6537
89.3187
96.1304
101.369
105.369
108.398
110.642
112.231
113.248
113.745
80.6538
89.3187
96.1305
101.369
105.369
108.398
110.642
112.231
113.248
113.745
80.6539
89.3188
96.1306
101.369
105.369
108.398
110.642
112.231
113.248
113.745
80.654
89.319
96.1308
101.369
105.37
108.398
110.642
112.231
113.248
113.745
69.6985
76.4985
82.2105
86.8298
90.4802
93.3054
95.4291
96.9458
97.9222
98.4003
69.6984
76.4984
82.2104
86.8296
90.48
93.3053
95.429
96.9457
97.922
98.4002
69.6982
76.4983
82.2103
86.8295
90.4799
93.3052
95.4289
96.9456
97.9219
98.4001
69.6982
76.4982
82.2102
86.8294
90.4798
93.3051
95.4288
96.9455
97.9219
98.4
69.6981
76.4982
82.2102
86.8294
90.4798
93.3051
95.4288
96.9455
97.9218
98.4
69.6981
76.4982
82.2102
86.8294
90.4798
93.3051
95.4288
96.9455
97.9219
98.4
69.6982
76.4982
82.2102
86.8294
90.4799
93.3051
95.4288
96.9455
97.9219
98.4
69.6982
76.4983
82.2103
86.8295
90.4799
93.3052
95.4289
96.9456
97.922
98.4001
69.6983
76.4984
82.2104
86.8296
90.4801
93.3053
95.429
96.9457
97.9221
98.4003
69.6985
76.4985
82.2105
86.8298
90.4802
93.3055
95.4292
96.9459
97.9223
98.4004
60.4568
65.769
70.4143
74.3151
77.493
80.0094
81.9323
83.3213
84.222
84.6649
60.4567
65.7688
70.4141
74.315
77.4929
80.0093
81.9322
83.3211
84.2219
84.6648
60.4566
65.7687
70.414
74.3149
77.4928
80.0092
81.9321
83.321
84.2218
84.6647
60.4565
65.7686
70.4139
74.3148
77.4927
80.0091
81.932
83.321
84.2217
84.6647
60.4565
65.7686
70.4139
74.3147
77.4927
80.0091
81.932
83.3209
84.2217
84.6647
60.4565
65.7686
70.4139
74.3147
77.4927
80.0091
81.932
83.3209
84.2217
84.6647
60.4565
65.7687
70.4139
74.3148
77.4927
80.0091
81.932
83.321
84.2218
84.6647
60.4566
65.7687
70.414
74.3149
77.4928
80.0092
81.9321
83.3211
84.2219
84.6648
60.4567
65.7688
70.4141
74.315
77.4929
80.0093
81.9322
83.3212
84.222
84.6649
60.4568
65.769
70.4143
74.3151
77.4931
80.0095
81.9324
83.3214
84.2221
84.6651
52.5808
56.6822
60.365
63.5495
66.2139
68.3706
70.0471
71.2732
72.0751
72.4713
52.5806
56.682
60.3649
63.5493
66.2137
68.3705
70.0469
71.2731
72.075
72.4712
52.5805
56.6819
60.3648
63.5492
66.2136
68.3704
70.0468
71.273
72.0749
72.4712
52.5805
56.6819
60.3647
63.5492
66.2136
68.3703
70.0467
71.2729
72.0748
72.4711
52.5804
56.6818
60.3647
63.5491
66.2135
68.3703
70.0467
71.2729
72.0748
72.4711
52.5804
56.6819
60.3647
63.5491
66.2136
68.3703
70.0467
71.2729
72.0748
72.4711
52.5805
56.6819
60.3647
63.5492
66.2136
68.3703
70.0468
71.2729
72.0749
72.4711
52.5806
56.682
60.3648
63.5493
66.2137
68.3704
70.0469
71.273
72.075
72.4712
52.5807
56.6821
60.3649
63.5494
66.2138
68.3705
70.047
71.2731
72.0751
72.4714
52.5808
56.6822
60.365
63.5495
66.2139
68.3707
70.0471
71.2733
72.0752
72.4715
45.8862
48.9573
51.7813
54.2924
56.4496
58.2353
59.6483
60.6955
61.3867
61.7301
45.8861
48.9572
51.7812
54.2923
56.4495
58.2352
59.6481
60.6954
61.3866
61.73
45.886
48.9571
51.7811
54.2922
56.4494
58.2351
59.648
60.6953
61.3865
61.7299
45.8859
48.9571
51.781
54.2921
56.4493
58.235
59.648
60.6952
61.3864
61.7298
45.8859
48.957
51.781
54.2921
56.4493
58.235
59.6479
60.6952
61.3864
61.7298
45.8859
48.957
51.781
54.2921
56.4493
58.235
59.6479
60.6952
61.3864
61.7298
45.8859
48.9571
51.781
54.2922
56.4494
58.2351
59.648
60.6952
61.3865
61.7299
45.886
48.9571
51.7811
54.2922
56.4494
58.2351
59.6481
60.6953
61.3866
61.73
45.8861
48.9572
51.7812
54.2923
56.4495
58.2353
59.6482
60.6954
61.3867
61.7301
45.8862
48.9574
51.7813
54.2925
56.4497
58.2354
59.6483
60.6956
61.3868
61.7302
40.2469
42.3861
44.4369
46.3341
48.018
49.4481
50.6021
51.4699
52.0483
52.3372
40.2468