/*--------------------------------*- C++ -*----------------------------------*\
  =========                 |
  \\      /  F ield         | OpenFOAM: The Open Source CFD Toolbox
   \\    /   O peration     | Website:  https://openfoam.org
    \\  /    A nd           | Version:  7
     \\/     M anipulation  |
\*---------------------------------------------------------------------------*/
FoamFile
{
    version     2.0;
    format      ascii;
    class       surfaceScalarField;
    location    "300";
    object      phi;
}
// * * * * * * * * * * * * * * * * * * * * * * * * * * * * * * * * * * * * * //

dimensions      [0 3 -1 0 0 0 0];

internalField   nonuniform List<scalar> 
8300
(
1.5891e-07
1.56774e-07
9.96843e-05
1.85068e-08
1.56862e-07
9.99836e-05
1.35225e-08
1.56886e-07
9.98481e-05
8.58142e-09
1.56853e-07
9.98481e-05
2.40316e-09
1.56826e-07
9.98494e-05
-3.99015e-09
1.5679e-07
9.98496e-05
-9.65405e-09
1.56747e-07
9.9849e-05
-1.58776e-08
1.56719e-07
9.98495e-05
-1.54031e-07
1.56648e-07
9.99815e-05
1.56495e-07
9.96895e-05
1.58999e-07
1.7269e-08
9.99805e-05
1.84315e-08
1.71955e-08
0.00010028
1.35066e-08
1.71744e-08
0.000100145
8.55698e-09
1.71565e-08
0.000100145
2.37272e-09
1.71362e-08
0.000100146
-4.023e-09
1.71174e-08
0.000100146
-9.68563e-09
1.7102e-08
0.000100145
-1.58365e-08
1.70896e-08
0.000100146
-1.54183e-07
1.70857e-08
0.000100278
1.71253e-08
9.99852e-05
1.59026e-07
1.16211e-08
9.98467e-05
1.84103e-08
1.16088e-08
0.000100146
1.34818e-08
1.1585e-08
0.000100011
8.53861e-09
1.1559e-08
0.000100011
2.35142e-09
1.15303e-08
0.000100012
-4.04598e-09
1.15016e-08
0.000100012
-9.69677e-09
1.14758e-08
0.000100011
-1.58404e-08
1.14555e-08
0.000100012
-1.54257e-07
1.14414e-08
0.000100144
1.14036e-08
9.98515e-05
1.58999e-07
6.22865e-09
9.98464e-05
1.83932e-08
6.21042e-09
0.000100146
1.3456e-08
6.19422e-09
0.00010001
8.51135e-09
6.16851e-09
0.00010001
2.32301e-09
6.13715e-09
0.000100012
-4.07323e-09
6.10283e-09
0.000100012
-9.71728e-09
6.06856e-09
0.000100011
-1.58552e-08
6.03814e-09
0.000100012
-1.54293e-07
6.00832e-09
0.000100144
5.96488e-09
9.98512e-05
1.58982e-07
-1.6836e-10
9.98475e-05
1.83749e-08
-1.88824e-10
0.000100147
1.34291e-08
-2.06537e-10
0.000100011
8.48021e-09
-2.30773e-10
0.000100011
2.28891e-09
-2.61996e-10
0.000100013
-4.10758e-09
-2.9796e-10
0.000100013
-9.74621e-09
-3.35549e-10
0.000100012
-1.58755e-08
-3.70273e-10
0.000100013
-1.54352e-07
-4.01143e-10
0.000100145
-4.45919e-10
9.98521e-05
1.58957e-07
-6.54906e-09
9.98475e-05
1.83599e-08
-6.5698e-09
0.000100147
1.34052e-08
-6.58718e-09
0.000100011
8.44915e-09
-6.60743e-09
0.000100011
2.25313e-09
-6.63525e-09
0.000100013
-4.1453e-09
-6.66903e-09
0.000100013
-9.78092e-09
-6.70585e-09
0.000100012
-1.59012e-08
-6.74099e-09
0.000100013
-1.54408e-07
-6.76952e-09
0.000100145
-6.81006e-09
9.9852e-05
1.58928e-07
-1.18876e-08
9.98464e-05
1.83498e-08
-1.19076e-08
0.000100146
1.33867e-08
-1.19115e-08
0.00010001
8.42159e-09
-1.19235e-08
0.00010001
2.21966e-09
-1.19434e-08
0.000100012
-4.18209e-09
-1.19706e-08
0.000100012
-9.81735e-09
-1.2003e-08
0.000100011
-1.59292e-08
-1.2036e-08
0.000100011
-1.54456e-07
-1.20693e-08
0.000100144
-1.20985e-08
9.98509e-05
1.58916e-07
-1.74467e-08
9.98467e-05
1.83434e-08
-1.73944e-08
0.000100146
1.3375e-08
-1.73916e-08
0.00010001
8.40029e-09
-1.73984e-08
0.00010001
2.19232e-09
-1.74099e-08
0.000100012
-4.21336e-09
-1.74274e-08
0.000100012
-9.85037e-09
-1.74496e-08
0.000100011
-1.59537e-08
-1.74713e-08
0.000100012
-1.54506e-07
-1.74971e-08
0.000100144
-1.75797e-08
9.9851e-05
1.5886e-07
-1.57088e-07
9.99808e-05
1.83463e-08
-1.57213e-07
0.00010028
1.33708e-08
-1.57269e-07
0.000100145
8.38151e-09
-1.57279e-07
0.000100145
2.17125e-09
-1.57308e-07
0.000100146
-4.23461e-09
-1.57334e-07
0.000100146
-9.87945e-09
-1.57356e-07
0.000100146
-1.59789e-08
-1.57386e-07
0.000100146
-1.54496e-07
-1.57365e-07
0.000100278
-1.57286e-07
9.99852e-05
1.58733e-07
9.96842e-05
1.83997e-08
9.99832e-05
1.33518e-08
9.98478e-05
8.36113e-09
9.98477e-05
2.1507e-09
9.98489e-05
-4.25446e-09
9.98491e-05
-9.89478e-09
9.98483e-05
-1.60549e-08
9.98488e-05
-1.5442e-07
9.9981e-05
9.96883e-05
2.29242e-07
2.24311e-07
9.92309e-05
7.52621e-08
2.24512e-07
9.99132e-05
4.98021e-08
2.24285e-07
9.96495e-05
2.60629e-08
2.24297e-07
9.96477e-05
7.26897e-09
2.24252e-07
9.96441e-05
-1.21386e-08
2.24178e-07
9.9645e-05
-3.77174e-08
2.24079e-07
9.96506e-05
-6.62508e-08
2.2394e-07
9.96543e-05
-2.17756e-07
2.24068e-07
9.99091e-05
2.23727e-07
9.92481e-05
2.29441e-07
7.11093e-08
9.99044e-05
7.53023e-08
7.11539e-08
0.000100588
4.97944e-08
7.10927e-08
0.000100324
2.60007e-08
7.10234e-08
0.000100322
7.18849e-09
7.09688e-08
0.000100318
-1.22291e-08
7.09152e-08
0.000100319
-3.78404e-08
7.08675e-08
0.000100324
-6.63899e-08
7.08498e-08
0.000100328
-2.18096e-07
7.0846e-08
0.000100583
7.06972e-08
9.99203e-05
2.29224e-07
4.39655e-08
9.96447e-05
7.52419e-08
4.39678e-08
0.000100328
4.97652e-08
4.394e-08
0.000100063
2.59662e-08
4.38678e-08
0.000100062
7.14231e-09
4.37961e-08
0.000100058
-1.22853e-08
4.37228e-08
0.000100059
-3.78933e-08
4.36537e-08
0.000100064
-6.63916e-08
4.36052e-08
0.000100068
-2.17967e-07
4.3544e-08
0.000100323
4.33974e-08
9.9661e-05
2.29249e-07
1.90274e-08
9.96423e-05
7.51753e-08
1.89827e-08
0.000100325
4.96934e-08
1.89523e-08
0.000100061
2.58955e-08
1.88862e-08
0.000100059
7.0705e-09
1.88091e-08
0.000100056
-1.23521e-08
1.87244e-08
0.000100056
-3.79415e-08
1.86383e-08
0.000100062
-6.6415e-08
1.85641e-08
0.000100065
-2.1812e-07
1.84908e-08
0.000100321
1.83627e-08
9.96582e-05
2.29224e-07
-4.07541e-10
9.96378e-05
7.51268e-08
-4.60953e-10
0.000100321
4.96266e-08
-5.00779e-10
0.000100056
2.5818e-08
-5.60586e-10
0.000100055
6.98558e-09
-6.37454e-10
0.000100051
-1.24381e-08
-7.25685e-10
0.000100052
-3.80185e-08
-8.18918e-10
0.000100057
-6.64746e-08
-9.05265e-10
0.000100061
-2.18251e-07
-9.7431e-10
0.000100316
-1.10321e-09
9.96534e-05
2.29175e-07
-1.98048e-08
9.96378e-05
7.50853e-08
-1.98618e-08
0.000100321
4.95652e-08
-1.9907e-08
0.000100056
2.57408e-08
-1.99547e-08
0.000100055
6.8972e-09
-2.00234e-08
0.000100051
-1.25311e-08
-2.01061e-08
0.000100052
-3.81071e-08
-2.01966e-08
0.000100057
-6.6546e-08
-2.02857e-08
0.000100061
-2.18366e-07
-2.0343e-08
0.000100316
-2.0457e-08
9.96531e-05
2.29105e-07
-4.46312e-08
9.96423e-05
7.50546e-08
-4.47203e-08
0.000100325
4.95156e-08
-4.47567e-08
0.000100061
2.56717e-08
-4.47809e-08
0.000100059
6.81442e-09
-4.48325e-08
0.000100055
-1.26215e-08
-4.49003e-08
0.000100056
-3.81979e-08
-4.49794e-08
0.000100062
-6.66213e-08
-4.50674e-08
0.000100065
-2.18454e-07
-4.51141e-08
0.000100321
-4.51675e-08
9.96572e-05
2.29001e-07
-7.15873e-08
9.96448e-05
7.50556e-08
-7.16938e-08
0.000100327
4.94908e-08
-7.16781e-08
0.000100063
2.56212e-08
-7.16769e-08
0.000100061
6.74795e-09
-7.17092e-08
0.000100058
-1.26997e-08
-7.17547e-08
0.000100058
-3.8287e-08
-7.18107e-08
0.000100064
-6.67064e-08
-7.18862e-08
0.000100067
-2.18478e-07
-7.19574e-08
0.000100323
-7.19477e-08
9.96594e-05
2.29165e-07
-2.24916e-07
9.99051e-05
7.50701e-08
-2.25195e-07
0.000100588
4.94528e-08
-2.25024e-07
0.000100324
2.5572e-08
-2.25124e-07
0.000100322
6.69922e-09
-2.25189e-07
0.000100319
-1.27426e-08
-2.2524e-07
0.000100319
-3.83261e-08
-2.25269e-07
0.000100325
-6.67787e-08
-2.25248e-07
0.000100328
-2.18728e-07
-2.2547e-07
0.000100584
-2.25294e-07
9.992e-05
2.28885e-07
9.92305e-05
7.49629e-08
9.9912e-05
4.93623e-08
9.96485e-05
2.55118e-08
9.96466e-05
6.641e-09
9.96427e-05
-1.27947e-08
9.96434e-05
-3.83369e-08
9.96487e-05
-6.67477e-08
9.96521e-05
-2.1855e-07
9.99075e-05
9.92445e-05
2.6156e-07
2.53414e-07
9.87161e-05
9.96553e-08
2.53839e-07
9.98214e-05
7.05069e-08
2.53085e-07
9.94257e-05
3.94498e-08
2.53185e-07
9.94257e-05
1.27339e-08
2.53066e-07
9.94179e-05
-1.50391e-08
2.52931e-07
9.942e-05
-4.92369e-08
2.52787e-07
9.94322e-05
-8.3608e-08
2.52461e-07
9.94364e-05
-2.42059e-07
2.53027e-07
9.98147e-05
2.52355e-07
9.87538e-05
2.61968e-07
9.23758e-08
9.98037e-05
9.99399e-08
9.26708e-08
0.000100911
7.05161e-08
9.24885e-08
0.000100514
3.93601e-08
9.2355e-08
0.000100514
1.25762e-08
9.2263e-08
0.000100506
-1.52504e-08
9.21601e-08
0.000100508
-4.95069e-08
9.20549e-08
0.00010052
-8.40878e-08
9.20168e-08
0.000100523
-2.4275e-07
9.20797e-08
0.000100903
9.15788e-08
9.98384e-05
2.61238e-07
6.03389e-08
9.94157e-05
9.97619e-08
6.03688e-08
0.000100521
7.04666e-08
6.03193e-08
0.000100125
3.92909e-08
6.01844e-08
0.000100125
1.2498e-08
6.00574e-08
0.000100117
-1.5335e-08
5.99186e-08
0.000100119
-4.95973e-08
5.9776e-08
0.000100131
-8.40187e-08
5.96741e-08
0.000100135
-2.42176e-07
5.95652e-08
0.000100514
5.92412e-08
9.94512e-05
2.61361e-07
2.71726e-08
9.94142e-05
9.96332e-08
2.71182e-08
0.00010052
7.03324e-08
2.70538e-08
0.000100124
3.91544e-08
2.69274e-08
0.000100124
1.23578e-08
2.67843e-08
0.000100116
-1.54665e-08
2.66221e-08
0.000100118
-4.9698e-08
2.64507e-08
0.00010013
-8.40703e-08
2.63007e-08
0.000100133
-2.42538e-07
2.61791e-08
0.000100513
2.58781e-08
9.94492e-05
2.61279e-07
-7.20009e-10
9.94046e-05
9.95533e-08
-8.24328e-10
0.000100511
7.02152e-08
-8.93483e-10
0.000100114
3.90106e-08
-1.00777e-09
0.000100114
1.21949e-08
-1.15451e-09
0.000100106
-1.56369e-08
-1.32443e-09
0.000100108
-4.98598e-08
-1.50743e-09
0.00010012
-8.42048e-08
-1.68299e-09
0.000100123
-2.42752e-07
-1.80976e-09
0.000100503
-2.08449e-09
9.94387e-05
2.61191e-07
-2.85456e-08
9.94046e-05
9.94744e-08
-2.86897e-08
0.00010051
7.00994e-08
-2.87565e-08
0.000100114
3.88635e-08
-2.88471e-08
0.000100114
1.20243e-08
-2.89821e-08
0.000100106
-1.58189e-08
-2.91416e-08
0.000100108
-5.00361e-08
-2.93161e-08
0.000100119
-8.43513e-08
-2.94971e-08
0.000100123
-2.42981e-07
-2.96142e-08
0.000100503
-2.98284e-08
9.9438e-05
2.61107e-07
-6.15171e-08
9.94143e-05
9.94036e-08
-6.17164e-08
0.00010052
6.99958e-08
-6.1778e-08
0.000100123
3.87272e-08
-6.18272e-08
0.000100124
1.18629e-08
-6.19351e-08
0.000100115
-1.59936e-08
-6.20668e-08
0.000100117
-5.02084e-08
-6.22139e-08
0.000100129
-8.44934e-08
-6.23863e-08
0.000100132
-2.43197e-07
-6.24748e-08
0.000100512
-6.25721e-08
9.94469e-05
2.60842e-07
-9.32319e-08
9.94158e-05
9.94056e-08
-9.36496e-08
0.000100521
6.99451e-08
-9.35466e-08
0.000100125
3.86297e-08
-9.35447e-08
0.000100125
1.1733e-08
-9.36199e-08
0.000100116
-1.61485e-08
-9.37088e-08
0.000100118
-5.03823e-08
-9.38065e-08
0.00010013
-8.46678e-08
-9.39594e-08
0.000100133
-2.43182e-07
-9.41563e-08
0.000100513
-9.39426e-08
9.94477e-05
2.61486e-07
-2.54443e-07
9.9805e-05
9.95046e-08
-2.55012e-07
0.000100912
6.98786e-08
-2.54353e-07
0.000100515
3.8553e-08
-2.54609e-07
0.000100515
1.1644e-08
-2.54687e-07
0.000100507
-1.62393e-08
-2.54775e-07
0.000100509
-5.04598e-08
-2.54865e-07
0.00010052
-8.48726e-08
-2.54754e-07
0.000100523
-2.43969e-07
-2.55473e-07
0.000100905
-2.55118e-07
9.98372e-05
2.60927e-07
9.87152e-05
9.90867e-08
9.98189e-05
6.96774e-08
9.94237e-05
3.8403e-08
9.94234e-05
1.15299e-08
9.9415e-05
-1.63104e-08
9.94166e-05
-5.04536e-08
9.94281e-05
-8.46045e-08
9.94316e-05
-2.43585e-07
9.9811e-05
9.87458e-05
2.83067e-07
2.71192e-07
9.8162e-05
1.14291e-07
2.71926e-07
9.97184e-05
8.23312e-08
2.70586e-07
9.91872e-05
4.93855e-08
2.70806e-07
9.9188e-05
1.93073e-08
2.70536e-07
9.91776e-05
-1.23421e-08
2.7032e-07
9.91815e-05
-4.99348e-08
2.70169e-07
9.91998e-05
-8.94955e-08
2.69586e-07
9.92065e-05
-2.53319e-07
2.70611e-07
9.97081e-05
2.695e-07
9.82311e-05
2.83751e-07
1.03355e-07
9.96879e-05
1.14843e-07
1.03932e-07
0.000101248
8.2353e-08
1.03568e-07
0.000100713
4.92817e-08
1.03354e-07
0.000100715
1.90353e-08
1.03213e-07
0.000100704
-1.2759e-08
1.03042e-07
0.000100707
-5.04125e-08
1.02857e-07
0.000100725
-9.03931e-08
1.02777e-07
0.00010073
-2.545e-07
1.02946e-07
0.000101235
1.02021e-07
9.97515e-05
2.82459e-07
6.71223e-08
9.91696e-05
1.1449e-07
6.71872e-08
0.000100726
8.22525e-08
6.7082e-08
0.000100194
4.91452e-08
6.6866e-08
0.000100195
1.8918e-08
6.66662e-08
0.000100184
-1.28531e-08
6.64375e-08
0.000100188
-5.05207e-08
6.61917e-08
0.000100206
-9.02093e-08
6.6005e-08
0.000100211
-2.53452e-07
6.58584e-08
0.000100715
6.52787e-08
9.92346e-05
2.82718e-07
3.09228e-08
9.91678e-05
1.14284e-07
3.08878e-08
0.000100725
8.20371e-08
3.07547e-08
0.000100192
4.89178e-08
3.05466e-08
0.000100194
1.86812e-08
3.0315e-08
0.000100183
-1.30788e-08
3.00449e-08
0.000100186
-5.07042e-08
2.97512e-08
0.000100204
-9.03174e-08
2.94852e-08
0.00010021
-2.54111e-07
2.93179e-08
0.000100713
2.87183e-08
9.92317e-05
2.82507e-07
-1.07317e-09
9.91542e-05
1.14164e-07
-1.24476e-09
0.000100711
8.18544e-08
-1.35025e-09
0.000100179
4.86852e-08
-1.53879e-09
0.00010018
1.84107e-08
-1.78076e-09
0.000100169
-1.33699e-08
-2.0653e-09
0.000100172
-5.09903e-08
-2.37779e-09
0.00010019
-9.05667e-08
-2.69043e-09
0.000100195
-2.54411e-07
-2.90421e-09
0.000100699
-3.42132e-09
9.92166e-05
2.82371e-07
-3.2968e-08
9.91543e-05
1.14035e-07
-3.32592e-08
0.000100711
8.16659e-08
-3.33257e-08
0.000100178
4.84426e-08
-3.34752e-08
0.000100179
1.81245e-08
-3.37012e-08
0.000100168
-1.36809e-08
-3.39684e-08
0.000100172
-5.12976e-08
-3.42635e-08
0.000100189
-9.08327e-08
-3.45848e-08
0.000100194
-2.54826e-07
-3.48173e-08
0.000100699
-3.5182e-08
9.9215e-05
2.82323e-07
-6.88795e-08
9.91681e-05
1.1391e-07
-6.9222e-08
0.000100724
8.14897e-08
-6.92855e-08
0.000100192
4.82138e-08
-6.93718e-08
0.000100193
1.78519e-08
-6.95566e-08
0.000100182
-1.39782e-08
-6.97768e-08
0.000100185
-5.15918e-08
-7.00194e-08
0.000100202
-9.10827e-08
-7.03156e-08
0.000100208
-2.55299e-07
-7.0491e-08
0.000100712
-7.06877e-08
9.92272e-05
2.81842e-07
-1.04647e-07
9.91699e-05
1.13906e-07
-1.05428e-07
0.000100725
8.14002e-08
-1.05185e-07
0.000100193
4.80508e-08
-1.05189e-07
0.000100194
1.76318e-08
-1.05323e-07
0.000100183
-1.42436e-08
-1.05471e-07
0.000100186
-5.18885e-08
-1.05628e-07
0.000100203
-9.13812e-08
-1.05881e-07
0.000100208
-2.55258e-07
-1.06268e-07
0.000100713
-1.05865e-07
9.92277e-05
2.8301e-07
-2.72706e-07
9.96902e-05
1.1414e-07
-2.73666e-07
0.000101249
8.13259e-08
-2.72465e-07
0.000100715
4.79643e-08
-2.72933e-07
0.000100716
1.74897e-08
-2.72972e-07
0.000100705
-1.4427e-08
-2.73107e-07
0.000100708
-5.2047e-08
-2.73324e-07
0.000100726
-9.17919e-08
-2.73091e-07
0.000100731
-2.56664e-07
-2.74348e-07
0.000101238
-2.73737e-07
9.97485e-05
2.82084e-07
9.81605e-05
1.13366e-07
9.97141e-05
8.09872e-08
9.91837e-05
4.76711e-08
9.91839e-05
1.73087e-08
9.91725e-05
-1.44803e-08
9.91754e-05
-5.20124e-08
9.91924e-05
-9.12572e-08
9.91978e-05
-2.55962e-07
9.97015e-05
9.82162e-05
3.01078e-07
2.84807e-07
9.75762e-05
1.27678e-07
2.85889e-07
9.9606e-05
9.31266e-08
2.83963e-07
9.89379e-05
5.94486e-08
2.84317e-07
9.89375e-05
2.75281e-08
2.83829e-07
9.89258e-05
-6.53624e-09
2.83507e-07
9.89322e-05
-4.65797e-08
2.83363e-07
9.89566e-05
-9.14745e-08
2.82465e-07
9.89691e-05
-2.57569e-07
2.83901e-07
9.95905e-05
2.82273e-07
9.76914e-05
3.02053e-07
1.12344e-07
9.95584e-05
1.28468e-07
1.1319e-07
0.000101595
9.3131e-08
1.12634e-07
0.00010092
5.93173e-08
1.1233e-07
0.000100921
2.70864e-08
1.12115e-07
0.000100908
-7.25308e-09
1.11852e-07
0.000100913
-4.73377e-08
1.11562e-07
0.000100937
-9.28413e-08
1.11402e-07
0.000100947
-2.59382e-07
1.11657e-07
0.000101574
1.10257e-07
9.96643e-05
3.00213e-07
7.18465e-08
9.891e-05
1.27936e-07
7.19363e-08
0.00010094
9.29706e-08
7.17612e-08
0.00010027
5.9093e-08
7.14438e-08
0.00010027
2.69213e-08
7.1144e-08
0.000100257
-7.35384e-09
7.07906e-08
0.000100263
-4.74705e-08
7.04011e-08
0.000100287
-9.25542e-08
7.00773e-08
0.000100298
-2.57897e-07
6.98673e-08
0.000100922
6.89306e-08
9.90182e-05
3.00624e-07
3.34315e-08
9.89058e-05
1.27643e-07
3.34304e-08
0.000100937
9.26525e-08
3.32037e-08
0.000100266
5.87425e-08
3.2887e-08
0.000100266
2.65489e-08
3.25342e-08
0.000100254
-7.71794e-09
3.21114e-08
0.000100259
-4.77878e-08
3.16407e-08
0.000100283
-9.27714e-08
3.11913e-08
0.000100294
-2.5895e-07
3.09472e-08
0.000100919
2.98727e-08
9.90119e-05
3.00225e-07
-1.46608e-09
9.8889e-05
1.27462e-07
-1.72438e-09
0.000100919
9.23809e-08
-1.8767e-09
0.000100249
5.83886e-08
-2.16587e-09
0.000100249
2.61276e-08
-2.53846e-09
0.000100236
-8.18371e-09
-2.9869e-09
0.000100241
-4.82598e-08
-3.49068e-09
0.000100265
-9.31932e-08
-4.02067e-09
0.000100275
-2.59403e-07
-4.37523e-09
0.000100901
-5.31201e-09
9.89925e-05
3.00027e-07
-3.62248e-08
9.88892e-05
1.27268e-07
-3.67143e-08
0.000100919
9.20947e-08
-3.67753e-08
0.000100249
5.80137e-08
-3.70062e-08
0.000100248
2.56754e-08
-3.73564e-08
0.000100236
-8.68763e-09
-3.77778e-08
0.000100241
-4.87731e-08
-3.82532e-08
0.000100264
-9.36547e-08
-3.87941e-08
0.000100274
-2.60141e-07
-3.92081e-08
0.0001009
-3.9867e-08
9.89895e-05
3.00051e-07
-7.42481e-08
9.89062e-05
1.27078e-07
-7.47545e-08
0.000100936
9.18234e-08
-7.48217e-08
0.000100265
5.76578e-08
-7.49652e-08
0.000100265
2.52437e-08
-7.52525e-08
0.000100252
-9.16955e-09
-7.55981e-08
0.000100257
-4.92628e-08
-7.59845e-08
0.00010028
-9.40918e-08
-7.64624e-08
0.00010029
-2.61052e-07
-7.67726e-08
0.000100917
-7.71976e-08
9.90035e-05
2.9931e-07
-1.14128e-07
9.89106e-05
1.27052e-07
-1.15281e-07
0.000100938
9.16745e-08
-1.149e-07
0.000100269
5.74018e-08
-1.14928e-07
0.000100268
2.4894e-08
-1.15133e-07
0.000100255
-9.59809e-09
-1.15364e-07
0.00010026
-4.97383e-08
-1.15611e-07
0.000100283
-9.45717e-08
-1.15997e-07
0.000100293
-2.61064e-07
-1.1659e-07
0.000100919
-1.16058e-07
9.90055e-05
3.00983e-07
-2.86863e-07
9.95621e-05
1.27414e-07
-2.88274e-07
0.000101596
9.15853e-08
-2.86544e-07
0.000100922
5.73026e-08
-2.87263e-07
0.000100923
2.46751e-08
-2.87224e-07
0.00010091
-9.91478e-09
-2.87416e-07
0.000100915
-5.00192e-08
-2.87817e-07
0.000100938
-9.52191e-08
-2.87439e-07
0.000100947
-2.63107e-07
-2.89179e-07
0.000101578
-2.88284e-07
9.96576e-05
2.99648e-07
9.75741e-05
1.26286e-07
9.95993e-05
9.11012e-08
9.89324e-05
5.68299e-08
9.8931e-05
2.44265e-08
9.89178e-05
-9.91847e-09
9.89225e-05
-4.99383e-08
9.89447e-05
-9.43915e-08
9.89549e-05
-2.61995e-07
9.95799e-05
9.76659e-05
3.15201e-07
2.93716e-07
9.69674e-05
1.39778e-07
2.9516e-07
9.94864e-05
1.04442e-07
2.9262e-07
9.86808e-05
7.10278e-08
2.93092e-07
9.8678e-05
3.79964e-08
2.9233e-07
9.86667e-05
2.21811e-09
2.91871e-07
9.86763e-05
-3.9458e-08
2.91727e-07
9.87067e-05
-8.82158e-08
2.90474e-07
9.87275e-05
-2.52406e-07
2.92279e-07
9.94625e-05
2.901e-07
9.7149e-05
3.1645e-07
1.19119e-07
9.94167e-05
1.40778e-07
1.20227e-07
0.000101945
1.0439e-07
1.19471e-07
0.00010113
7.08239e-08
1.19063e-07
0.000101128
3.73042e-08
1.18743e-07
0.000101115
1.08687e-09
1.18353e-07
0.000101123
-4.06071e-08
1.17928e-07
0.000101152
-9.0155e-08
1.17631e-07
0.000101169
-2.55004e-07
1.17939e-07
0.000101913
1.15989e-07
9.95835e-05
3.14048e-07
7.57608e-08
9.86394e-05
1.40066e-07
7.58667e-08
0.000101159
1.04166e-07
7.56102e-08
0.00010035
7.05013e-08
7.51669e-08
0.000100348
3.7081e-08
7.47305e-08
0.000100335
9.68341e-10
7.4203e-08
0.000100344
-4.07781e-08
7.36103e-08
0.000100373
-8.97819e-08
7.30683e-08
0.000100392
-2.5309e-07
7.27487e-08
0.000101131
7.12903e-08
9.88099e-05
3.14598e-07
3.56475e-08
9.86314e-05
1.39674e-07
3.56783e-08
0.000101152
1.03719e-07
3.53403e-08
0.000100343
6.99867e-08
3.48812e-08
0.00010034
3.65196e-08
3.43615e-08
0.000100328
3.99682e-10
3.37206e-08
0.000100336
-4.13073e-08
3.29891e-08
0.000100365
-9.01869e-08
3.22472e-08
0.000100383
-2.54647e-07
3.18481e-08
0.000101124
3.00264e-08
9.87987e-05
3.13964e-07
-1.90323e-09
9.86127e-05
1.39407e-07
-2.27214e-09
0.000101132
1.03327e-07
-2.48622e-09
0.000100323
6.94654e-08
-2.91164e-09
0.000100321
3.58835e-08
-3.46495e-09
0.000100308
-3.24982e-10
-4.15075e-09
0.000100316
-4.20645e-08
-4.94433e-09
0.000100345
-9.08826e-08
-5.82315e-09
0.000100363
-2.55419e-07
-6.42508e-09
0.000101104
-8.11445e-09
9.87753e-05
3.13687e-07
-3.92732e-08
9.8613e-05
1.39125e-07
-4.00041e-08
0.000101131
1.02908e-07
-4.00698e-08
0.000100323
6.8905e-08
-4.04145e-08
0.00010032
3.51899e-08
-4.09361e-08
0.000100307
-1.12409e-09
-4.1582e-08
0.000100315
-4.29092e-08
-4.23326e-08
0.000100343
-9.1682e-08
-4.32233e-08
0.000100361
-2.56741e-07
-4.39283e-08
0.000101103
-4.5204e-08
9.87699e-05
3.13797e-07
-7.88796e-08
9.86321e-05
1.38858e-07
-7.95777e-08
0.00010115
1.02511e-07
-7.96593e-08
0.000100342
6.83727e-08
-7.98885e-08
0.000100339
3.45271e-08
-8.0314e-08
0.000100326
-1.8888e-09
-8.08392e-08
0.000100333
-4.37194e-08
-8.14416e-08
0.000100362
-9.24549e-08
-8.21955e-08
0.000100378
-2.58385e-07
-8.27148e-08
0.000101122
-8.36101e-08
9.87836e-05
3.12781e-07
-1.21451e-07
9.86405e-05
1.38783e-07
-1.22997e-07
0.000101155
1.02273e-07
-1.22484e-07
0.000100348
6.79837e-08
-1.22561e-07
0.000100345
3.39899e-08
-1.22852e-07
0.000100332
-2.5568e-09
-1.23196e-07
0.000100339
-4.44651e-08
-1.2358e-07
0.000100367
-9.32135e-08
-1.24136e-07
0.000100384
-2.58647e-07
-1.24953e-07
0.000101127
-1.24421e-07
9.87877e-05
3.1496e-07
-2.96373e-07
9.94222e-05
1.39262e-07
-2.98271e-07
0.000101947
1.02151e-07
-2.95995e-07
0.000101133
6.785e-08
-2.9698e-07
0.000101132
3.3661e-08
-2.96842e-07
0.000101118
-3.05453e-09
-2.97103e-07
0.000101126
-4.49153e-08
-2.97714e-07
0.000101154
-9.41431e-08
-2.97184e-07
0.00010117
-2.61438e-07
-2.99361e-07
0.00010192
-2.9805e-07
9.95699e-05
3.13206e-07
9.69647e-05
1.37776e-07
9.94765e-05
1.01516e-07
9.86728e-05
6.71856e-08
9.86685e-05
3.33572e-08
9.8655e-05
-2.95912e-09
9.86618e-05
-4.47283e-08
9.86889e-05
-9.296e-08
9.87061e-05
-2.59667e-07
9.94473e-05
9.71082e-05
3.25952e-07
2.98307e-07
9.63433e-05
1.50389e-07
3.00128e-07
9.9362e-05
1.15946e-07
2.96944e-07
9.84184e-05
8.41485e-08
2.97496e-07
9.84124e-05
5.13727e-08
2.96416e-07
9.84032e-05
1.52863e-08
2.95784e-07
9.84167e-05
-2.66587e-08
2.95616e-07
9.84532e-05
-7.78177e-08
2.93984e-07
9.84848e-05
-2.35173e-07
2.96111e-07
9.9324e-05
2.93366e-07
9.66206e-05
3.27442e-07
1.23297e-07
9.92644e-05
1.5156e-07
1.24662e-07
0.000102297
1.15792e-07
1.23682e-07
0.000101339
8.38024e-08
1.23152e-07
0.000101335
5.03198e-08
1.22689e-07
0.000101322
1.35918e-08
1.22133e-07
0.000101334
-2.83737e-08
1.21528e-07
0.000101369
-8.04751e-08
1.21022e-07
0.000101394
-2.38817e-07
1.21358e-07
0.000102246
1.18755e-07
9.95194e-05
3.24468e-07
7.82519e-08
9.83602e-05
1.50657e-07
7.83734e-08
0.000101379
1.15493e-07
7.80123e-08
0.000100431
8.3372e-08
7.74116e-08
0.000100426
5.00282e-08
7.6793e-08
0.000100414
1.34472e-08
7.60257e-08
0.000100426
-2.85881e-08
7.51461e-08
0.000100462
-8.00132e-08
7.42684e-08
0.00010049
-2.36455e-07
7.37767e-08
0.000101335
7.15282e-08
9.86208e-05
3.25122e-07
3.71566e-08
9.83475e-05
1.50148e-07
3.72109e-08
0.000101368
1.14885e-07
3.674e-08
0.000100419
8.26422e-08
3.60967e-08
0.000100414
4.9209e-08
3.5351e-08
0.000100403
1.25821e-08
3.44022e-08
0.000100414
-2.94409e-08
3.32849e-08
0.000100449
-8.07223e-08
3.20692e-08
0.000100477
-2.38659e-07
3.13901e-08
0.000101325
2.83289e-08
9.86034e-05
3.24215e-07
-2.38626e-09
9.83282e-05
1.49764e-07
-2.8937e-09
0.000101347
1.14332e-07
-3.1881e-09
0.000100398
8.18929e-08
-3.79453e-09
0.000100393
4.82678e-08
-4.59524e-09
0.000100381
1.14726e-08
-5.62382e-09
0.000100393
-3.06485e-08
-6.85997e-09
0.000100427
-8.18738e-08
-8.31711e-09
0.000100454
-2.40084e-07
-9.3517e-09
0.000101303
-1.24692e-08
9.85761e-05
3.23837e-07
-4.17019e-08
9.83286e-05
1.49367e-07
-4.27182e-08
0.000101346
1.13735e-07
-4.28013e-08
0.000100398
8.10752e-08
-4.33013e-08
0.000100392
4.72232e-08
-4.40577e-08
0.00010038
1.0219e-08
-4.50296e-08
0.000100391
-3.20455e-08
-4.62067e-08
0.000100425
-8.32727e-08
-4.76735e-08
0.000100451
-2.42523e-07
-4.88775e-08
0.000101302
-5.1448e-08
9.85665e-05
3.24036e-07
-8.21614e-08
9.83487e-05
1.49005e-07
-8.30935e-08
0.000101366
1.13172e-07
-8.31934e-08
0.000100418
8.0299e-08
-8.35422e-08
0.000100412
4.62249e-08
-8.41536e-08
0.0001004
9.01402e-09
-8.49351e-08
0.000100411
-3.33953e-08
-8.58671e-08
0.000100444
-8.46636e-08
-8.70647e-08
0.000100469
-2.45482e-07
-8.79457e-08
0.000101322
-8.97918e-08
9.85765e-05
3.22744e-07
-1.26238e-07
9.8362e-05
1.48857e-07
-1.28201e-07
0.000101375
1.12809e-07
-1.27552e-07
0.000100429
7.97223e-08
-1.27701e-07
0.000100423
4.54172e-08
-1.28102e-07
0.00010041
7.98669e-09
-1.28603e-07
0.000100421
-3.45745e-08
-1.29186e-07
0.000100453
-8.58943e-08
-1.29983e-07
0.000100478
-2.46429e-07
-1.31087e-07
0.000101331
-1.30663e-07
9.85823e-05
3.2543e-07
-3.01621e-07
9.92723e-05
1.49448e-07
-3.04048e-07
0.000102299
1.12639e-07
-3.01211e-07
0.000101344
7.95225e-08
-3.02456e-07
0.00010134
4.49275e-08
-3.0221e-07
0.000101327
7.23762e-09
-3.02542e-07
0.000101338
-3.5287e-08
-3.03362e-07
0.000101371
-8.72092e-08
-3.02645e-07
0.000101395
-2.50071e-07
-3.05068e-07
0.000102257
-3.02959e-07
9.94922e-05
3.23252e-07
9.63399e-05
1.47605e-07
9.93482e-05
1.11848e-07
9.84075e-05
7.86715e-08
9.83993e-05
4.4612e-08
9.8387e-05
7.52545e-09
9.83965e-05
-3.48376e-08
9.84281e-05
-8.54167e-08
9.84541e-05
-2.47042e-07
9.9304e-05
9.65583e-05
3.35094e-07
3.00276e-07
9.5708e-05
1.6063e-07
3.02486e-07
9.92341e-05
1.28123e-07
2.98657e-07
9.81524e-05
9.91509e-08
2.99243e-07
9.81423e-05
6.83214e-08
2.97811e-07
9.81363e-05
3.38234e-08
2.96975e-07
9.81544e-05
-6.67043e-09
2.96749e-07
9.8197e-05
-5.85501e-08
2.94724e-07
9.82421e-05
-2.01702e-07
2.97052e-07
9.91702e-05
2.93882e-07
9.61251e-05
3.36783e-07
1.25855e-07
9.91021e-05
1.6191e-07
1.27456e-07
0.000102647
1.27809e-07
1.26234e-07
0.000101546
9.85685e-08
1.25554e-07
0.000101538
6.67676e-08
1.24909e-07
0.000101527
3.13771e-08
1.24136e-07
0.000101542
-9.18191e-09
1.23297e-07
0.000101583
-6.21497e-08
1.225e-07
0.00010162
-2.06688e-07
1.22858e-07
0.000102565
1.19617e-07
9.94871e-05
3.33259e-07
7.95792e-08
9.80733e-05
1.6081e-07
7.97129e-08
0.000101599
1.27426e-07
7.92212e-08
0.000100511
9.80221e-08
7.84243e-08
0.000100502
6.64009e-08
7.75687e-08
0.000100493
3.1201e-08
7.64798e-08
0.000100509
-9.43061e-09
7.52028e-08
0.000100551
-6.1579e-08
7.38218e-08
0.000100591
-2.0379e-07
7.3046e-08
0.000101527
6.96292e-08
9.84672e-05
3.33971e-07
3.79062e-08
9.80554e-05
1.60157e-07
3.79686e-08
0.000101584
1.26615e-07
3.73401e-08
0.000100495
9.70159e-08
3.64629e-08
0.000100486
6.5237e-08
3.54176e-08
0.000100477
2.99215e-08
3.40432e-08
0.000100492
-1.07562e-08
3.23651e-08
0.000100533
-6.2749e-08
3.03948e-08
0.000100573
-2.06785e-07
2.92113e-08
0.000101513
2.42245e-08
9.84421e-05
3.32761e-07
-2.9131e-09
9.80364e-05
1.59622e-07
-3.59014e-09
0.000101561
1.25853e-07
-3.98649e-09
0.000100474
9.59611e-08
-4.82793e-09
0.000100464
6.38709e-08
-5.96075e-09
0.000100455
2.82473e-08
-7.47396e-09
0.00010047
-1.26781e-08
-9.37824e-09
0.00010051
-6.46719e-08
-1.17871e-08
0.000100549
-2.09381e-07
-1.3644e-08
0.000101491
-1.93649e-08
9.84105e-05
3.32259e-07
-4.34543e-08
9.8037e-05
1.59077e-07
-4.47988e-08
0.00010156
1.25023e-07
-4.49143e-08
0.000100473
9.47926e-08
-4.56193e-08
0.000100464
6.23246e-08
-4.66908e-08
0.000100454
2.62988e-08
-4.81276e-08
0.000100468
-1.49952e-08
-4.99545e-08
0.000100507
-6.71583e-08
-5.23829e-08
0.000100544
-2.13874e-07
-5.4529e-08
0.00010149
-5.98038e-08
9.83932e-05
3.32536e-07
-8.43521e-08
9.80572e-05
1.58596e-07
-8.55608e-08
0.000101581
1.24243e-07
-8.56835e-08
0.000100493
9.36855e-08
-8.61894e-08
0.000100484
6.08448e-08
-8.70456e-08
0.000100473
2.44189e-08
-8.81843e-08
0.000100487
-1.72646e-08
-8.96074e-08
0.000100525
-6.96744e-08
-9.15059e-08
0.000100561
-2.19256e-07
-9.30184e-08
0.00010151
-9.67102e-08
9.83944e-05
3.30977e-07
-1.29461e-07
9.80763e-05
1.58351e-07
-1.31856e-07
0.000101594
1.23715e-07
-1.31071e-07
0.000100509
9.28529e-08
-1.31317e-07
0.000100499
5.96554e-08
-1.31852e-07
0.000100489
2.28583e-08
-1.32561e-07
0.000100502
-1.91332e-08
-1.33413e-07
0.00010054
-7.17376e-08
-1.34547e-07
0.000100574
-2.21663e-07
-1.35975e-07
0.000101524
-1.3602e-07
9.84001e-05
3.34136e-07
-3.04302e-07
9.91131e-05
1.59043e-07
-3.07288e-07
0.000102649
1.23478e-07
-3.03902e-07
0.000101552
9.2548e-08
-3.05389e-07
0.000101545
5.89426e-08
-3.05026e-07
0.000101534
2.17674e-08
-3.05416e-07
0.000101548
-2.0234e-08
-3.0638e-07
0.000101587
-7.35511e-08
-3.05341e-07
0.000101619
-2.26396e-07
-3.07516e-07
0.000102582
-3.03389e-07
9.94334e-05
3.31547e-07
9.57041e-05
1.5687e-07
9.92157e-05
1.22543e-07
9.8138e-05
9.15501e-08
9.8125e-05
5.87097e-08
9.81149e-05
2.24389e-08
9.81276e-05
-1.91618e-08
9.81635e-05
-7.058e-08
9.82004e-05
-2.20543e-07
9.91467e-05
9.60346e-05
3.43955e-07
3.0096e-07
9.50632e-05
1.71525e-07
3.0357e-07
9.9103e-05
1.41727e-07
2.99119e-07
9.78832e-05
1.16605e-07
2.99692e-07
9.78678e-05
8.93812e-08
2.97892e-07
9.78658e-05
5.86034e-08
2.96831e-07
9.78884e-05
2.19988e-08
2.9652e-07
9.79372e-05
-2.82103e-08
2.94095e-07
9.79983e-05
-1.45083e-07
2.96451e-07
9.89907e-05
2.93085e-07
9.5687e-05
3.4579e-07
1.27762e-07
9.89297e-05
1.72833e-07
1.29569e-07
0.000102994
1.41179e-07
1.28097e-07
0.000101748
1.15674e-07
1.27241e-07
0.000101736
8.71672e-08
1.26376e-07
0.000101727
5.51993e-08
1.25341e-07
0.000101745
1.83985e-08
1.24225e-07
0.000101792
-3.30503e-08
1.2308e-07
0.000101842
-1.52181e-07
1.23535e-07
0.000102857
1.2016e-07
9.95078e-05
3.41762e-07
8.03931e-08
9.7779e-05
1.71546e-07
8.05294e-08
0.000101818
1.40714e-07
7.98892e-08
0.00010059
1.15015e-07
7.88572e-08
0.000100576
8.6732e-08
7.77109e-08
0.000100571
5.50079e-08
7.62134e-08
0.00010059
1.81665e-08
7.44147e-08
0.000100637
-3.2234e-08
7.22764e-08
0.000100692
-1.47925e-07
7.10366e-08
0.000101695
6.56582e-08
9.83737e-05
3.42481e-07
3.82255e-08
9.77552e-05
1.70721e-07
3.82738e-08
0.000101798
1.39657e-07
3.74683e-08
0.000100568
1.1367e-07
3.63064e-08
0.000100554
8.51309e-08
3.48843e-08
0.000100548
5.31852e-08
3.29515e-08
0.000100568
1.61664e-08
3.04931e-08
0.000100614
-3.41132e-08
2.7346e-08
0.000100668
-1.52197e-07
2.54172e-08
0.000101677
1.71947e-08
9.83384e-05
3.40953e-07
-3.47443e-09
9.77373e-05
1.70001e-07
-4.35168e-09
0.000101775
1.38638e-07
-4.87062e-09
0.000100547
1.12227e-07
-6.00347e-09
0.000100533
8.32001e-08
-7.56141e-09
0.000100527
5.07116e-08
-9.73144e-09
0.000100545
1.31476e-08
-1.26104e-08
0.000100591
-3.72967e-08
-1.6588e-08
0.000100643
-1.56719e-07
-1.98357e-08
0.000101656
-3.10811e-08
9.83023e-05
3.40305e-07
-4.48415e-08
9.77382e-05
1.69274e-07
-4.65492e-08
0.000101774
1.37515e-07
-4.67154e-08
0.000100547
1.10601e-07
-4.76774e-08
0.000100532
8.09595e-08
-4.91548e-08
0.000100525
4.77281e-08
-5.12281e-08
0.000100543
9.3157e-09