/*--------------------------------*- C++ -*----------------------------------*\
  =========                 |
  \\      /  F ield         | OpenFOAM: The Open Source CFD Toolbox
   \\    /   O peration     | Website:  https://openfoam.org
    \\  /    A nd           | Version:  7
     \\/     M anipulation  |
\*---------------------------------------------------------------------------*/
FoamFile
{
    version     2.0;
    format      ascii;
    class       volVectorField;
    location    "300";
    object      U;
}
// * * * * * * * * * * * * * * * * * * * * * * * * * * * * * * * * * * * * * //

dimensions      [0 1 -1 0 0 0 0];

internalField   nonuniform List<vector> 
3000
(
(0.000610781 0.000602282 0.997859)
(0.000778311 0.000603207 0.999412)
(0.000236569 0.000602728 0.998941)
(0.000111095 0.000602632 0.998942)
(5.35993e-05 0.000602519 0.998946)
(-7.49677e-06 0.00060237 0.998946)
(-6.95853e-05 0.000602203 0.998944)
(-0.000202244 0.000602064 0.998944)
(-0.000743845 0.000602344 0.999405)
(-0.000591596 0.000601184 0.997873)
(0.000611704 0.00076266 0.999403)
(0.000778476 0.000762827 1.00096)
(0.000236152 0.000762649 1.00049)
(0.000110788 0.00076237 1.00049)
(5.33222e-05 0.000762131 1.00049)
(-7.79738e-06 0.000761872 1.00049)
(-6.97951e-05 0.000761621 1.00049)
(-0.000202258 0.000761481 1.00049)
(-0.000744449 0.000761323 1.00095)
(-0.000592763 0.000760704 0.999415)
(0.000611238 0.000220022 0.998937)
(0.000778309 0.00021963 1.00049)
(0.000236042 0.000219524 1.00002)
(0.000110616 0.000219309 1.00002)
(5.31211e-05 0.000219065 1.00002)
(-8.01339e-06 0.000218816 1.00002)
(-7.00035e-05 0.000218582 1.00002)
(-0.000202469 0.000218387 1.00002)
(-0.000744619 0.000218159 1.00048)
(-0.000592491 0.000218102 0.99895)
(0.000611161 9.01631e-05 0.998937)
(0.000778057 8.99052e-05 1.00049)
(0.000235834 8.97493e-05 1.00002)
(0.00011036 8.95026e-05 1.00002)
(5.28449e-05 8.92117e-05 1.00002)
(-8.28481e-06 8.89036e-05 1.00002)
(-7.02444e-05 8.86055e-05 1.00002)
(-0.000202677 8.83489e-05 1.00002)
(-0.000744805 8.80924e-05 1.00048)
(-0.000592664 8.77989e-05 0.99895)
(0.000611081 2.94125e-05 0.99894)
(0.000777864 2.92149e-05 1.00049)
(0.000235614 2.90445e-05 1.00002)
(0.000110078 2.8798e-05 1.00002)
(5.25224e-05 2.84904e-05 1.00003)
(-8.62022e-06 2.81457e-05 1.00003)
(-7.05585e-05 2.77942e-05 1.00003)
(-0.000202957 2.74767e-05 1.00003)
(-0.000745142 2.71827e-05 1.00049)
(-0.000592887 2.67601e-05 0.998953)
(0.000610982 -3.26394e-05 0.99894)
(0.000777679 -3.28338e-05 1.00049)
(0.000235408 -3.30021e-05 1.00002)
(0.000109806 -3.32186e-05 1.00002)
(5.21925e-05 -3.35074e-05 1.00003)
(-8.98114e-06 -3.38491e-05 1.00003)
(-7.09132e-05 -3.42142e-05 1.00003)
(-0.00020328 -3.4558e-05 1.00003)
(-0.000745517 -3.4853e-05 1.00049)
(-0.000593109 -3.52764e-05 0.998952)
(0.000610874 -9.30457e-05 0.998937)
(0.000777519 -9.31375e-05 1.00049)
(0.00023524 -9.32827e-05 1.00002)
(0.000109573 -9.34476e-05 1.00002)
(5.18921e-05 -9.3686e-05 1.00002)
(-9.32689e-06 -9.39862e-05 1.00002)
(-7.12677e-05 -9.43221e-05 1.00002)
(-0.000203607 -9.46487e-05 1.00002)
(-0.000745883 -9.49115e-05 1.00048)
(-0.000593302 -9.53586e-05 0.998949)
(0.000610794 -0.000222358 0.998937)
(0.000777478 -0.000222248 1.00049)
(0.000235125 -0.000222384 1.00002)
(0.000109403 -0.000222499 1.00002)
(5.16537e-05 -0.000222678 1.00002)
(-9.61653e-06 -0.000222913 1.00002)
(-7.15755e-05 -0.000223182 1.00002)
(-0.000203896 -0.000223448 1.00002)
(-0.000746267 -0.000223626 1.00048)
(-0.000593465 -0.000224148 0.998948)
(0.000611139 -0.000764946 0.999404)
(0.00077742 -0.000765387 1.00096)
(0.000234987 -0.000765442 1.00049)
(0.000109248 -0.000765481 1.00049)
(5.14621e-05 -0.000765647 1.00049)
(-9.82602e-06 -0.000765851 1.00049)
(-7.17813e-05 -0.000766076 1.00049)
(-0.000204055 -0.000766368 1.00049)
(-0.000746521 -0.000766587 1.00095)
(-0.000593989 -0.000766509 0.999415)
(0.000610069 -0.000603544 0.997859)
(0.000776981 -0.000604619 0.99941)
(0.000235104 -0.000604268 0.99894)
(0.000109162 -0.000604347 0.998941)
(5.12679e-05 -0.000604456 0.998944)
(-1.00336e-05 -0.00060456 0.998944)
(-7.20605e-05 -0.000604652 0.998942)
(-0.000204478 -0.000604746 0.998942)
(-0.000746417 -0.000605232 0.999403)
(-0.000593115 -0.000604363 0.997869)
(0.00149999 0.0014729 0.994293)
(0.0017822 0.00147863 0.999199)
(0.000489488 0.00147542 0.997302)
(0.000341814 0.00147565 0.997297)
(0.000169006 0.00147534 0.997292)
(-2.52736e-05 0.0014749 0.997297)
(-0.000211539 0.00147439 0.997313)
(-0.00038537 0.00147349 0.997329)
(-0.00167539 0.00147608 0.999172)
(-0.00143721 0.00146974 0.994387)
(0.00150567 0.00173494 0.999148)
(0.00178413 0.00173688 1.00406)
(0.000488521 0.00173546 1.00216)
(0.000341428 0.00173494 1.00216)
(0.00016836 0.00173438 1.00215)
(-2.62016e-05 0.0017337 1.00216)
(-0.000212562 0.00173295 1.00217)
(-0.000385558 0.00173236 1.00218)
(-0.00167852 0.00173291 1.00403)
(-0.00144359 0.0017297 0.999235)
(0.00150253 0.000440249 0.997276)
(0.00178276 0.000439351 1.00219)
(0.00048839 0.000439221 1.00029)
(0.000341065 0.000438615 1.00028)
(0.000167936 0.000438018 1.00028)
(-2.67121e-05 0.000437407 1.00028)
(-0.000213069 0.000436819 1.0003)
(-0.000386124 0.000436401 1.00031)
(-0.00167797 0.000435784 1.00216)
(-0.00144098 0.000435427 0.997365)
(0.00150282 0.00027734 0.997267)
(0.00178232 0.000277087 1.00218)
(0.000487803 0.000276754 1.00028)
(0.000340334 0.000276045 1.00027)
(0.00016721 0.000275286 1.00027)
(-2.74076e-05 0.000274492 1.00027)
(-0.000213627 0.000273726 1.00029)
(-0.000386568 0.000273129 1.0003)
(-0.00167868 0.000272496 1.00215)
(-0.00144198 0.000271162 0.997354)
(0.00150261 9.4724e-05 0.997257)
(0.0017819 9.42963e-05 1.00217)
(0.000487262 9.39272e-05 1.00027)
(0.000339599 9.32836e-05 1.00026)
(0.000166386 9.24998e-05 1.00026)
(-2.82708e-05 9.16227e-05 1.00026)
(-0.00021443 9.07165e-05 1.00028)
(-0.000387264 8.99091e-05 1.00029)
(-0.00167965 8.91976e-05 1.00214)
(-0.00144264 8.7834e-05 0.997343)
(0.00150234 -0.000102799 0.997257)
(0.00178143 -0.000103428 1.00217)
(0.000486757 -0.000103847 1.00027)
(0.000338906 -0.000104385 1.00026)
(0.000165549 -0.00010512 1.00026)
(-2.91902e-05 -0.000105985 1.00026)
(-0.000215339 -0.000106918 1.00028)
(-0.000388051 -0.000107813 1.00029)
(-0.00168064 -0.000108468 1.00214)
(-0.00144328 -0.000109626 0.997341)
(0.00150202 -0.000284581 0.997267)
(0.00178094 -0.000285274 1.00218)
(0.000486337 -0.000285643 1.00028)
(0.000338325 -0.000285988 1.00027)
(0.000164785 -0.00028658 1.00027)
(-3.00696e-05 -0.000287334 1.00027)
(-0.000216258 -0.000288197 1.00029)
(-0.000388845 -0.000289104 1.0003)
(-0.00168153 -0.000289671 1.00215)
(-0.00144383 -0.000290549 0.997349)
(0.00150129 -0.000445866 0.997276)
(0.00178063 -0.0004457 1.00219)
(0.000486129 -0.000446107 1.00029)
(0.000337968 -0.000446311 1.00028)
(0.0001642 -0.000446748 1.00028)
(-3.08087e-05 -0.000447317 1.00028)
(-0.000217112 -0.000447968 1.00029)
(-0.000389612 -0.000448681 1.00031)
(-0.00168233 -0.000448956 1.00216)
(-0.0014438 -0.000450281 0.997357)
(0.00150413 -0.00174065 0.999153)
(0.00178147 -0.00174332 1.00406)
(0.000485708 -0.00174245 1.00217)
(0.000337573 -0.00174274 1.00216)
(0.000163719 -0.00174321 1.00216)
(-3.12839e-05 -0.0017437 1.00216)
(-0.000217562 -0.00174418 1.00217)
(-0.000389856 -0.00174469 1.00219)
(-0.00168392 -0.00174613 1.00404)
(-0.00144711 -0.0017445 0.999235)
(0.001498 -0.00147631 0.994291)
(0.00177878 -0.00148247 0.999192)
(0.000485862 -0.00147959 0.997297)
(0.000336857 -0.0014803 0.997291)
(0.000163047 -0.0014806 0.997284)
(-3.17782e-05 -0.00148086 0.997288)
(-0.000217919 -0.00148107 0.997302)
(-0.000390866 -0.00148082 0.997316)
(-0.0016822 -0.00148396 0.999163)
(-0.00144159 -0.0014785 0.994368)
(0.00205297 0.0020038 0.990007)
(0.00225102 0.00201585 0.998808)
(0.000534971 0.00200783 0.995467)
(0.000550411 0.00200893 0.995457)
(0.000271444 0.00200811 0.995409)
(-1.84215e-05 0.00200725 0.995424)
(-0.000319308 0.00200643 0.9955)
(-0.000354976 0.00200397 0.995539)
(-0.00206167 0.00201068 0.998757)
(-0.0019362 0.00199754 0.99026)
(0.00206485 0.00216915 0.998685)
(0.00225547 0.0021737 1.0075)
(0.000533834 0.00216903 1.00415)
(0.000550444 0.00216849 1.00414)
(0.000270272 0.00216742 1.00409)
(-2.03567e-05 0.00216614 1.00411)
(-0.000322145 0.00216474 1.00418)
(-0.000356104 0.00216313 1.00421)
(-0.00206857 0.00216615 1.00744)
(-0.00194955 0.0021592 0.998917)
(0.002057 0.000450891 0.995399)
(0.00225095 0.000449905 1.00421)
(0.000533551 0.000449605 1.00086)
(0.000549689 0.000448357 1.00085)
(0.00026954 0.000447304 1.0008)
(-2.12063e-05 0.000446174 1.00081)
(-0.000322898 0.000445022 1.00089)
(-0.000356965 0.000444322 1.00093)
(-0.00206552 0.000443344 1.00415)
(-0.00194277 0.000441838 0.995637)
(0.00205824 0.000436985 0.995378)
(0.00225058 0.000437287 1.00419)
(0.000532329 0.000436561 1.00084)
(0.000548258 0.000435176 1.00083)
(0.000268146 0.000433767 1.00078)
(-2.25953e-05 0.00043223 1.00079)
(-0.000324015 0.000430667 1.00087)
(-0.000357719 0.000429455 1.0009)
(-0.0020674 0.000428429 1.00413)
(-0.00194546 0.000424863 0.995612)
(0.00205764 0.000140992 0.995319)
(0.00224978 0.000140254 1.00413)
(0.000531377 0.000139591 1.00078)
(0.000546902 0.000138374 1.00077)
(0.000266597 0.000136902 1.00072)
(-2.4295e-05 0.000135213 1.00073)
(-0.000325664 0.000133406 1.00081)
(-0.000359116 0.000131743 1.00084)
(-0.00206935 0.000130457 1.00407)
(-0.00194667 0.000127469 0.995548)
(0.00205711 -0.000155321 0.995319)
(0.0022489 -0.000156654 1.00413)
(0.000530445 -0.000157365 1.00078)
(0.000545577 -0.000158415 1.00077)
(0.000264989 -0.000159852 1.00072)
(-2.6087e-05 -0.000161529 1.00073)
(-0.000327483 -0.000163344 1.00081)
(-0.00036065 -0.000165148 1.00084)
(-0.00207137 -0.000166374 1.00407)
(-0.00194806 -0.000168784 0.995543)
(0.00205669 -0.000449949 0.995379)
(0.00224801 -0.000452119 1.00418)
(0.000529621 -0.000452624 1.00084)
(0.000544409 -0.000453274 1.00083)
(0.000263479 -0.000454469 1.00078)
(-2.77912e-05 -0.000455937 1.00079)
(-0.000329282 -0.000457598 1.00086)
(-0.000362158 -0.000459456 1.0009)
(-0.00207323 -0.000460651 1.00413)
(-0.00194945 -0.000461811 0.995598)
(0.00205459 -0.000460589 0.9954)
(0.00224696 -0.000461004 1.0042)
(0.000529353 -0.00046161 1.00086)
(0.000543726 -0.000461873 1.00085)
(0.00026232 -0.000462746 1.0008)
(-2.92311e-05 -0.000463828 1.00081)
(-0.000331012 -0.000465038 1.00088)
(-0.000363787 -0.000466573 1.00091)
(-0.00207444 -0.000467162 1.00414)
(-0.00194885 -0.000469104 0.995614)
(0.0020619 -0.00217929 0.998694)
(0.00225061 -0.00218527 1.00751)
(0.00052871 -0.00218153 1.00416)
(0.000543157 -0.00218253 1.00415)
(0.000261465 -0.00218341 1.0041)
(-3.0129e-05 -0.00218434 1.00411)
(-0.000332009 -0.00218527 1.00418)
(-0.000364344 -0.00218582 1.00422)
(-0.0020794 -0.00219038 1.00745)
(-0.001957 -0.00218661 0.998911)
(0.00204909 -0.00201024 0.990001)
(0.00224466 -0.00202316 0.998791)
(0.000528286 -0.00201574 0.995454)
(0.000540947 -0.0020178 0.995441)
(0.000260048 -0.00201819 0.99539)
(-3.10078e-05 -0.0020187 0.9954)
(-0.000331932 -0.00201932 0.995472)
(-0.000365503 -0.00201817 0.995507)
(-0.00207529 -0.00202587 0.998732)
(-0.00194545 -0.00201456 0.990207)
(0.00243063 0.0023548 0.984671)
(0.00248578 0.00237402 0.997864)
(0.000526182 0.0023599 0.993189)
(0.000737995 0.00236237 0.993189)
(0.000351651 0.00236048 0.993096)
(3.24188e-05 0.00235902 0.993125)
(-0.000384027 0.00235812 0.993276)
(-0.000254616 0.00235337 0.993333)
(-0.00219321 0.00236512 0.997783)
(-0.00224331 0.00234429 0.985177)
(0.00244941 0.00236398 0.997632)
(0.00249289 0.0023714 1.01086)
(0.00052504 0.00236228 1.00616)
(0.000738757 0.00236188 1.00616)
(0.000349634 0.00235985 1.00606)
(2.90586e-05 0.00235776 1.00609)
(-0.000389679 0.00235577 1.00623)
(-0.000257413 0.00235261 1.00628)
(-0.00220469 0.00235896 1.01075)
(-0.00226477 0.00234765 0.998099)
(0.00243567 0.000402146 0.993058)
(0.00248409 0.000401326 1.00626)
(0.000524668 0.000400896 1.00157)
(0.000737256 0.000398674 1.00157)
(0.00034844 0.000397054 1.00148)
(2.78912e-05 0.000395218 1.0015)
(-0.000390472 0.000393254 1.00165)
(-0.000258702 0.000392219 1.0017)
(-0.00219821 0.000390687 1.00616)
(-0.00225282 0.000387224 0.993535)
(0.00243836 0.000566684 0.993037)
(0.00248397 0.000567988 1.00624)
(0.000522474 0.000566485 1.00155)
(0.000734929 0.000564241 1.00155)
(0.000346137 0.000561989 1.00146)
(2.54915e-05 0.000559416 1.00148)
(-0.000392495 0.000556682 1.00163)
(-0.000259843 0.00055445 1.00168)
(-0.00220195 0.000553103 1.00615)
(-0.0022581 0.000546008 0.993506)
(0.00243686 0.000154617 0.992921)
(0.00248239 0.00015343 1.00612)
(0.000521019 0.000152308 1.00143)
(0.000732777 0.000150334 1.00144)
(0.000343616 0.000147944 1.00134)
(2.26157e-05 0.000145127 1.00136)
(-0.000395415 0.000142024 1.00151)
(-0.000262307 0.000139033 1.00156)
(-0.00220513 0.000136995 1.00603)
(-0.00225987 0.00013145 0.993379)
(0.00243599 -0.000175979 0.992921)
(0.00248099 -0.000178199 1.00612)
(0.000519526 -0.000179172 1.00143)
(0.000730593 -0.000180937 1.00143)
(0.000340941 -0.000183343 1.00134)
(1.9582e-05 -0.00018616 1.00136)
(-0.000398588 -0.000189237 1.00151)
(-0.000264981 -0.000192417 1.00155)
(-0.00220881 -0.000194599 1.00603)
(-0.00226248 -0.000199203 0.993368)
(0.00243582 -0.000586212 0.993039)
(0.00247989 -0.000590607 1.00623)
(0.000518136 -0.000590996 1.00155)
(0.000728586 -0.000592128 1.00155)
(0.000338383 -0.000594185 1.00145)
(1.67091e-05 -0.000596659 1.00148)
(-0.000401665 -0.000599435 1.00162)
(-0.000267556 -0.000602667 1.00167)
(-0.00221254 -0.00060503 1.00614)
(-0.0022656 -0.000606766 0.993474)
(0.00243169 -0.000416362 0.993059)
(0.00247771 -0.000417814 1.00625)
(0.000517907 -0.000418736 1.00157)
(0.000727387 -0.000418964 1.00157)
(0.0003364 -0.000420454 1.00147)
(1.42905e-05 -0.000422237 1.00149)
(-0.00040462 -0.000424204 1.00163)
(-0.000270555 -0.000427036 1.00168)
(-0.00221436 -0.000428017 1.00615)
(-0.00226422 -0.000430822 0.993486)
(0.00244461 -0.00237918 0.99765)
(0.00248522 -0.00238892 1.01086)
(0.000516907 -0.00238121 1.00617)
(0.000726863 -0.00238331 1.00617)
(0.000335153 -0.0023844 1.00607)
(1.27249e-05 -0.0023859 1.0061)
(-0.00040664 -0.00238771 1.00624)
(-0.000271505 -0.00238818 1.00628)
(-0.00222406 -0.00239695 1.01077)
(-0.00227859 -0.00239104 0.99808)
(0.00242427 -0.00236493 0.98466)
(0.00247565 -0.00238561 0.997831)
(0.000515504 -0.00237243 0.993163)
(0.000722478 -0.0023765 0.993158)
(0.000332866 -0.00237662 0.993058)
(1.13902e-05 -0.00237745 0.993079)
(-0.000405648 -0.00237895 0.993221)
(-0.000272516 -0.00237644 0.993269)
(-0.00221718 -0.00238979 0.997733)
(-0.00226011 -0.002372 0.985069)
(0.0027296 0.00262165 0.978784)
(0.00265535 0.0026485 0.996663)
(0.000544129 0.00262768 0.990667)
(0.000920429 0.00263187 0.990673)
(0.000420467 0.00262826 0.990555)
(0.000127287 0.00262602 0.990605)
(-0.000410703 0.00262529 0.990822)
(-0.00015518 0.00261755 0.990912)
(-0.00222666 0.00263446 0.996542)
(-0.00244731 0.00260544 0.97967)
(0.00275553 0.00248632 0.996284)
(0.0026648 0.0024965 1.01421)
(0.000542794 0.00248269 1.00817)
(0.000921902 0.00248248 1.00818)
(0.000417049 0.00247892 1.00805)
(0.000121951 0.00247577 1.0081)
(-0.000420212 0.00247321 1.00831)
(-0.000160331 0.00246794 1.00838)
(-0.00224348 0.00247744 1.01405)
(-0.00247786 0.00246134 0.997099)
(0.00273541 0.000372251 0.990447)
(0.00265158 0.00037156 1.00833)
(0.000542625 0.000371254 1.00232)
(0.000919326 0.000367726 1.00232)
(0.000415259 0.000365408 1.0022)
(0.000120428 0.000362595 1.00225)
(-0.000420909 0.000359438 1.00246)
(-0.000162437 0.000357831 1.00254)
(-0.00223367 0.000355235 1.00819)
(-0.00246053 0.000348963 0.991279)
(0.00273995 0.000678673 0.99042)
(0.0026518 0.0006812 1.00831)
(0.000539119 0.000678536 1.00229)
(0.000915894 0.000675246 1.0023)
(0.000411699 0.000671845 1.00218)
(0.00011659 0.000667819 1.00222)
(-0.000424402 0.000663407 1.00243)
(-0.00016425 0.000659471 1.00251)
(-0.00224014 0.000657667 1.00817)
(-0.00246933 0.00064545 0.991238)
(0.00273697 0.000141607 0.990263)
(0.00264895 0.000139726 1.00815)
(0.000537062 0.000137982 1.00213)
(0.00091267 0.000134989 1.00214)
(0.000407827 0.000131338 1.00201)
(0.000112053 0.000126922 1.00206)
(-0.000429212 0.000121936 1.00227)
(-0.000168412 0.000116858 1.00234)
(-0.00224515 0.00011363 1.008)
(-0.00247192 0.000103923 0.99106)
(0.00273566 -0.000170756 0.990264)
(0.00264687 -0.000174004 1.00814)
(0.000534819 -0.000175278 1.00213)
(0.000909312 -0.000178016 1.00214)
(0.000403651 -0.000181742 1.00201)
(0.000107208 -0.000186192 1.00205)
(-0.000434465 -0.000191156 1.00226)
(-0.000172916 -0.000196517 1.00233)
(-0.00225165 -0.000200259 1.008)
(-0.00247666 -0.000208891 0.991039)
(0.00273613 -0.000705582 0.990423)
(0.00264577 -0.000712783 1.0083)
(0.000532619 -0.000712859 1.00229)
(0.000906168 -0.000714758 1.00229)
(0.000399632 -0.000717998 1.00217)
(0.000102616 -0.00072191 1.00221)
(-0.000439515 -0.000726347 1.00241)
(-0.000177168 -0.000731601 1.00248)
(-0.00225871 -0.000735879 1.00816)
(-0.00248284 -0.000739408 0.991177)
(0.00272939 -0.000391456 0.990451)
(0.0026421 -0.000394146 1.00831)
(0.00053245 -0.000395765 1.00231)
(0.000904142 -0.000395944 1.00231)
(0.000396483 -0.000398333 1.00218)
(9.87684e-05 -0.000401109 1.00222)
(-0.000444206 -0.000404122 1.00243)
(-0.000182244 -0.000408885 1.0025)
(-0.00226182 -0.000410264 1.00817)
(-0.00248093 -0.00041472 0.991187)
(0.00274838 -0.00250718 0.996313)
(0.00265353 -0.00252079 1.01422)
(0.000530681 -0.00250898 1.00819)
(0.00090379 -0.00251252 1.0082)
(0.000394699 -0.00251362 1.00807)
(9.62225e-05 -0.00251585 1.00811)
(-0.000447843 -0.00251906 1.00832)
(-0.00018359 -0.00251945 1.00838)
(-0.0022767 -0.0025324 1.01409)
(-0.00250218 -0.00252477 0.997055)
(0.00272003 -0.00263609 0.978767)
(0.00264037 -0.00266513 0.99661)
(0.000528194 -0.00264569 0.990623)
(0.000896793 -0.00265233 0.99062)
(0.000391567 -0.00265176 0.990492)
(9.43834e-05 -0.00265298 0.990528)
(-0.000445513 -0.00265591 0.990729)
(-0.000184112 -0.00265164 0.990802)
(-0.00226674 -0.00267081 0.996458)
(-0.00247618 -0.00264639 0.979477)
(0.00297341 0.00282697 0.972728)
(0.00278888 0.00286164 0.995449)
(0.00058844 0.00283369 0.98809)
(0.00110306 0.00283973 0.98808)
(0.000492654 0.0028338 0.98796)
(0.000263627 0.00283052 0.988038)
(-0.000392093 0.00283008 0.988313)
(-4.406e-05 0.00281883 0.988471)
(-0.00217338 0.0028407 0.995263)
(-0.00255895 0.00280342 0.97416)
(0.00300642 0.00256358 0.994876)
(0.00280018 0.00257632 1.01768)
(0.000586663 0.00255768 1.01024)
(0.00110498 0.00255757 1.01024)
(0.000487021 0.00255195 1.0101)
(0.000255507 0.00254738 1.01017)
(-0.00040676 0.00254413 1.01043)
(-5.26699e-05 0.0025362 1.01056)
(-0.00219668 0.00254839 1.01742)
(-0.00259954 0.00252718 0.996192)
(0.00297961 0.000358403 0.987752)
(0.00278255 0.000357829 1.01047)
(0.000586889 0.000357782 1.00309)
(0.00110104 0.000352632 1.00309)
(0.000484562 0.000349439 1.00295)
(0.000253497 0.000345272 1.00302)
(-0.000407306 0.00034037 1.00329)
(-5.58843e-05 0.000337701 1.00343)
(-0.00218378 0.000333529 1.01026)
(-0.00257684 0.000323172 0.989097)
(0.00298617 0.000774681 0.987697)
(0.00278304 0.000778541 1.01043)
(0.000581746 0.000774341 1.00304)
(0.00109624 0.000769771 1.00304)
(0.000479251 0.000764771 1.00291)
(0.000247643 0.000758694 1.00297)
(-0.000413094 0.000751877 1.00324)
(-5.8934e-05 0.000745185 1.00338)
(-0.00219409 0.000742467 1.01021)
(-0.00259019 0.000722782 0.989017)
(0.00298118 0.000111479 0.987516)
(0.00277846 0.000108582 1.01024)
(0.000578955 0.000106084 1.00285)
(0.00109153 0.000101699 1.00285)
(0.000473475 9.62935e-05 1.00271)
(0.000240712 8.9574e-05 1.00278)
(-0.000420735 8.17856e-05 1.00305)
(-6.5831e-05 7.34141e-05 1.00318)
(-0.00220233 6.80295e-05 1.01002)
(-0.00259452 5.12321e-05 0.9888)
(0.0029793 -0.000149264 0.987518)
(0.0027755 -0.000153686 1.01023)
(0.000575702 -0.000155425 1.00285)
(0.00108656 -0.000159464 1.00284)
(0.000467158 -0.000165002 1.00271)
(0.000233166 -0.000171827 1.00277)
(-0.000429248 -0.000179681 1.00303)
(-7.34047e-05 -0.000188587 1.00316)
(-0.00221384 -0.000194978 1.01001)
(-0.00260298 -0.000211136 0.988761)
(0.00298072 -0.000809859 0.987703)
(0.00277449 -0.000820406 1.01042)
(0.000572356 -0.000820058 1.00303)
(0.0010819 -0.000823117 1.00303)
(0.000461081 -0.000827947 1.00289)
(0.000225995 -0.000833942 1.00295)
(-0.000437446 -0.000840924 1.00321)
(-8.04779e-05 -0.000849278 1.00333)
(-0.00222668 -0.000856604 1.01019)
(-0.0026142 -0.000864688 0.988906)
(0.00297098 -0.000383139 0.98776)
(0.00276907 -0.000387352 1.01045)
(0.000572154 -0.000389975 1.00308)
(0.00107862 -0.000390205 1.00307)
(0.000456298 -0.000393877 1.00293)
(0.000220025 -0.00039806 1.00299)
(-0.000444672 -0.00040257 1.00325)
(-8.86422e-05 -0.000410067 1.00337)
(-0.00223264 -0.000412155 1.01023)
(-0.00261266 -0.000419965 0.988932)
(0.00299624 -0.0025907 0.99492)
(0.00278429 -0.00260825 1.01769)
(0.000569261 -0.00259234 1.01026)
(0.00107845 -0.00259758 1.01027)
(0.00045367 -0.00259856 1.01013)
(0.000216124 -0.00260174 1.01019)
(-0.000450624 -0.00260679 1.01045)
(-9.0623e-05 -0.00260719 1.01057)
(-0.00225348 -0.00262405 1.01748)
(-0.00264164 -0.00261489 0.996099)
(0.00295974 -0.00284631 0.972704)
(0.00276772 -0.00288409 0.995367)
(0.000565594 -0.00285804 0.988024)
(0.00106858 -0.00286762 0.988001)
(0.000449878 -0.00286602 0.987863)
(0.000213914 -0.00286771 0.987919)
(-0.000446293 -0.00287248 0.988169)
(-8.99133e-05 -0.00286618 0.988297)
(-0.00223911 -0.00289099 0.995136)
(-0.00260696 -0.00285951 0.973841)
(0.00316971 0.0029775 0.966571)
(0.00288868 0.00302007 0.994239)
(0.000646552 0.00298458 0.985495)
(0.00128696 0.00299239 0.985455)
(0.000579866 0.0029836 0.985348)
(0.000443304 0.00297903 0.985462)
(-0.000314047 0.00297886 0.985796)
(0.000106322 0.00296373 0.986051)
(-0.00200902 0.00299018 0.993952)
(-0.0025665 0.00294493 0.968794)
(0.00320947 0.0025965 0.993418)
(0.00290127 0.00261163 1.0212)
(0.000644092 0.00258795 1.01234)
(0.00128885 0.00258764 1.01231)
(0.00057095 0.00257947 1.01218)
(0.000431251 0.0025731 1.01228)
(-0.000335627 0.00256887 1.0126)
(9.25865e-05 0.00255778 1.0128)
(-0.00204071 0.00257223 1.02081)
(-0.00261865 0.00254553 0.995461)
(0.00317577 0.000345905 0.985007)
(0.00287916 0.000345542 1.01268)
(0.000644726 0.000345676 1.00389)
(0.0012833 0.000338589 1.00386)
(0.000567802 0.000334272 1.00374)
(0.000428588 0.000328261 1.00384)
(-0.000335967 0.000320918 1.00416)
(8.8222e-05 0.000316381 1.00439)
(-0.00202481 0.000310221 1.01234)
(-0.00259043 0.0002938 0.987096)
(0.0031843 0.000852296 0.984907)
(0.00287966 0.000857549 1.0126)
(0.000637618 0.000851416 1.0038)
(0.00127678 0.000845257 1.00377)
(0.000560097 0.00083807 1.00365)
(0.000419962 0.000829139 1.00374)
(-0.000345206 0.000818877 1.00407)
(8.30237e-05 0.000807815 1.00429)
(-0.00204041 0.000803348 1.01226)
(-0.00260965 0.000772279 0.986957)
(0.00317682 7.03885e-05 0.984714)
(0.00287293 6.61092e-05 1.01238)
(0.000633897 6.27385e-05 1.0036)
(0.00127005 5.6475e-05 1.00356)
(0.000551669 4.86701e-05 1.00344)
(0.000409567 3.86464e-05 1.00353)
(-0.000357163 2.66375e-05 1.00385)
(7.1761e-05 1.29266e-05 1.00407)
(-0.00205474 3.71807e-06 1.01205)
(-0.00261777 -2.60471e-05 0.986704)
(0.00317422 -0.000117697 0.984717)
(0.00286885 -0.000123482 1.01237)
(0.000629304 -0.000125932 1.0036)
(0.00126289 -0.00013167 1.00356)
(0.000542313 -0.000139691 1.00343)
(0.000397983 -0.00014996 1.00352)
(-0.000370915 -0.000162281 1.00384)
(5.89529e-05 -0.000177131 1.00405)
(-0.00207553 -0.000188128 1.01204)
(-0.0026335 -0.000218903 0.986634)
(0.00317679 -0.000896639 0.984916)
(0.00286792 -0.000911095 1.01257)
(0.000624424 -0.000910246 1.00379)
(0.00125621 -0.000914933 1.00376)
(0.000533332 -0.000921893 1.00362)
(0.000386928 -0.000930897 1.00371)
(-0.00038426 -0.00094183 1.00402)
(4.68925e-05 -0.000955238 1.00422)
(-0.00209876 -0.000967595 1.01223)
(-0.00265383 -0.000986112 0.986759)
(0.00316384 -0.00037675 0.985021)
(0.0028606 -0.000382912 1.01264)
(0.000624004 -0.000386672 1.00388)
(0.00125115 -0.000387146 1.00384)
(0.00052628 -0.000392574 1.0037)
(0.000377785 -0.000398764 1.00379)
(-0.000395415 -0.000405527 1.0041)
(3.38975e-05 -0.000417045 1.00429)
(-0.00211084 -0.000420881 1.0123)
(-0.00265545 -0.000434758 0.986808)
(0.00319552 -0.00263047 0.993484)
(0.00287955 -0.00265209 1.02122)
(0.00061978 -0.00263204 1.01238)
(0.0012511 -0.00263908 1.01236)
(0.000522319 -0.00263995 1.01222)
(0.000372001 -0.00264429 1.01231)
(-0.000404686 -0.00265151 1.01262)
(3.04603e-05 -0.00265201 1.01281)
(-0.00213864 -0.00267202 1.0209)
(-0.00269306 -0.00266001 0.995273)
(0.00315089 -0.00300232 0.96654)
(0.00285974 -0.0030491 0.994123)
(0.000614781 -0.00301617 0.985402)
(0.00123824 -0.00302885 0.985343)
(0.000518267 -0.00302596 0.985211)
(0.000369938 -0.00302816 0.985291)
(-0.000397008 -0.00303497 0.985585)
(3.45664e-05 -0.00302628 0.985795)
(-0.00211585 -0.0030557 0.993775)
(-0.00264647 -0.00301551 0.968295)
(0.00333152 0.0030856 0.960289)
(0.00297019 0.00313608 0.992992)
(0.000719797 0.00309286 0.982863)
(0.00147729 0.00310217 0.982785)
(0.000691843 0.00309009 0.982705)
(0.000670349 0.00308397 0.982861)
(-0.000164064 0.00308395 0.983256)
(0.000316857 0.00306479 0.983634)
(-0.00170268 0.00309488 0.992516)
(-0.00244219 0.00304353 0.963635)
(0.00337758 0.00259943 0.991862)
(0.00298338 0.00261677 1.02473)
(0.000716266 0.00258794 1.01443)
(0.00147842 0.00258702 1.01437)
(0.000678332 0.00257588 1.01425)
(0.00065283 0.0025673 1.01438)
(-0.000194768 0.0025617 1.01476)
(0.000295572 0.00254704 1.01507)
(-0.0017454 0.00256311 1.0241)
(-0.00250705 0.00253182 0.994942)
(0.00333699 0.000334471 0.982187)
(0.0029569 0.000334354 1.01489)
(0.000717288 0.000334531 1.00471)
(0.00147105 0.000325187 1.00464)
(0.000674525 0.000319413 1.00454)
(0.000649366 0.000310962 1.00467)
(-0.000194833 0.000300332 1.00506)
(0.000290381 0.000292785 1.00539)
(-0.00172598 0.000284251 1.01434)
(-0.00247385 0.000259726 0.985338)
(0.00334726 0.000913734 0.982036)
(0.00295699 0.000920347 1.01476)
(0.000707879 0.000911892 1.00457)
(0.00146239 0.000903749 1.0045)
(0.000663639 0.00089366 1.00439)
(0.000637011 0.000880842 1.00453)
(-0.000209021 0.000865708 1.00491)
(0.000281654 0.000847932 1.00524)
(-0.00174862 0.000840069 1.01422)
(-0.00249997 0.000792344 0.985127)
(0.0033369 2.29432e-05 0.981842)
(0.00294776 1.68863e-05 1.01454)
(0.00070296 1.25204e-05 1.00436)
(0.00145298 3.7857e-06 1.00429)
(0.000651604 -7.22286e-06 1.00418)
(0.000621668 -2.18905e-05 1.00431)
(-0.000227538 -4.01895e-05 1.00468)
(0.000263359 -6.25523e-05 1.005)
(-0.00177368 -7.88623e-05 1.014)
(-0.0025156 -0.00013143 0.984835)
(0.0033334 -8.06294e-05 0.981847)
(0.00294228 -8.79977e-05 1.01453)
(0.00069663 -9.14657e-05 1.00435)
(0.0014429 -9.93793e-05 1.00428)
(0.000638021 -0.000110751 1.00417)
(0.000604128 -0.000125924 1.00429)
(-0.000249645 -0.000145043 1.00466)
(0.000241287 -0.000169835 1.00497)
(-0.0018116 -0.00018968 1.01399)
(-0.00254387 -0.000248028 0.98471)
(0.00333721 -0.000968101 0.98205)
(0.00294128 -0.000986983 1.01473)
(0.000689789 -0.000985615 1.00456)
(0.0014336 -0.000992454 1.00448)
(0.000624994 -0.00100223 1.00437)
(0.000587324 -0.00101549 1.00449)
(-0.000271324 -0.00103242 1.00484)
(0.000219959 -0.00105414 1.00514)
(-0.00185406 -0.00107528 1.01419)
(-0.00257855 -0.001116 0.984778)
(0.003321 -0.000371981 0.982211)
(0.00293203 -0.000380502 1.01484)
(0.000688894 -0.000385497 1.00469)
(0.00142616 -0.000386482 1.00461)
(0.000614857 -0.000394191 1.00449)
(0.000573542 -0.000403148 1.00461)
(-0.000288554 -0.000413262 1.00496)
(0.000199315 -0.000430633 1.00525)
(-0.00187887 -0.000437984 1.01431)
(-0.00258682 -0.00046402 0.984842)
(0.00335901 -0.00264084 0.991955)
(0.00295447 -0.00266663 1.02475)
(0.000683151 -0.00264249 1.01449)
(0.00142604 -0.0026513 1.01443)
(0.000608955 -0.00265208 1.01431)
(0.000565214 -0.00265771 1.01443)
(-0.000302376 -0.00266707 1.01479)
(0.00019323 -0.00266738 1.01507)
(-0.00191553 -0.00268789 1.02423)
(-0.002634 -0.00266852 0.994575)
(0.00330645 -0.00311646 0.960252)
(0.00293176 -0.00317242 0.992834)
(0.000676834 -0.00313252 0.982738)
(0.00141037 -0.00314829 0.982634)
(0.000605432 -0.00314387 0.982519)
(0.000564586 -0.00314649 0.982629)
(-0.000288669 -0.00315509 0.982966)
(0.000205743 -0.00314318 0.983277)
(-0.0018734 -0.00317404 0.992295)
(-0.00256871 -0.00311976 0.962888)
(0.0034719 0.00316413 0.953886)
(0.00305001 0.00322252 0.991698)
(0.000813198 0.0031716 0.980188)
(0.00168011 0.00318207 0.980063)
(0.000836105 0.00316639 0.98002)
(0.000948282 0.00315854 0.980223)
(7.03619e-05 0.00315857 0.980679)
(0.000604286 0.00313543 0.981202)
(-0.00120026 0.00316792 0.990892)
(-0.00215831 0.00311307 0.958927)
(0.0035237 0.0025888 0.99019)
(0.003063 0.00260813 1.02822)
(0.000808038 0.00257427 1.01648)
(0.00167959 0.00257229 1.01638)
(0.000816548 0.00255792 1.01628)
(0.000923554 0.0025468 1.01645)
(2.78146e-05 0.00253954 1.01688)
(0.00057251 0.00252113 1.01731)
(-0.00125876 0.00253838 1.0272)
(-0.00224147 0.0025068 0.994851)
(0.00347648 0.000328569 0.979283)
(0.00303248 0.000328613 1.01709)
(0.000809492 0.00032874 1.00551)
(0.00167036 0.000316865 1.0054)
(0.000812235 0.000309301 1.00532)
(0.000919314 0.000297812 1.0055)
(2.84068e-05 0.000283098 1.00594)
(0.000567493 0.000271094 1.00641)
(-0.00123197 0.00025997 1.01619)
(-0.002197 0.00022622 0.984065)
(0.00348812 0.000963627 0.979075)
(0.0030317 0.000971483 1.01692)
(0.000797491 0.0009604 1.00532)
(0.00165908 0.000949849 1.00521)
(0.000797349 0.000936126 1.00513)
(0.000902225 0.000918291 1.0053)
(7.35472e-06 0.000896591 1.00574)
(0.00055332 0.000868657 1.0062)
(-0.00126527 0.000855428 1.01603)
(-0.00223428 0.000780992 0.983766)
(0.00347462 -2.68053e-05 0.978889)
(0.00301971 -3.50381e-05 1.01669)
(0.000791092 -4.04863e-05 1.00511)
(0.00164632 -5.23113e-05 1.00499)
(0.000780666 -6.73847e-05 1.00491)
(0.000880137 -8.82798e-05 1.00508)
(-2.09548e-05 -0.00011563 1.00551)
(0.00052456 -0.000151957 1.00595)
(-0.0013089 -0.000179769 1.01581)
(-0.00226283 -0.00027723 0.983433)
(0.00347005 -4.19312e-05 0.978897)
(0.00301255 -5.10948e-05 1.01667)
(0.000782617 -5.59047e-05 1.0051)
(0.00163253 -6.6495e-05 1.00498)
(0.000761448 -8.22057e-05 1.0049)
(0.000854105 -0.000104093 1.00506)
(-5.62987e-05 -0.000133315 1.00548)
(0.000486894 -0.0001748 1.0059)