/*--------------------------------*- C++ -*----------------------------------*\
  =========                 |
  \\      /  F ield         | OpenFOAM: The Open Source CFD Toolbox
   \\    /   O peration     | Website:  https://openfoam.org
    \\  /    A nd           | Version:  6
     \\/     M anipulation  |
\*---------------------------------------------------------------------------*/
FoamFile
{
    version     2.0;
    format      ascii;
    class       volVectorField;
    location    "0.1";
    object      U;
}
// * * * * * * * * * * * * * * * * * * * * * * * * * * * * * * * * * * * * * //

dimensions      [0 1 -1 0 0 0 0];

internalField   nonuniform List<vector> 
56000
(
(-1.65963e-05 1.94432e-05 0.220439)
(-4.27173e-06 2.61213e-05 0.4594)
(6.56526e-05 2.10544e-05 0.604109)
(0.000158132 1.27216e-05 0.689654)
(0.000223082 3.46951e-06 0.72949)
(0.000222508 -6.788e-06 0.728626)
(0.000151895 -1.86519e-05 0.687175)
(4.81605e-05 -3.1705e-05 0.600426)
(-2.44878e-05 -4.24207e-05 0.455429)
(-2.43607e-05 -3.55233e-05 0.217933)
(-1.07015e-05 0.000101912 0.461692)
(8.7681e-05 0.000170341 1.07129)
(0.000328778 0.000160739 1.47098)
(0.000612823 0.000115549 1.71491)
(0.000808895 5.21189e-05 1.83022)
(0.000821107 -2.35702e-05 1.82834)
(0.000633382 -0.000107535 1.70956)
(0.000328943 -0.00018697 1.46315)
(6.58459e-05 -0.000227339 1.06313)
(-2.16082e-05 -0.000152564 0.457014)
(-3.88492e-06 0.000180759 0.615135)
(0.000188687 0.000322959 1.49232)
(0.00059467 0.000326117 2.09361)
(0.00105211 0.000253313 2.46954)
(0.00136448 0.000137157 2.64948)
(0.00139058 -6.37328e-06 2.6469)
(0.00110377 -0.000163689 2.46221)
(0.000620534 -0.000305538 2.08295)
(0.000173669 -0.000368316 1.48135)
(-1.65189e-05 -0.000236538 0.60903)
(-2.42513e-07 0.000232574 0.719845)
(0.000266544 0.000439342 1.78846)
(0.000803892 0.000467063 2.54179)
(0.00139901 0.000385598 3.02111)
(0.00180267 0.000237857 3.25276)
(0.001838 4.90245e-05 3.24956)
(0.00147073 -0.000157755 3.01203)
(0.000844702 -0.000340383 2.52864)
(0.00025323 -0.000418557 1.77502)
(-1.47851e-05 -0.000264722 0.712436)
(1.87487e-07 0.000252151 0.793352)
(0.000315107 0.000498439 1.99887)
(0.000945007 0.000552637 2.86407)
(0.00163938 0.000480374 3.42132)
(0.00210854 0.000327835 3.69249)
(0.00214839 0.00012549 3.6887)
(0.00171985 -9.77475e-05 3.41056)
(0.000989522 -0.000294463 2.84853)
(0.00029772 -0.000382262 1.98304)
(-1.70466e-05 -0.000242969 0.784678)
(-1.37353e-06 0.000243808 0.845257)
(0.000339663 0.000499622 2.14818)
(0.00102851 0.000573086 3.09419)
(0.00178881 0.000519672 3.70852)
(0.00230159 0.000382898 4.00888)
(0.00234279 0.000193841 4.00451)
(0.00187064 -1.7621e-05 3.69617)
(0.00106987 -0.000205924 3.07639)
(0.000315291 -0.000297222 2.13012)
(-2.13582e-05 -0.00019388 0.835411)
(-3.7836e-06 0.000212969 0.88148)
(0.000348471 0.000448582 2.25259)
(0.00107146 0.000528284 3.25561)
(0.00187243 0.000495123 3.91054)
(0.00241241 0.000385828 4.23171)
(0.00245336 0.000228061 4.22684)
(0.00195213 4.8498e-05 3.89676)
(0.00110703 -0.000114262 3.23583)
(0.000316779 -0.000200847 2.23259)
(-2.6146e-05 -0.000137631 0.870629)
(-6.18632e-06 0.000164722 0.90586)
(0.000348976 0.000353877 2.32292)
(0.0010899 0.000424828 3.36451)
(0.00191419 0.000407855 4.047)
(0.00247006 0.000330412 4.38233)
(0.00251021 0.000213894 4.37705)
(0.00199085 7.89019e-05 4.03208)
(0.00111975 -4.5856e-05 3.34314)
(0.000311159 -0.000117855 2.30139)
(-3.03615e-05 -8.68287e-05 0.894222)
(-8.031e-06 0.00010393 0.920879)
(0.000346587 0.000226133 2.36626)
(0.00109589 0.000274877 3.43167)
(0.00193235 0.000268049 4.13121)
(0.00249673 0.00022251 4.4753)
(0.00253613 0.000151665 4.46972)
(0.00200651 6.83862e-05 4.1155)
(0.0011215 -9.82664e-06 3.40919)
(0.000304527 -5.7678e-05 2.34367)
(-3.34032e-05 -4.62167e-05 0.908705)
(-9.01653e-06 3.54947e-05 0.928036)
(0.000344624 7.77174e-05 2.38692)
(0.00109707 9.50469e-05 3.46368)
(0.00193864 9.33986e-05 4.17136)
(0.00250666 7.84448e-05 4.51962)
(0.00254564 5.47385e-05 4.5139)
(0.00201144 2.6642e-05 4.15524)
(0.00112048 1.54829e-08 3.44064)
(0.000300422 -1.67721e-05 2.36379)
(-3.49794e-05 -1.42979e-05 0.915591)
(-9.01553e-06 -3.55167e-05 0.928036)
(0.000344626 -7.77443e-05 2.38692)
(0.00109708 -9.50919e-05 3.46368)
(0.00193865 -9.34464e-05 4.17136)
(0.00250666 -7.84873e-05 4.51962)
(0.00254565 -5.47732e-05 4.5139)
(0.00201144 -2.66691e-05 4.15524)
(0.00112048 -3.54104e-08 3.44064)
(0.000300423 1.67598e-05 2.36379)
(-3.49792e-05 1.42913e-05 0.915591)
(-8.0276e-06 -0.000103956 0.920879)
(0.000346596 -0.000226165 2.36626)
(0.0010959 -0.000274928 3.43167)
(0.00193237 -0.000268102 4.13121)
(0.00249674 -0.000222555 4.4753)
(0.00253615 -0.000151701 4.46972)
(0.00200652 -6.84138e-05 4.1155)
(0.00112151 9.80664e-06 3.40919)
(0.000304528 5.76659e-05 2.34367)
(-3.34027e-05 4.62101e-05 0.908705)
(-6.17925e-06 -0.000164758 0.90586)
(0.000348995 -0.000353922 2.32292)
(0.00108993 -0.000424892 3.36451)
(0.00191423 -0.000407916 4.047)
(0.00247009 -0.000330462 4.38233)
(0.00251023 -0.000213932 4.37705)
(0.00199087 -7.89304e-05 4.03208)
(0.00111976 4.5836e-05 3.34314)
(0.000311161 0.000117843 2.30139)
(-3.03605e-05 8.68223e-05 0.894222)
(-3.77044e-06 -0.000213023 0.88148)
(0.00034851 -0.000448649 2.25259)
(0.00107153 -0.000528369 3.25561)
(0.0018725 -0.000495199 3.91054)
(0.00241247 -0.000385887 4.23171)
(0.0024534 -0.000228103 4.22684)
(0.00195215 -4.85275e-05 3.89676)
(0.00110704 0.000114242 3.23583)
(0.000316782 0.000200836 2.23259)
(-2.61446e-05 0.000137625 0.870629)
(-1.35035e-06 -0.000243901 0.845257)
(0.000339742 -0.000499726 2.14818)
(0.00102862 -0.000573203 3.09419)
(0.00178891 -0.000519767 3.70852)
(0.00230167 -0.000382966 4.00888)
(0.00234284 -0.000193887 4.00451)
(0.00187068 1.75911e-05 3.69617)
(0.00106989 0.000205905 3.07639)
(0.000315296 0.000297213 2.13012)
(-2.13566e-05 0.000193875 0.835411)
(2.26335e-07 -0.00025233 0.793352)
(0.00031527 -0.000498609 1.99887)
(0.000945193 -0.000552804 2.86407)
(0.00163954 -0.000480495 3.42132)
(0.00210866 -0.000327912 3.69249)
(0.00214847 -0.000125536 3.6887)
(0.00171989 9.77203e-05 3.41056)
(0.000989545 0.000294449 2.84853)
(0.000297725 0.000382257 1.98304)
(-1.70448e-05 0.000242965 0.784678)
(-1.74957e-07 -0.00023298 0.719845)
(0.000266873 -0.000439653 1.78846)
(0.0008042 -0.000467316 2.54179)
(0.00139925 -0.000385754 3.02111)
(0.00180282 -0.000237942 3.25276)
(0.0018381 -4.90674e-05 3.24956)
(0.00147078 0.000157735 3.01203)
(0.000844726 0.000340376 2.52864)
(0.000253235 0.000418558 1.77502)
(-1.47834e-05 0.000264721 0.712436)
(-3.75303e-06 -0.000181799 0.615135)
(0.000189304 -0.000323588 1.49232)
(0.000595167 -0.000326508 2.09361)
(0.00105243 -0.000253514 2.46954)
(0.00136466 -0.00013725 2.64948)
(0.00139068 6.33656e-06 2.6469)
(0.00110382 0.000163678 2.46221)
(0.000620554 0.000305538 2.08295)
(0.000173672 0.000368323 1.48135)
(-1.65178e-05 0.000236538 0.60903)
(-9.79698e-06 -0.000104836 0.461691)
(8.89785e-05 -0.000171571 1.07129)
(0.000329489 -0.00016128 1.47098)
(0.000613175 -0.00011581 1.71491)
(0.000809059 -5.22278e-05 1.83021)
(0.000821179 2.35321e-05 1.82834)
(0.00063341 0.000107525 1.70956)
(0.000328951 0.000186971 1.46315)
(6.58444e-05 0.000227344 1.06313)
(-2.16083e-05 0.000152565 0.457014)
(-1.41863e-05 -2.18416e-05 0.220439)
(-1.31222e-06 -2.70014e-05 0.4594)
(6.67308e-05 -2.11504e-05 0.604108)
(0.000158557 -1.27501e-05 0.689653)
(0.000223256 -3.47538e-06 0.729489)
(0.000222581 6.78789e-06 0.728626)
(0.000151923 1.86528e-05 0.687175)
(4.817e-05 3.17058e-05 0.600426)
(-2.44867e-05 4.24209e-05 0.455429)
(-2.43613e-05 3.55227e-05 0.217933)
(-5.84447e-05 5.82919e-05 0.220383)
(-0.000125749 7.35445e-05 0.459229)
(-5.67494e-05 5.77485e-05 0.60388)
(9.98609e-05 3.02169e-05 0.689466)
(0.000232276 -2.61775e-06 0.729434)
(0.00024326 -3.94389e-05 0.728751)
(0.000114015 -7.95203e-05 0.68746)
(-7.07904e-05 -0.000118798 0.600775)
(-0.000161956 -0.000143702 0.455706)
(-8.15442e-05 -0.000109231 0.218039)
(-6.51444e-05 0.000285476 0.46156)
(-6.18521e-06 0.000472814 1.07085)
(0.000415082 0.000428326 1.47038)
(0.00100761 0.000259447 1.7144)
(0.00146273 2.10373e-05 1.83001)
(0.00152611 -0.000256174 1.82857)
(0.00113621 -0.000541725 1.71017)
(0.000488921 -0.000777042 1.46391)
(-2.54687e-05 -0.000842304 1.06371)
(-9.23593e-05 -0.000513184 0.457194)
(-5.57138e-05 0.000509727 0.61497)
(0.000210466 0.000898018 1.49171)
(0.00103297 0.000857312 2.09275)
(0.00206748 0.000555528 2.46878)
(0.002832 9.83018e-05 2.64913)
(0.00294285 -0.000440418 2.64714)
(0.00230165 -0.000982479 2.46297)
(0.00119174 -0.00140068 2.08389)
(0.000210428 -0.00147424 1.48203)
(-8.96095e-05 -0.000855634 0.60919)
(-4.94485e-05 0.000659716 0.719683)
(0.000397793 0.00121711 1.78778)
(0.00156211 0.00121114 2.54079)
(0.00296627 0.000832161 3.02019)
(0.00398223 0.000222005 3.25231)
(0.00412185 -0.000505657 3.2498)
(0.00326131 -0.00122767 3.01285)
(0.0017617 -0.00176212 2.52964)
(0.000394962 -0.00182661 1.77568)
(-9.21801e-05 -0.00102999 0.712531)
(-5.10417e-05 0.00071391 0.793214)
(0.000516255 0.00136935 1.99818)
(0.00192789 0.00141263 2.86301)
(0.00360456 0.00102436 3.42033)
(0.00480318 0.000360475 3.692)
(0.00495481 -0.000441549 3.68893)
(0.00392053 -0.00123115 3.4114)
(0.0021292 -0.0018009 2.84953)
(0.000491447 -0.0018553 1.98365)
(-0.000104765 -0.00102592 0.7847)
(-5.82098e-05 0.000685414 0.845155)
(0.000569998 0.00135781 2.14752)
(0.00213767 0.00144468 3.09313)
(0.00399488 0.0010985 3.70753)
(0.0053142 0.000469129 4.00839)
(0.00546723 -0.000301819 4.00477)
(0.0043073 -0.00105853 3.69704)
(0.00231871 -0.00159735 3.0774)
(0.000514787 -0.00164737 2.13069)
(-0.000122582 -0.000899811 0.835377)
(-6.79041e-05 0.000593077 0.881417)
(0.000578971 0.00120552 2.25198)
(0.00223201 0.00131547 3.2546)
(0.00419712 0.00104021 3.90958)
(0.00558935 0.000508313 4.23127)
(0.00573881 -0.000152462 4.22715)
(0.00449545 -0.000801323 3.89768)
(0.00238564 -0.0012614 3.23686)
(0.000493768 -0.00130978 2.23314)
(-0.000141242 -0.000710749 0.870557)
(-7.74068e-05 0.000454456 0.905831)
(0.000565015 0.000941693 2.32237)
(0.00225714 0.00104753 3.36356)
(0.00428007 0.000853411 4.0461)
(0.00571241 0.000456623 4.38195)
(0.00585708 -4.26841e-05 4.37742)
(0.00456289 -0.000534147 4.03306)
(0.00238561 -0.000883049 3.34421)
(0.000455308 -0.000926333 2.30194)
(-0.000157492 -0.000501457 0.894129)
(-8.47363e-05 0.000284656 0.920876)
(0.000545889 0.00059743 2.36576)
(0.00225187 0.000673212 3.43076)
(0.00430197 0.000559525 4.13036)
(0.00575403 0.000316597 4.47497)
(0.00589476 7.84864e-06 4.47015)
(0.00457277 -0.000296872 4.11652)
(0.0023621 -0.000513891 3.41029)
(0.000419375 -0.000544632 2.34423)
(-0.000169249 -0.000294805 0.908603)
(-8.86804e-05 9.68443e-05 0.928046)
(0.000533429 0.000204559 2.38644)
(0.00224265 0.000232 3.4628)
(0.00430291 0.000194754 4.17054)
(0.00576271 0.000113172 4.51932)
(0.0059013 8.91947e-06 4.51436)
(0.00456732 -9.41512e-05 4.15629)
(0.00234349 -0.000167729 3.44176)
(0.000398466 -0.000178913 2.36435)
(-0.00017537 -9.68946e-05 0.915486)
(-8.86793e-05 -9.6868e-05 0.928046)
(0.000533431 -0.000204587 2.38644)
(0.00224266 -0.000232049 3.4628)
(0.00430292 -0.000194807 4.17054)
(0.00576272 -0.00011322 4.51932)
(0.00590131 -8.95895e-06 4.51436)
(0.00456732 9.41206e-05 4.15629)
(0.00234349 0.000167707 3.44176)
(0.000398466 0.0001789 2.36435)
(-0.00017537 9.68877e-05 0.915486)
(-8.47326e-05 -0.000284684 0.920876)
(0.000545898 -0.000597464 2.36576)
(0.00225189 -0.000673268 3.43076)
(0.00430199 -0.000559584 4.13036)
(0.00575405 -0.000316649 4.47497)
(0.00589477 -7.8904e-06 4.47015)
(0.00457278 0.00029684 4.11652)
(0.00236211 0.000513868 3.41029)
(0.000419377 0.000544619 2.34423)
(-0.000169248 0.000294798 0.908603)
(-7.73994e-05 -0.000454493 0.905831)
(0.000565034 -0.000941739 2.32237)
(0.00225718 -0.0010476 3.36356)
(0.00428011 -0.00085348 4.0461)
(0.00571245 -0.000456681 4.38195)
(0.00585711 4.26383e-05 4.37742)
(0.00456291 0.000534113 4.03306)
(0.00238562 0.000883025 3.34421)
(0.000455311 0.000926319 2.30194)
(-0.000157491 0.00050145 0.894129)
(-6.78906e-05 -0.000593132 0.881417)
(0.000579008 -0.00120559 2.25198)
(0.00223207 -0.00131556 3.2546)
(0.00419719 -0.0010403 3.90958)
(0.00558941 -0.000508381 4.23127)
(0.00573885 0.000152411 4.22715)
(0.00449548 0.000801287 3.89768)
(0.00238566 0.00126137 3.23686)
(0.000493772 0.00130977 2.23314)
(-0.00014124 0.000710742 0.870557)
(-5.81864e-05 -0.000685503 0.845155)
(0.00057007 -0.00135792 2.14752)
(0.00213778 -0.00144481 3.09313)
(0.00399499 -0.0010986 3.70753)
(0.00531428 -0.000469205 4.00839)
(0.00546729 0.000301766 4.00477)
(0.00430734 0.0010585 3.69704)
(0.00231873 0.00159733 3.0774)
(0.000514792 0.00164736 2.13069)
(-0.00012258 0.000899806 0.835377)
(-5.10002e-05 -0.000714068 0.793214)
(0.000516395 -0.00136951 1.99818)
(0.00192807 -0.0014128 2.86301)
(0.00360473 -0.00102448 3.42033)
(0.0048033 -0.000360557 3.692)
(0.00495489 0.000441501 3.68893)
(0.00392058 0.00123112 3.4114)
(0.00212923 0.00180089 2.84953)
(0.000491453 0.0018553 1.98365)
(-0.000104762 0.00102592 0.7847)
(-4.9366e-05 -0.000660027 0.719683)
(0.000398058 -0.00121739 1.78778)
(0.00156241 -0.00121138 2.54079)
(0.00296651 -0.000832316 3.02019)
(0.00398239 -0.000222088 3.25232)
(0.00412195 0.00050562 3.2498)
(0.00326137 0.00122765 3.01285)
(0.00176173 0.00176213 2.52964)
(0.000394968 0.00182662 1.77568)
(-9.21771e-05 0.00102999 0.712531)
(-5.55265e-05 -0.000510349 0.61497)
(0.000210923 -0.000898489 1.49171)
(0.00103342 -0.000857657 2.09275)
(0.0020678 -0.000555714 2.46878)
(0.0028322 -9.83838e-05 2.64913)
(0.00294296 0.000440391 2.64714)
(0.00230171 0.000982479 2.46297)
(0.00119176 0.00140069 2.08389)
(0.000210431 0.00147426 1.48203)
(-8.96075e-05 0.000855637 0.60919)
(-6.46081e-05 -0.000286563 0.461561)
(-5.53856e-06 -0.000473391 1.07085)
(0.000415642 -0.000428701 1.47038)
(0.00100794 -0.000259636 1.7144)
(0.0014629 -2.11129e-05 1.83001)
(0.00152619 0.000256154 1.82857)
(0.00113624 0.000541728 1.71017)
(0.000488928 0.000777053 1.46391)
(-2.54697e-05 0.000842317 1.06371)
(-9.23584e-05 0.000513185 0.457194)
(-5.76077e-05 -5.91178e-05 0.220385)
(-0.000124626 -7.40576e-05 0.45923)
(-5.60856e-05 -5.79018e-05 0.60388)
(0.000100197 -3.02622e-05 0.689466)
(0.000232435 2.60841e-06 0.729434)
(0.000243333 3.94388e-05 0.728751)
(0.000114046 7.95217e-05 0.687459)
(-7.07802e-05 0.000118799 0.600775)
(-0.000161953 0.000143703 0.455706)
(-8.15442e-05 0.000109231 0.218039)
(-9.79776e-05 0.000113094 0.220275)
(-0.000159972 0.000139621 0.458879)
(5.03632e-05 0.00010714 0.603408)
(0.000428914 5.46777e-05 0.689077)
(0.000752763 -7.3838e-06 0.729326)
(0.000822668 -7.74121e-05 0.729036)
(0.000577206 -0.000154878 0.688106)
(0.000153384 -0.000232902 0.601588)
(-0.000149878 -0.00028817 0.45638)
(-0.000134035 -0.000222098 0.218319)
(-9.67142e-05 0.00054042 0.461291)
(0.000163349 0.000876554 1.06994)
(0.00114306 0.000781764 1.46913)
(0.00245422 0.000463226 1.71331)
(0.00349016 1.89804e-05 1.82959)
(0.00373304 -0.000498967 1.82909)
(0.003003 -0.00103945 1.71155)
(0.00161203 -0.00149824 1.46566)
(0.000329129 -0.00164926 1.0651)
(-0.000121111 -0.00102695 0.457668)
(-7.11867e-05 0.000946699 0.614626)
(0.000635345 0.00164385 1.49044)
(0.0024408 0.00154982 2.09094)
(0.0046596 0.000984356 2.46715)
(0.00635019 0.00013811 2.64839)
(0.00673497 -0.000859511 2.64769)
(0.00553724 -0.00187194 2.46467)
(0.00320845 -0.00266967 2.08607)
(0.000919056 -0.00283655 1.48367)
(-9.8512e-05 -0.0016708 0.609632)
(-5.3806e-05 0.00121135 0.719338)
(0.00103289 0.00220875 1.78634)
(0.00353202 0.00217383 2.53865)
(0.00650069 0.00146583 3.01821)
(0.00871555 0.000341462 3.25133)
(0.00919036 -0.000997552 3.25029)
(0.0075809 -0.00233283 3.01466)
(0.00446826 -0.00333527 2.53194)
(0.00136291 -0.00347618 1.77729)
(-9.29651e-05 -0.00198087 0.712831)
(-5.2358e-05 0.0013004 0.792916)
(0.00129084 0.00246843 1.9967)
(0.00429462 0.00252038 2.86072)
(0.00781763 0.00179515 3.41816)
(0.010414 0.000575233 3.69089)
(0.0109361 -0.000893643 3.68938)
(0.0089974 -0.00234269 3.41323)
(0.00529563 -0.0033969 2.85183)
(0.00161279 -0.00350737 1.98515)
(-0.00010976 -0.00195449 0.784843)
(-6.21457e-05 0.00124083 0.844927)
(0.00142094 0.00243434 2.14609)
(0.00475068 0.00256451 3.09083)
(0.00864678 0.00191651 3.70532)
(0.0114992 0.000761888 4.00725)
(0.0120415 -0.000645222 4.00524)
(0.0098622 -0.00202571 3.69891)
(0.00575633 -0.00301194 3.07969)
(0.00170842 -0.00310415 2.13208)
(-0.000138077 -0.00170508 0.83539)
(-7.73541e-05 0.00106847 0.881264)
(0.0014617 0.00215177 2.25065)
(0.00497869 0.00232532 3.25236)
(0.00910478 0.00180807 3.90741)
(0.0121169 0.000832932 4.23018)
(0.012665 -0.000370239 4.22768)
(0.0103239 -0.00154876 3.89962)
(0.00596329 -0.00238386 3.23916)
(0.00170892 -0.0024665 2.23447)
(-0.000169048 -0.0013437 0.870481)
(-9.29051e-05 0.000815722 0.905745)
(0.00145398 0.00167514 2.32113)
(0.00506527 0.00184564 3.36141)
(0.00932087 0.00147908 4.04401)
(0.0124253 0.000751696 4.38094)
(0.012973 -0.000156082 4.37805)
(0.010532 -0.00104597 4.03508)
(0.00602391 -0.00167543 3.34655)
(0.00166651 -0.00174639 2.30323)
(-0.000196457 -0.000947751 0.894002)
(-0.000105119 0.000509658 0.920841)
(0.00143068 0.00106027 2.3646)
(0.00508231 0.00118348 3.4287)
(0.00940321 0.000967816 4.12835)
(0.012556 0.000522394 4.47404)
(0.0131019 -3.84416e-05 4.47087)
(0.0106052 -0.000589112 4.11862)
(0.00602038 -0.00097909 3.41268)
(0.00161897 -0.0010286 2.34552)
(-0.000216423 -0.000557559 0.908449)
(-0.000111746 0.000173176 0.928038)
(0.00141368 0.000362609 2.38533)
(0.0050787 0.00040739 3.46079)
(0.00942587 0.00033654 4.16858)
(0.0125989 0.000186925 4.51845)
(0.0131435 -2.37528e-06 4.51513)
(0.0106225 -0.000188462 4.15844)
(0.00600581 -0.000320423 3.44418)
(0.00158971 -0.000338321 2.36565)
(-0.00022685 -0.000183374 0.915321)
(-0.000111745 -0.000173201 0.928038)
(0.00141368 -0.000362636 2.38533)
(0.0050787 -0.000407441 3.46079)
(0.00942588 -0.000336596 4.16858)
(0.0125989 -0.000186977 4.51845)
(0.0131435 2.33218e-06 4.51513)
(0.0106225 0.000188429 4.15844)
(0.00600582 0.0003204 3.44418)
(0.00158971 0.000338308 2.36565)
(-0.00022685 0.000183367 0.915321)
(-0.000105115 -0.000509686 0.920841)
(0.00143069 -0.0010603 2.3646)
(0.00508233 -0.00118353 3.4287)
(0.00940323 -0.000967878 4.12835)
(0.012556 -0.00052245 4.47404)
(0.0131019 3.83963e-05 4.47087)
(0.0106052 0.000589078 4.11862)
(0.00602039 0.000979066 3.41268)
(0.00161897 0.00102859 2.34552)
(-0.000216422 0.000557552 0.908449)
(-9.28977e-05 -0.000815758 0.905745)
(0.001454 -0.00167518 2.32113)
(0.00506531 -0.00184571 3.36141)
(0.00932091 -0.00147915 4.04401)
(0.0124253 -0.000751758 4.38094)
(0.0129731 0.000156033 4.37805)
(0.010532 0.00104593 4.03508)
(0.00602392 0.0016754 3.34655)
(0.00166651 0.00174638 2.30323)
(-0.000196455 0.000947744 0.894002)
(-7.73413e-05 -0.00106852 0.881264)
(0.00146174 -0.00215183 2.25065)
(0.00497875 -0.00232541 3.25236)
(0.00910485 -0.00180815 3.90741)
(0.012117 -0.000833002 4.23018)
(0.012665 0.000370185 4.22768)
(0.0103239 0.00154873 3.89962)
(0.00596331 0.00238383 3.23916)
(0.00170893 0.00246649 2.23447)
(-0.000169046 0.00134369 0.870481)
(-6.21241e-05 -0.00124091 0.844927)
(0.001421 -0.00243443 2.14609)
(0.00475078 -0.00256463 3.09083)
(0.00864688 -0.00191661 3.70532)
(0.0114993 -0.000761966 4.00725)
(0.0120416 0.000645167 4.00524)
(0.00986224 0.00202567 3.69891)
(0.00575635 0.00301191 3.07969)
(0.00170842 0.00310414 2.13208)
(-0.000138074 0.00170508 0.83539)
(-5.23207e-05 -0.00130053 0.792916)
(0.00129095 -0.00246857 1.9967)
(0.00429479 -0.00252054 2.86072)
(0.00781778 -0.00179527 3.41816)
(0.0104141 -0.000575315 3.69089)
(0.0109362 0.000893594 3.68938)
(0.00899745 0.00234267 3.41323)
(0.00529566 0.00339689 2.85183)
(0.0016128 0.00350737 1.98515)
(-0.000109756 0.00195449 0.784843)
(-5.37363e-05 -0.00121157 0.719338)
(0.00103308 -0.00220897 1.78634)
(0.00353227 -0.00217404 2.53865)
(0.00650091 -0.00146598 3.01821)
(0.00871571 -0.000341542 3.25134)
(0.00919046 0.000997514 3.25029)
(0.00758096 0.00233281 3.01466)
(0.00446829 0.00333527 2.53194)
(0.00136291 0.00347619 1.77729)
(-9.29613e-05 0.00198087 0.712831)
(-7.10529e-05 -0.000947055 0.614626)
(0.000635658 -0.00164418 1.49044)
(0.00244117 -0.00155009 2.09094)
(0.00465989 -0.000984512 2.46715)
(0.00635037 -0.000138184 2.64839)
(0.00673507 0.000859484 2.64769)
(0.00553729 0.00187193 2.46467)
(0.00320848 0.00266968 2.08607)
(0.000919059 0.00283656 1.48367)
(-9.85088e-05 0.00167081 0.609632)
(-9.64711e-05 -0.00054088 0.461291)
(0.000163737 -0.000876884 1.06994)
(0.00114348 -0.000782009 1.46913)
(0.0024545 -0.000463356 1.71331)
(0.00349031 -1.90365e-05 1.82959)
(0.00373311 0.000498949 1.82909)
(0.00300303 0.00103945 1.71155)
(0.00161204 0.00149825 1.46566)
(0.000329127 0.00164927 1.0651)
(-0.000121109 0.00102695 0.457668)
(-9.77793e-05 -0.000113283 0.220276)
(-0.000159481 -0.000139844 0.458879)
(5.07572e-05 -0.000107244 0.603408)
(0.000429155 -5.47142e-05 0.689077)
(0.000752893 7.37618e-06 0.729326)
(0.000822733 7.7413e-05 0.729035)
(0.000577236 0.000154881 0.688105)
(0.000153396 0.000232903 0.601588)
(-0.000149874 0.000288171 0.45638)
(-0.000134035 0.000222097 0.218319)
(-0.000130402 0.000196458 0.219989)
(-2.99747e-05 0.00023789 0.45811)
(0.000579965 0.000178373 0.602419)
(0.00147453 9.13878e-05 0.688248)
(0.00223517 -9.59134e-06 0.729023)
(0.00248247 -0.000124561 0.729492)
(0.00204893 -0.000256059 0.689312)
(0.00110945 -0.00039616 0.603226)
(0.000214091 -0.000513807 0.457859)
(-0.000162343 -0.000407794 0.219027)
(-8.4695e-05 0.000919992 0.460636)
(0.00081448 0.00145482 1.06803)
(0.00303852 0.0012834 1.46657)
(0.00582904 0.000772442 1.71107)
(0.00807782 7.16161e-05 1.82857)
(0.00881141 -0.000752742 1.82987)
(0.00757034 -0.00164071 1.7141)
(0.00473418 -0.00244623 1.46916)
(0.00167652 -0.00280368 1.06812)
(-3.87219e-05 -0.00182651 0.458876)
(-1.86186e-05 0.00156888 0.613783)
(0.0017923 0.00268188 1.48779)
(0.00560562 0.00252001 2.08729)
(0.0101321 0.00163553 2.46383)
(0.0136758 0.000323744 2.64672)
(0.014788 -0.00123609 2.64847)
(0.012779 -0.00286258 2.46784)
(0.00819355 -0.00422215 2.09046)
(0.00309774 -0.00464226 1.48728)
(5.47883e-05 -0.00283825 0.610875)
(2.57736e-05 0.00197563 0.718447)
(0.00258186 0.00356537 1.78328)
(0.00769567 0.00351201 2.53431)
(0.013625 0.00242685 3.01417)
(0.0181842 0.000708052 3.24917)
(0.0195462 -0.00135659 3.25097)
(0.0168588 -0.0034652 3.01806)
(0.0108347 -0.00513573 2.53667)
(0.0041284 -0.00552416 1.78102)
(9.85793e-05 -0.00325373 0.71391)
(3.99928e-05 0.00209948 0.792062)
(0.00310632 0.0039561 1.99349)
(0.00916823 0.00405257 2.85604)
(0.0161345 0.00296079 3.41373)
(0.0214328 0.00111807 3.68845)
(0.0229449 -0.00112059 3.69)
(0.0197108 -0.00337753 3.41676)
(0.0126043 -0.00510439 2.85669)
(0.00475181 -0.00543792 1.98883)
(9.45546e-05 -0.00312732 0.785726)
(3.35661e-05 0.00198988 0.844156)
(0.00340015 0.00388191 2.1429)
(0.0100912 0.00410835 3.08605)
(0.0177685 0.00314877 3.70074)
(0.0235728 0.00142231 4.00473)
(0.0251702 -0.000701824 4.00589)
(0.0215324 -0.00282882 3.70257)
(0.0136716 -0.00442376 3.08465)
(0.00506878 -0.00471168 2.1357)
(6.58707e-05 -0.00267118 0.83612)
(1.65607e-05 0.00170573 0.880592)
(0.00353217 0.00341908 2.24755)
(0.010606 0.00371446 3.24762)
(0.0187384 0.00295989 3.90285)
(0.0248706 0.00151397 4.22771)
(0.0265154 -0.000288658 4.22847)
(0.0226022 -0.00208972 3.90345)
(0.014251 -0.00342793 3.24426)
(0.00519257 -0.00367652 2.23808)
(2.90415e-05 -0.00206958 0.871115)
(-2.73041e-06 0.00129832 0.905166)
(0.0035701 0.00265511 2.31817)
(0.0108569 0.0029418 3.35678)
(0.0192609 0.00241397 4.03955)
(0.0255932 0.0013424 4.3786)
(0.0272645 -1.00698e-05 4.379)
(0.0231777 -0.00136216 4.0391)
(0.0145293 -0.00236459 3.35179)
(0.00521455 -0.00256481 2.30689)
(-5.29286e-06 -0.0014407 0.894586)
(-1.84694e-05 0.000809675 0.920331)
(0.00356678 0.00167786 2.36175)
(0.0109597 0.00188358 3.42417)
(0.0195112 0.00157611 4.124)
(0.0259554 0.000922836 4.47182)
(0.0276408 9.03539e-05 4.47197)
(0.0234555 -0.000743244 4.1228)
(0.0146434 -0.00136192 3.41805)
(0.00519788 -0.00149443 2.34923)
(-3.08358e-05 -0.000839878 0.909014)
(-2.71436e-05 0.000274878 0.927565)
(0.00355674 0.000573381 2.38253)
(0.0109921 0.000647909 3.45632)
(0.0196071 0.000547446 4.16429)
(0.0261009 0.000328515 4.5163)
(0.0277926 4.80416e-05 4.51632)
(0.0235634 -0.000233149 4.1627)
(0.0146799 -0.000442121 3.44962)
(0.00518072 -0.00048872 2.36939)
(-4.4291e-05 -0.000274927 0.91588)
(-2.71426e-05 -0.000274902 0.927565)
(0.00355674 -0.000573407 2.38253)
(0.0109921 -0.000647961 3.45632)
(0.0196071 -0.000547505 4.16429)
(0.0261009 -0.00032857 4.5163)
(0.0277926 -4.80875e-05 4.51632)
(0.0235634 0.000233114 4.1627)
(0.0146799 0.000442097 3.44962)
(0.00518072 0.000488708 2.36939)
(-4.42907e-05 0.00027492 0.91588)
(-1.8466e-05 -0.000809702 0.920331)
(0.00356679 -0.00167789 2.36175)
(0.0109598 -0.00188364 3.42417)
(0.0195112 -0.00157617 4.124)
(0.0259554 -0.000922893 4.47182)
(0.0276408 -9.04014e-05 4.47197)
(0.0234555 0.000743208 4.1228)
(0.0146434 0.0013619 3.41805)
(0.00519788 0.00149442 2.34923)
(-3.08347e-05 0.000839871 0.909014)
(-2.72376e-06 -0.00129835 0.905166)
(0.00357011 -0.00265515 2.31817)
(0.0108569 -0.00294187 3.35678)
(0.0192609 -0.00241405 4.03955)
(0.0255933 -0.00134246 4.3786)
(0.0272645 1.00193e-05 4.379)
(0.0231777 0.00136212 4.0391)
(0.0145293 0.00236457 3.35179)
(0.00521455 0.0025648 2.30689)
(-5.29098e-06 0.00144069 0.894586)
(1.65719e-05 -0.00170578 0.880592)
(0.00353219 -0.00341913 2.24756)
(0.0106061 -0.00371454 3.24762)
(0.0187385 -0.00295997 3.90285)
(0.0248706 -0.00151404 4.22771)
(0.0265155 0.000288605 4.22847)
(0.0226022 0.00208969 3.90345)
(0.014251 0.0034279 3.24426)
(0.00519258 0.00367651 2.23808)
(2.90442e-05 0.00206957 0.871115)
(3.35844e-05 -0.00198995 0.844156)
(0.0034002 -0.00388199 2.1429)
(0.0100913 -0.00410846 3.08605)
(0.0177685 -0.00314887 3.70074)
(0.0235729 -0.00142239 4.00473)
(0.0251703 0.00070177 4.0059)
(0.0215324 0.00282879 3.70257)
(0.0136716 0.00442374 3.08465)
(0.00506879 0.00471168 2.1357)
(6.58743e-05 0.00267118 0.83612)
(4.00232e-05 -0.00209958 0.792062)
(0.0031064 -0.00395621 1.99349)
(0.00916836 -0.00405271 2.85604)
(0.0161346 -0.0029609 3.41373)
(0.0214329 -0.00111815 3.68845)
(0.022945 0.00112054 3.69)
(0.0197108 0.0033775 3.41676)
(0.0126043 0.00510438 2.85669)
(0.00475182 0.00543791 1.98883)
(9.45591e-05 0.00312732 0.785726)
(2.58268e-05 -0.00197578 0.718447)
(0.00258199 -0.00356554 1.78328)
(0.00769587 -0.00351219 2.53431)
(0.0136252 -0.00242697 3.01417)
(0.0181843 -0.000708129 3.24917)
(0.0195463 0.00135655 3.25097)
(0.0168588 0.00346518 3.01806)
(0.0108348 0.00513573 2.53667)
(0.0041284 0.00552416 1.78102)
(9.85844e-05 0.00325373 0.71391)
(-1.85261e-05 -0.0015691 0.613784)
(0.00179251 -0.00268213 1.48779)
(0.00560591 -0.00252021 2.08729)
(0.0101323 -0.00163566 2.46383)
(0.0136759 -0.000323812 2.64672)
(0.0147881 0.00123606 2.64847)
(0.0127791 0.00286257 2.46784)
(0.00819358 0.00422215 2.09046)
(0.00309774 0.00464227 1.48728)
(5.4793e-05 0.00283825 0.610875)
(-8.45563e-05 -0.000920229 0.460637)
(0.000814748 -0.00145504 1.06803)
(0.00303882 -0.00128357 1.46657)
(0.00582926 -0.000772537 1.71107)
(0.00807795 -7.16641e-05 1.82857)
(0.00881147 0.00075272 1.82987)
(0.00757038 0.0016407 1.7141)
(0.0047342 0.00244622 1.46916)
(0.00167651 0.00280368 1.06812)
(-3.87184e-05 0.00182651 0.458876)
(-0.000130306 -0.000196547 0.219989)
(-2.97133e-05 -0.000238013 0.45811)
(0.000580215 -0.000178442 0.602419)
(0.00147471 -9.14145e-05 0.688248)
(0.00223527 9.58535e-06 0.729023)
(0.00248253 0.000124561 0.729491)
(0.00204896 0.000256061 0.689312)
(0.00110947 0.000396161 0.603226)
(0.000214097 0.000513807 0.457859)
(-0.000162341 0.000407793 0.219027)
(-0.000146527 0.00032143 0.219323)
(0.0003692 0.000382592 0.456534)
(0.00178953 0.000281122 0.600459)
(0.00368172 0.000146556 0.68656)
(0.00531436 -6.4333e-06 0.728244)
(0.0060071 -0.000182791 0.730079)
(0.00536132 -0.000393201 0.69136)
(0.00351029 -0.000632581 0.606293)
(0.00136127 -0.000869189 0.4609)
(-0.000100273 -0.000707624 0.220682)
(1.08286e-06 0.00147812 0.45919)
(0.00222861 0.00228118 1.06423)
(0.00677279 0.00199798 1.46164)
(0.0122739 0.0012411 1.70665)
(0.0168411 0.000222347 1.82624)
(0.0187489 -0.000990251 1.83075)
(0.0169443 -0.00235131 1.71836)
(0.0116614 -0.00369025 1.47565)
(0.00510147 -0.00446647 1.07426)
(0.000332138 -0.00307227 0.461727)
(0.000145676 0.00245302 0.611914)
(0.00409532 0.00413223 1.48254)
(0.0115123 0.00388826 2.08028)
(0.020152 0.00262229 2.45737)
(0.0271579 0.000760519 2.64307)
(0.0299824 -0.00147979 2.64921)
(0.0270684 -0.00390158 2.47316)
(0.0187428 -0.00608364 2.09867)
(0.00828856 -0.00703041 1.49481)
(0.000612278 -0.0045144 0.614021)
(0.000242166 0.00303853 0.716399)
(0.00555474 0.00543485 1.77721)
(0.0152686 0.0053874 2.52599)
(0.0263946 0.00387953 3.00636)
(0.0352778 0.00148739 3.24459)
(0.0387222 -0.00142238 3.2515)
(0.0348113 -0.00449285 3.0239)
(0.0240168 -0.0071041 2.54574)
(0.01055 -0.00802615 1.78911)
(0.000766829 -0.00495334 0.717011)
(0.000285054 0.00319594 0.789989)
(0.00654167 0.00598828 1.98702)
(0.0179327 0.00619046 2.84701)
(0.0308958 0.00471559 3.40514)
(0.0411467 0.00219487 3.68334)
(0.044991 -0.000910245 3.69045)
(0.0402663 -0.0041386 3.42297)
(0.0276121 -0.00678482 2.8663)
(0.0119906 -0.00761578 1.9972)
(0.000821765 -0.0045921 0.788723)
(0.000292229 0.0030091 0.842143)
(0.00713624 0.00584825 2.13631)
(0.0196661 0.00625557 3.0767)
(0.0339096 0.00499475 3.6918)
(0.0451133 0.00266861 3.99943)
(0.0492125 -0.000238871 4.00646)
(0.0438804 -0.0032392 3.70916)
(0.0299124 -0.00564834 3.09472)
(0.0128393 -0.00638054 2.14431)
(0.000823925 -0.00380356 0.839055)
(0.000280129 0.0025684 0.878676)
(0.00745448 0.00513439 2.24101)
(0.0207092 0.0056417 3.23822)
(0.035799 0.00467676 3.89384)
(0.0476398 0.00275358 4.22245)
(0.0519024 0.00031222 4.22927)
(0.0461511 -0.00220188 3.91047)
(0.0313068 -0.0042032 3.25478)
(0.0133047 -0.00482832 2.24696)
(0.000803062 -0.00287089 0.874044)
(0.000261457 0.00194964 0.903351)
(0.00760207 0.00397852 2.31174)
(0.0212888 0.00445969 3.34744)
(0.0369066 0.00380142 4.03062)
(0.0491531 0.00239077 4.37351)
(0.0535202 0.000573624 4.3801)
(0.0475009 -0.00129981 4.04653)