/*--------------------------------*- C++ -*----------------------------------*\
  =========                 |
  \\      /  F ield         | OpenFOAM: The Open Source CFD Toolbox
   \\    /   O peration     | Website:  https://openfoam.org
    \\  /    A nd           | Version:  6
     \\/     M anipulation  |
\*---------------------------------------------------------------------------*/
FoamFile
{
    version     2.0;
    format      ascii;
    class       volScalarField;
    location    "0.05";
    object      p;
}
// * * * * * * * * * * * * * * * * * * * * * * * * * * * * * * * * * * * * * //

dimensions      [0 2 -2 0 0 0 0];

internalField   nonuniform List<scalar> 
32000
(
6.58992e-06
0.00146516
0.00387826
0.00577194
0.00707405
0.00721578
0.00602094
0.00367804
0.000402719
-0.00344811
-0.00741509
-0.0110215
-0.0138169
-0.0154697
-0.0158169
-0.0147613
-0.0126116
-0.0100864
-0.0074125
-0.00601596
-0.00134684
0.000125253
0.00487949
0.00620203
0.00743854
0.00773886
0.00631864
0.00382512
0.000466353
-0.00349309
-0.00758579
-0.0113153
-0.014221
-0.0160591
-0.0166647
-0.0154715
-0.0133929
-0.0113915
-0.00634406
-0.00490561
-0.00407509
-0.00067595
0.00472526
0.00594603
0.00754298
0.008004
0.00647392
0.00392529
0.000519205
-0.00352418
-0.0077148
-0.0115356
-0.014501
-0.0164074
-0.0171294
-0.015766
-0.0133024
-0.0113485
-0.00561507
-0.00222436
-0.00775052
-0.00324139
0.00317731
0.00520085
0.00732401
0.00797304
0.00650287
0.00399955
0.000581625
-0.00351866
-0.00777609
-0.0116516
-0.0146223
-0.0164697
-0.0171068
-0.0155147
-0.0124707
-0.0096504
-0.00284752
0.0016781
-0.0115075
-0.00590181
0.00159445
0.0042816
0.00680311
0.00771872
0.00642395
0.00401746
0.000622889
-0.00349293
-0.0077726
-0.0116552
-0.0145841
-0.0163039
-0.0167209
-0.0148023
-0.0112893
-0.00773214
0.000206917
0.00586305
-0.0149893
-0.00839371
-5.15626e-05
0.00320802
0.00615878
0.00739862
0.0063096
0.00401214
0.000660126
-0.00344691
-0.00772376
-0.0115855
-0.0144467
-0.016018
-0.0161749
-0.0138644
-0.00984598
-0.00564169
0.00320089
0.00988109
-0.0179572
-0.0106347
-0.00162021
0.00216488
0.00552929
0.00707169
0.00617539
0.00398865
0.000692041
-0.0033904
-0.00764864
-0.0114726
-0.0142516
-0.015671
-0.0155804
-0.0129011
-0.00839728
-0.00359948
0.00596594
0.0134003
-0.0202523
-0.0124093
-0.00289009
0.00130852
0.00499837
0.0067804
0.00604523
0.00395871
0.000718022
-0.00333467
-0.00756829
-0.0113505
-0.0140493
-0.015332
-0.0150325
-0.0120572
-0.0071682
-0.00190189
0.00820721
0.0161812
-0.0218063
-0.013623
-0.00377168
0.00070369
0.00461417
0.00656332
0.00594542
0.0039344
0.000737505
-0.00329019
-0.00750234
-0.0112506
-0.0138875
-0.0150677
-0.0146158
-0.0114328
-0.00628072
-0.000699437
0.00976778
0.0180935
-0.0225897
-0.01424
-0.00422518
0.000388708
0.00441168
0.0064478
0.00589198
0.00392129
0.000748087
-0.00326562
-0.00746552
-0.0111949
-0.0137985
-0.0149241
-0.0143917
-0.0111005
-0.00581394
-7.46171e-05
0.0105691
0.0190663
-0.0225897
-0.01424
-0.00422516
0.000388744
0.00441173
0.00644786
0.00589205
0.00392136
0.000748155
-0.00326555
-0.00746546
-0.0111949
-0.0137985
-0.014924
-0.0143917
-0.0111004
-0.00581391
-7.45915e-05
0.0105691
0.0190663
-0.0218063
-0.013623
-0.00377162
0.000703785
0.0046143
0.00656347
0.00594558
0.00393456
0.000737659
-0.00329005
-0.00750222
-0.0112505
-0.0138874
-0.0150676
-0.0146158
-0.0114328
-0.00628067
-0.000699381
0.00976784
0.0180935
-0.0202523
-0.0124092
-0.00288996
0.00130869
0.00499859
0.00678065
0.0060455
0.00395897
0.000718279
-0.00333443
-0.00756808
-0.0113503
-0.0140492
-0.0153319
-0.0150324
-0.0120572
-0.00716812
-0.00190181
0.00820728
0.0161812
-0.0179571
-0.0106346
-0.00162001
0.00216513
0.00552959
0.00707201
0.00617572
0.00398898
0.000692351
-0.00339011
-0.00764839
-0.0114724
-0.0142514
-0.0156709
-0.0155803
-0.0129011
-0.00839725
-0.00359945
0.00596598
0.0134003
-0.0149893
-0.00839351
-5.13012e-05
0.00320832
0.00615911
0.00739897
0.00630996
0.00401249
0.000660449
-0.00344662
-0.00772352
-0.0115853
-0.0144466
-0.0160179
-0.0161749
-0.0138644
-0.00984604
-0.00564176
0.00320084
0.00988111
-0.0115073
-0.00590159
0.0015947
0.00428187
0.0068034
0.00771903
0.00642427
0.00401777
0.000623161
-0.00349271
-0.00777244
-0.0116551
-0.014584
-0.0163039
-0.0167209
-0.0148025
-0.0112895
-0.00773238
0.000206723
0.00586299
-0.00775027
-0.00324113
0.00317755
0.00520108
0.00732426
0.00797333
0.00650316
0.00399982
0.000581845
-0.00351851
-0.00777602
-0.0116516
-0.0146224
-0.0164698
-0.017107
-0.0155149
-0.012471
-0.00965068
-0.00284779
0.00167797
-0.00407452
-0.000675775
0.00472541
0.0059462
0.00754321
0.00800428
0.00647422
0.00392556
0.000519419
-0.00352406
-0.00771477
-0.0115357
-0.0145011
-0.0164075
-0.0171296
-0.0157662
-0.0133025
-0.0113487
-0.00561538
-0.00222443
-0.00134517
0.000125985
0.00488005
0.00620264
0.00743923
0.00773962
0.00631941
0.00382585
0.000467005
-0.00349255
-0.00758536
-0.011315
-0.0142207
-0.0160589
-0.0166645
-0.0154712
-0.0133927
-0.0113914
-0.00634354
-0.00490564
1.83537e-05
0.00146709
0.00387889
0.00577249
0.00707462
0.00721637
0.00602153
0.0036786
0.000403209
-0.0034477
-0.00741477
-0.0110213
-0.0138167
-0.0154695
-0.0158167
-0.0147611
-0.0126113
-0.0100862
-0.00741223
-0.00601617
-1.2472
-1.24414
-1.23792
-1.23071
-1.22342
-1.21723
-1.21266
-1.20964
-1.20788
-1.20678
-1.20559
-1.20351
-1.19985
-1.19419
-1.1865
-1.17708
-1.16697
-1.15783
-1.15101
-1.14834
-1.24932
-1.24501
-1.23574
-1.22888
-1.22171
-1.21558
-1.21154
-1.20901
-1.20769
-1.20708
-1.2064
-1.20486
-1.20172
-1.19665
-1.18957
-1.18025
-1.17021
-1.16125
-1.15125
-1.14736
-1.25516
-1.24733
-1.23628
-1.22894
-1.22116
-1.21482
-1.21098
-1.20868
-1.20763
-1.20736
-1.20705
-1.20586
-1.20303
-1.19822
-1.19134
-1.18177
-1.17099
-1.16138
-1.1495
-1.14213
-1.26391
-1.25329
-1.23987
-1.23087
-1.22201
-1.21516
-1.2111
-1.20872
-1.20771
-1.20755
-1.20737
-1.20629
-1.20347
-1.19851
-1.19132
-1.18109
-1.16906
-1.15759
-1.14324
-1.13311
-1.27367
-1.26031
-1.24441
-1.23376
-1.22381
-1.21622
-1.21169
-1.20902
-1.20787
-1.20766
-1.20744
-1.20627
-1.20324
-1.19789
-1.19006
-1.17889
-1.16553
-1.1522
-1.13523
-1.12234
-1.28328
-1.26744
-1.24937
-1.23718
-1.22607
-1.21763
-1.21251
-1.20946
-1.20808
-1.2077
-1.20732
-1.20593
-1.20257
-1.1967
-1.18809
-1.17583
-1.16107
-1.14596
-1.12668
-1.11127
-1.29186
-1.27404
-1.25416
-1.24058
-1.22837
-1.2191
-1.2134
-1.20995
-1.20828
-1.20767
-1.20707
-1.20541
-1.20167
-1.19524
-1.18586
-1.17255
-1.15645
-1.13974
-1.1185
-1.10108
-1.29876
-1.27946
-1.25818
-1.24348
-1.23038
-1.22043
-1.21422
-1.2104
-1.20846
-1.20762
-1.20679
-1.20486
-1.20075
-1.19382
-1.18376
-1.16958
-1.15239
-1.13438
-1.11164
-1.0927
-1.30357
-1.28328
-1.26105
-1.24558
-1.23186
-1.22142
-1.21484
-1.21074
-1.20858
-1.20757
-1.20656
-1.20441
-1.20002
-1.19272
-1.18216
-1.16734
-1.14939
-1.13049
-1.10672
-1.08677
-1.30603
-1.28525
-1.26254
-1.24668
-1.23264
-1.22195
-1.21517
-1.21092
-1.20865
-1.20753
-1.20643
-1.20416
-1.19962
-1.19211
-1.1813
-1.16615
-1.1478
-1.12844
-1.10416
-1.08371
-1.30603
-1.28525
-1.26254
-1.24668
-1.23264
-1.22195
-1.21517
-1.21092
-1.20865
-1.20753
-1.20643
-1.20416
-1.19962
-1.19211
-1.1813
-1.16615
-1.1478
-1.12844
-1.10416
-1.08371
-1.30357
-1.28328
-1.26105
-1.24558
-1.23186
-1.22142
-1.21484
-1.21074
-1.20858
-1.20757
-1.20656
-1.20441
-1.20002
-1.19272
-1.18216
-1.16734
-1.14939
-1.13049
-1.10672
-1.08677
-1.29876
-1.27946
-1.25818
-1.24348
-1.23038
-1.22043
-1.21422
-1.2104
-1.20845
-1.20762
-1.20679
-1.20486
-1.20075
-1.19382
-1.18376
-1.16958
-1.15239
-1.13438
-1.11164
-1.0927
-1.29186
-1.27404
-1.25416
-1.24058
-1.22837
-1.2191
-1.2134
-1.20995
-1.20828
-1.20767
-1.20707
-1.20541
-1.20167
-1.19524
-1.18586
-1.17255
-1.15645
-1.13974
-1.1185
-1.10108
-1.28328
-1.26744
-1.24937
-1.23718
-1.22607
-1.21763
-1.21251
-1.20946
-1.20808
-1.2077
-1.20732
-1.20593
-1.20257
-1.1967
-1.18809
-1.17583
-1.16107
-1.14596
-1.12668
-1.11127
-1.27367
-1.26031
-1.24441
-1.23376
-1.22381
-1.21622
-1.21169
-1.20902
-1.20787
-1.20766
-1.20744
-1.20627
-1.20324
-1.19789
-1.19006
-1.17889
-1.16553
-1.1522
-1.13523
-1.12234
-1.26391
-1.25328
-1.23987
-1.23087
-1.22201
-1.21516
-1.2111
-1.20872
-1.2077
-1.20755
-1.20737
-1.20629
-1.20347
-1.19851
-1.19132
-1.18109
-1.16906
-1.15759
-1.14324
-1.13311
-1.25516
-1.24733
-1.23628
-1.22894
-1.22115
-1.21482
-1.21098
-1.20868
-1.20763
-1.20736
-1.20705
-1.20586
-1.20303
-1.19822
-1.19134
-1.18177
-1.17099
-1.16138
-1.1495
-1.14213
-1.24932
-1.24501
-1.23574
-1.22888
-1.22171
-1.21558
-1.21154
-1.20901
-1.20769
-1.20708
-1.2064
-1.20486
-1.20173
-1.19666
-1.18957
-1.18025
-1.17021
-1.16126
-1.15125
-1.14736
-1.2472
-1.24414
-1.23792
-1.23071
-1.22342
-1.21723
-1.21266
-1.20964
-1.20788
-1.20678
-1.20559
-1.20351
-1.19985
-1.19419
-1.1865
-1.17708
-1.16697
-1.15783
-1.15101
-1.14834
-2.49258
-2.48764
-2.4773
-2.46456
-2.45124
-2.43917
-2.42924
-2.42146
-2.41541
-2.41021
-2.40473
-2.39777
-2.3883
-2.37574
-2.36013
-2.34218
-2.32366
-2.30732
-2.2958
-2.29153
-2.49574
-2.48811
-2.4739
-2.46126
-2.44812
-2.43635
-2.42726
-2.42033
-2.4151
-2.41079
-2.40625
-2.40025
-2.39177
-2.38025
-2.36565
-2.34806
-2.32962
-2.31307
-2.29738
-2.29041
-2.50517
-2.49219
-2.47492
-2.46114
-2.44711
-2.43507
-2.42628
-2.41977
-2.41505
-2.41134
-2.40744
-2.40209
-2.39418
-2.38312
-2.36882
-2.35088
-2.33131
-2.31328
-2.29428
-2.28198
-2.5196
-2.50192
-2.48076
-2.46436
-2.44864
-2.43575
-2.42657
-2.41991
-2.41525
-2.41173
-2.40804
-2.40285
-2.39494
-2.38363
-2.36875
-2.34967
-2.32805
-2.30701
-2.28389
-2.26688
-2.53597
-2.51372
-2.4885
-2.46939
-2.45181
-2.43766
-2.42767
-2.42053
-2.41562
-2.41197
-2.40816
-2.40278
-2.39448
-2.38248
-2.36648
-2.34575
-2.32183
-2.29763
-2.27017
-2.2485
-2.55226
-2.52588
-2.49703
-2.47531
-2.45579
-2.4402
-2.42921
-2.42141
-2.41606
-2.41206
-2.40793
-2.40212
-2.3932
-2.38026
-2.36291
-2.34029
-2.31394
-2.28667
-2.25528
-2.22937
-2.56691
-2.53718
-2.50527
-2.48121
-2.45985
-2.44288
-2.43089
-2.42237
-2.41648
-2.41205
-2.40748
-2.40114
-2.3915
-2.37756
-2.35884
-2.3344
-2.30575
-2.27573
-2.24099
-2.21163
-2.57877
-2.54652
-2.51223
-2.48628
-2.46342
-2.44528
-2.43242
-2.42324
-2.41685
-2.41198
-2.40697
-2.40011
-2.38979
-2.37495
-2.35503
-2.32906
-2.29852
-2.26627
-2.22893
-2.19696
-2.58708
-2.55312
-2.51721
-2.48997
-2.46605
-2.44708
-2.43357
-2.4239
-2.41711
-2.4119
-2.40654
-2.39927
-2.38843
-2.37291
-2.35211
-2.32504
-2.29317
-2.25936
-2.22026
-2.18654
-2.59134
-2.55654
-2.51982
-2.49191
-2.46744
-2.44803
-2.43419
-2.42425
-2.41725
-2.41185
-2.4063
-2.3988
-2.38769
-2.3718
-2.35054
-2.32289
-2.29032
-2.25573
-2.21573
-2.18115
-2.59134
-2.55654
-2.51982
-2.49191
-2.46744
-2.44803
-2.43419
-2.42425
-2.41725
-2.41185
-2.4063
-2.3988
-2.38769
-2.3718
-2.35054
-2.32289
-2.29032
-2.25573
-2.21573
-2.18115
-2.58708
-2.55312
-2.51721
-2.48997
-2.46605
-2.44708
-2.43357
-2.4239
-2.41711
-2.4119
-2.40654
-2.39927
-2.38843
-2.37291
-2.35211
-2.32504
-2.29317
-2.25936
-2.22026
-2.18654
-2.57877
-2.54652
-2.51223
-2.48628
-2.46342
-2.44528
-2.43242
-2.42324
-2.41685
-2.41198
-2.40697
-2.40011
-2.38979
-2.37495
-2.35503
-2.32906
-2.29852
-2.26627
-2.22893
-2.19696
-2.56691
-2.53718
-2.50527
-2.48121
-2.45985
-2.44288
-2.43089
-2.42237
-2.41648
-2.41205
-2.40748
-2.40114
-2.3915
-2.37756
-2.35884
-2.3344
-2.30575
-2.27573
-2.24099
-2.21163
-2.55226
-2.52588
-2.49703
-2.47531
-2.45579
-2.4402
-2.42921
-2.42141
-2.41606
-2.41206
-2.40793
-2.40212
-2.3932
-2.38026
-2.36291
-2.34029
-2.31394
-2.28668
-2.25528
-2.22937
-2.53597
-2.51371
-2.4885
-2.46939
-2.45181
-2.43766
-2.42767
-2.42053
-2.41562
-2.41197
-2.40816
-2.40278
-2.39448
-2.38248
-2.36648
-2.34575
-2.32183
-2.29763
-2.27017
-2.2485
-2.5196
-2.50192
-2.48076
-2.46436
-2.44864
-2.43575
-2.42657
-2.41991
-2.41525
-2.41173
-2.40804
-2.40285
-2.39494
-2.38363
-2.36875
-2.34967
-2.32805
-2.30701
-2.28389
-2.26688
-2.50517
-2.49219
-2.47491
-2.46114
-2.44711
-2.43507
-2.42628
-2.41977
-2.41505
-2.41134
-2.40744
-2.40209
-2.39418
-2.38312
-2.36882
-2.35088
-2.33131
-2.31328
-2.29428
-2.28198
-2.49574
-2.48811
-2.4739
-2.46126
-2.44812
-2.43635
-2.42726
-2.42033
-2.4151
-2.41079
-2.40625
-2.40025
-2.39177
-2.38025
-2.36565
-2.34806
-2.32962
-2.31307
-2.29738
-2.29041
-2.49258
-2.48764
-2.4773
-2.46455
-2.45124
-2.43917
-2.42924
-2.42146
-2.4154
-2.41021
-2.40473
-2.39777
-2.3883
-2.37574
-2.36013
-2.34218
-2.32366
-2.30732
-2.2958
-2.29153
-3.73538
-3.72813
-3.71312
-3.69446
-3.67502
-3.65732
-3.64262
-3.63101
-3.62186
-3.61391
-3.60551
-3.59493
-3.58066
-3.56182
-3.53843
-3.51158
-3.48384
-3.45924
-3.44199
-3.43555
-3.74005
-3.72831
-3.70842
-3.68957
-3.67037
-3.65322
-3.63972
-3.62936
-3.62145
-3.61483
-3.60783
-3.59872
-3.58596
-3.56869
-3.54678
-3.52061
-3.49298
-3.46768
-3.44499
-3.43383
-3.75391
-3.73457
-3.71007
-3.68931
-3.66888
-3.6514
-3.6383
-3.62855
-3.62141
-3.61568
-3.60965
-3.6015
-3.58961
-3.57304
-3.55154
-3.52489
-3.49563
-3.46781
-3.43997
-3.42102
-3.77506
-3.74873
-3.71853
-3.69403
-3.6712
-3.65245
-3.63876
-3.6288
-3.62174
-3.61627
-3.61053
-3.6026
-3.5907
-3.57374
-3.55134
-3.52293
-3.49065
-3.45838
-3.42431
-3.39815
-3.7991
-3.76601
-3.72992
-3.70145
-3.6759
-3.6553
-3.64042
-3.62975
-3.62231
-3.61662
-3.61068
-3.60243
-3.58992
-3.5719
-3.54779
-3.51687
-3.48107
-3.44403
-3.40347
-3.37027
-3.82303
-3.7839
-3.74248
-3.71019
-3.68177
-3.65908
-3.64274
-3.63109
-3.62297
-3.61676
-3.61029
-3.60136
-3.58789
-3.56844
-3.54227
-3.5085
-3.469
-3.42732
-3.38083
-3.34127
-3.84457
-3.80051
-3.75459
-3.71886
-3.68777
-3.66306
-3.64526
-3.63254
-3.62362
-3.61672
-3.60957
-3.59982
-3.58524
-3.56425
-3.536
-3.49948
-3.45652
-3.41066
-3.35914
-3.31439
-3.86203
-3.81422
-3.7648
-3.72633
-3.69305
-3.66664
-3.64755
-3.63385
-3.62417
-3.6166
-3.60877
-3.59821
-3.58259
-3.56022
-3.53015
-3.49131
-3.4455
-3.39628
-3.34083
-3.29216
-3.87425
-3.82394
-3.77214
-3.73176
-3.69694
-3.66931
-3.64927
-3.63484
-3.62456
-3.61647
-3.6081
-3.59691
-3.58049
-3.55708
-3.52568
-3.48517
-3.43734
-3.38579
-3.32768
-3.27638
-3.88054
-3.82897
-3.77597
-3.73462
-3.699
-3.67073
-3.65019
-3.63537
-3.62477
-3.61639
-3.60772
-3.59619
-3.57934
-3.55538
-3.52327
-3.48188
-3.43301
-3.38027
-3.32082
-3.26821
-3.88054
-3.82897
-3.77597
-3.73462
-3.699
-3.67073
-3.65019
-3.63537
-3.62477
-3.61639
-3.60772
-3.59619
-3.57934
-3.55538
-3.52327
-3.48188
-3.43301
-3.38027
-3.32082
-3.26821
-3.87425
-3.82394
-3.77214
-3.73176
-3.69694
-3.66931
-3.64927
-3.63484
-3.62456
-3.61647
-3.6081
-3.59691
-3.58049
-3.55708
-3.52568
-3.48517
-3.43734
-3.38579
-3.32768
-3.27638
-3.86203
-3.81422
-3.7648
-3.72633
-3.69305
-3.66664
-3.64755
-3.63385
-3.62417
-3.6166
-3.60877
-3.59821
-3.58259
-3.56022
-3.53015
-3.49131
-3.4455
-3.39628
-3.34083
-3.29216
-3.84457
-3.80051
-3.75459
-3.71886
-3.68777
-3.66306
-3.64526
-3.63254
-3.62362
-3.61672
-3.60957
-3.59982
-3.58524
-3.56425
-3.536
-3.49948
-3.45652
-3.41066
-3.35914
-3.31439
-3.82303
-3.7839
-3.74248
-3.71018
-3.68177
-3.65908
-3.64274
-3.63109
-3.62297
-3.61676
-3.61029
-3.60136
-3.58789
-3.56844
-3.54227
-3.5085
-3.469
-3.42732
-3.38083
-3.34127
-3.7991
-3.76601
-3.72992
-3.70145
-3.6759
-3.6553
-3.64042
-3.62975
-3.62231
-3.61662
-3.61068
-3.60243
-3.58992
-3.5719
-3.54779
-3.51687
-3.48107
-3.44403
-3.40347
-3.37027
-3.77506
-3.74873
-3.71852
-3.69403
-3.6712
-3.65245
-3.63876
-3.6288
-3.62174
-3.61627
-3.61053
-3.6026
-3.5907
-3.57374
-3.55134
-3.52293
-3.49065
-3.45838
-3.42431
-3.39816
-3.75391
-3.73457
-3.71007
-3.68931
-3.66887
-3.6514
-3.6383
-3.62855
-3.62141
-3.61568
-3.60965
-3.6015
-3.58961
-3.57304
-3.55155
-3.52489
-3.49563
-3.46781
-3.43997
-3.42102
-3.74004
-3.72831
-3.70842
-3.68957
-3.67037
-3.65322
-3.63972
-3.62936
-3.62145
-3.61483
-3.60783
-3.59872
-3.58596
-3.56869
-3.54679
-3.52061
-3.49298
-3.46768
-3.44499
-3.43383
-3.73538
-3.72813
-3.71312
-3.69446
-3.67502
-3.65732
-3.64262
-3.63101
-3.62186
-3.61391
-3.60551
-3.59493
-3.58066
-3.56182
-3.53843
-3.51158
-3.48384
-3.45924
-3.44199
-3.43555
-4.97432
-4.96416
-4.9437
-4.91859
-4.8929
-4.86995
-4.85138
-4.83729
-4.82677
-4.81805
-4.80877
-4.79646
-4.77894
-4.75479
-4.72388
-4.68761
-4.64945
-4.61498
-4.59046
-4.58097
-4.98118
-4.9642
-4.93759
-4.91193
-4.88655
-4.86444
-4.84747
-4.83507
-4.82628
-4.81938
-4.81205
-4.8018
-4.78642
-4.76448
-4.73565
-4.70047
-4.66247
-4.62668
-4.59497
-4.57792
-5.00068
-4.97324
-4.94009
-4.91158
-4.88455
-4.86203
-4.84555
-4.83399
-4.82626
-4.82059
-4.81458
-4.80567
-4.7915
-4.77055
-4.74225
-4.70642
-4.66614
-4.62647
-4.58714
-4.55889
-5.03003
-4.99276
-4.95169
-4.91808
-4.88781
-4.86352
-4.84621
-4.83437
-4.82673
-4.82139
-4.81576
-4.80711
-4.7929
-4.77138
-4.74174
-4.70336
-4.65879
-4.61277
-4.56441
-4.52561
-5.06326
-5.01657
-4.96738
-4.92831
-4.89427
-4.86744
-4.8485
-4.83568
-4.8275
-4.82184
-4.8159
-4.80676
-4.79167
-4.7686
-4.73651
-4.69451
-4.64486
-4.59198
-4.53431
-4.48532
-5.09622
-5.04116
-4.98462
-4.94027
-4.90231
-4.87261
-4.85168
-4.8375
-4.82838
-4.82196
-4.81526
-4.80516
-4.78867
-4.76354
-4.7285
-4.68243
-4.62746
-4.5679
-4.50173
-4.44366
-5.12582
-5.06394
-5.00118
-4.95212
-4.91051
-4.87806
-4.85512
-4.83947
-4.82923
-4.82186
-4.81418
-4.80289
-4.78481
-4.7575
-4.71948
-4.66948
-4.60956
-4.54403
-4.47067
-4.40521
-5.14978
-5.08272
-5.01514
-4.96232
-4.91771
-4.88294
-4.85824
-4.84126
-4.82995
-4.82164
-4.813
-4.80056
-4.78099
-4.75171
-4.7111
-4.65778
-4.5938
-4.52348
-4.44453
-4.37349
-5.16654
-5.09602
-5.02517
-4.96974
-4.92302
-4.88658
-4.86058
-4.84259
-4.83047
-4.82142
-4.81202
-4.79868
-4.77798
-4.74723
-4.70472
-4.64901
-4.58215
-4.50851
-4.42579
-4.35103
-5.17515
-5.1029
-5.0304
-4.97363
-4.92583
-4.88851
-4.86184
-4.84331
-4.83074
-4.82129
-4.81147
-4.79765
-4.77634
-4.7448
-4.70128
-4.64433
-4.57599
-4.50065
-4.41602
-4.33942
-5.17515
-5.1029
-5.0304
-4.97363
-4.92583
-4.88851
-4.86184
-4.84331
-4.83074
-4.82129
-4.81147
-4.79765
-4.77634
-4.7448
-4.70128
-4.64433
-4.57599
-4.50065
-4.41602
-4.33942
-5.16654
-5.09602
-5.02517
-4.96974
-4.92302
-4.88658
-4.86058
-4.84259
-4.83047
-4.82142
-4.81202
-4.79868
-4.77798
-4.74723
-4.70472
-4.64902
-4.58215
-4.50851
-4.42578
-4.35103
-5.14978
-5.08272
-5.01514
-4.96232
-4.91771
-4.88294
-4.85824
-4.84125
-4.82995
-4.82164
-4.813
-4.80056
-4.78099
-4.75171
-4.7111
-4.65778
-4.5938
-4.52348
-4.44453
-4.37349
-5.12582
-5.06394
-5.00118
-4.95212
-4.91051
-4.87806
-4.85512
-4.83947
-4.82923
-4.82186
-4.81418
-4.80289
-4.78481
-4.7575
-4.71948
-4.66948
-4.60956
-4.54403
-4.47067
-4.40521
-5.09622
-5.04116
-4.98462
-4.94027
-4.90231
-4.87261
-4.85168
-4.8375
-4.82838
-4.82196
-4.81526
-4.80516
-4.78867
-4.76354
-4.7285
-4.68243
-4.62746
-4.5679
-4.50173
-4.44366
-5.06326
-5.01657
-4.96738
-4.92831
-4.89427
-4.86744
-4.8485
-4.83568
-4.8275
-4.82183
-4.8159
-4.80676
-4.79167
-4.7686
-4.73651
-4.69451
-4.64486
-4.59198
-4.53431
-4.48532
-5.03003
-4.99276
-4.95169
-4.91808
-4.88781
-4.86352
-4.84621
-4.83436
-4.82673
-4.82139
-4.81576
-4.80711
-4.7929
-4.77138
-4.74174
-4.70336
-4.65879
-4.61277
-4.56441
-4.52561
-5.00068
-4.97324
-4.94009
-4.91158
-4.88455
-4.86202
-4.84555
-4.83399
-4.82626
-4.82059
-4.81458
-4.80567
-4.7915
-4.77055
-4.74225
-4.70642
-4.66614
-4.62647
-4.58714
-4.55889
-4.98118
-4.9642
-4.93759
-4.91192
-4.88655
-4.86444
-4.84746
-4.83507
-4.82628
-4.81938
-4.81205
-4.8018
-4.78642
-4.76448
-4.73565
-4.70047
-4.66247
-4.62668
-4.59497
-4.57792
-4.97432
-4.96415
-4.9437
-4.91859
-4.8929
-4.86995
-4.85138
-4.83729
-4.82677
-4.81804
-4.80877
-4.79646
-4.77894
-4.75479
-4.72388
-4.68761
-4.64945
-4.61498
-4.59046
-4.58097
-6.20734
-6.19345
-6.16656
-6.13436
-6.10233
-6.0747
-6.05353
-6.03889
-6.02947
-6.02277
-6.01555
-6.0043
-5.98584
-5.95796
-5.9201
-5.87386
-5.82372
-5.77715
-5.74311
-5.72924
-6.2173
-6.19357
-6.15891
-6.12568
-6.09404
-6.06759
-6.04848
-6.03606
-6.02891
-6.02463
-6.01999
-6.0115
-5.99595
-5.97108
-5.93606
-5.89146
-5.84154
-5.79284
-5.74921
-5.72373
-6.24401
-6.20619
-6.16255
-6.12532
-6.09152
-6.06453
-6.04603
-6.03468
-6.02891
-6.02624
-6.02335
-6.01663
-6.00271
-5.97917
-5.94481
-5.89933
-5.84627
-5.79187
-5.7372
-5.69576
-6.28352
-6.23229
-6.17796
-6.13398
-6.09591
-6.06655
-6.04692
-6.03518
-6.02953
-6.02726
-6.02482
-6.01841
-6.00439
-5.98001
-5.94373
-5.89465
-5.8356
-5.7723
-5.70479
-5.6482
-6.3279
-6.26397
-6.19879
-6.14752
-6.10443
-6.07171
-6.04992
-6.03688
-6.03049
-6.02776
-6.02487
-6.01776
-6.00248
-5.97594
-5.93623
-5.88206
-5.81586
-5.74289
-5.66231
-5.59131
-6.3717
-6.29655
-6.22155
-6.16327
-6.11498
-6.07848
-6.05406
-6.03923
-6.03157
-6.02782
-6.02388
-6.01542
-5.9982
-5.96879
-5.92498
-5.86512
-5.79148
-5.70915
-5.61667
-5.53299
-6.41088
-6.32661
-6.24333
-6.17882
-6.12572
-6.08559
-6.05853
-6.04176
-6.03261
-6.02757
-6.0223
-6.01221
-5.99279
-5.96036
-5.91242
-5.84712
-5.7666
-5.67594
-5.57344
-5.47949
-6.44251
-6.35133
-6.26165
-6.19217
-6.13513
-6.09196
-6.06258
-6.04405
-6.03349
-6.0272
-6.02062
-6.00896
-5.9875
-5.95235
-5.90083
-5.83093
-5.74476
-5.64746
-5.53722
-5.43557
-6.46461
-6.36882
-6.27479
-6.20187
-6.14205
-6.09669
-6.06562
-6.04577
-6.03412
-6.02684
-6.01924
-6.00636
-5.98335
-5.94618
-5.89203
-5.81884
-5.72869
-5.62678
-5.51131
-5.40455
-6.47594
-6.37785
-6.28164
-6.20696
-6.14571
-6.09921
-6.06725
-6.04668
-6.03445
-6.02663
-6.01847
-6.00493
-5.98109
-5.94283
-5.88731
-5.8124
-5.72019
-5.61594
-5.49784
-5.38854
-6.47594
-6.37785
-6.28164
-6.20696
-6.14571
-6.09921
-6.06725
-6.04668
-6.03445
-6.02663
-6.01847
-6.00493
-5.98109
-5.94283
-5.88731
-5.8124
-5.72019
-5.61594
-5.49784
-5.38854
-6.46461
-6.36882
-6.27479
-6.20187
-6.14205
-6.09669
-6.06562
-6.04577
-6.03412
-6.02684
-6.01924
-6.00636
-5.98335
-5.94618
-5.89203
-5.81884
-5.72869
-5.62678
-5.51131
-5.40455
-6.44251
-6.35133
-6.26165
-6.19217
-6.13513
-6.09195
-6.06258
-6.04405
-6.03349
-6.0272
-6.02062
-6.00896
-5.9875
-5.95235
-5.90083
-5.83093
-5.74476
-5.64746
-5.53722
-5.43557
-6.41088
-6.3266
-6.24333
-6.17881
-6.12572
-6.08559
-6.05853
-6.04176
-6.03261
-6.02757
-6.0223
-6.01221
-5.99279
-5.96036
-5.91242
-5.84712
-5.7666
-5.67594
-5.57344
-5.47949
-6.3717
-6.29655
-6.22155
-6.16327
-6.11498
-6.07847
-6.05406
-6.03923
-6.03157
-6.02781
-6.02388
-6.01542
-5.9982
-5.96879
-5.92498
-5.86512
-5.79148
-5.70915
-5.61667
-5.53299
-6.3279
-6.26397
-6.19878
-6.14752
-6.10443
-6.0717
-6.04991
-6.03688
-6.03049
-6.02775
-6.02487
-6.01776
-6.00248
-5.97594
-5.93624
-5.88206
-5.81586
-5.74289
-5.66231
-5.59131
-6.28352
-6.23229
-6.17796
-6.13398
-6.09591
-6.06655
-6.04692
-6.03518
-6.02953
-6.02726
-6.02482
-6.01841
-6.00439
-5.98001
-5.94373
-5.89465
-5.83561
-5.7723
-5.70479
-5.6482
-6.24401
-6.20619
-6.16255
-6.12532
-6.09152
-6.06453
-6.04603
-6.03468
-6.02891
-6.02624
-6.02335
-6.01663
-6.00271
-5.97917
-5.94482
-5.89933
-5.84628
-5.79187
-5.7372
-5.69576
-6.21729
-6.19357
-6.15891
-6.12568
-6.09404
-6.06759
-6.04848
-6.03606
-6.02891
-6.02463
-6.01999
-6.0115
-5.99595
-5.97108
-5.93606
-5.89146
-5.84154
-5.79284
-5.74921
-5.72373
-6.20734
-6.19345
-6.16656
-6.13435
-6.10233
-6.0747
-6.05353
-6.03889
-6.02947
-6.02277
-6.01555
-6.0043
-5.98584
-5.95796
-5.9201
-5.87386
-5.82372
-5.77715
-5.74311
-5.72924
-7.43127
-7.41267
-7.37815
-7.33813
-7.29977
-7.26836
-7.24641
-7.23388
-7.22894
-7.22818
-7.22716
-7.22099
-7.20508
-7.17598
-7.13236
-7.07576
-7.01175
-6.95011
-6.9034
-6.88322
-7.44549
-7.41314
-7.36879
-7.32718
-7.28928
-7.25944
-7.24007
-7.23036
-7.22832
-7.23066
-7.23297
-7.23041
-7.21836
-7.19329
-7.15349
-7.09928
-7.03559
-6.97074
-6.9111
-6.8735
-7.4814
-7.43033
-7.37395
-7.32689
-7.28621
-7.25566
-7.23701
-7.22865
-7.22836
-7.23275
-7.23729
-7.237
-7.22708
-7.20374
-7.16475
-7.10932
-7.04135
-6.9683
-6.89288
-6.83261
-7.53349
-7.46453
-7.39402
-7.33817
-7.29196
-7.25832
-7.23817
-7.22927
-7.2291
-7.23396
-7.23904
-7.23909
-7.22894
-7.20439
-7.1627
-7.10224
-7.02597
-6.94055
-6.84704
-6.76524
-7.59146
-7.50572
-7.42099
-7.35566
-7.30293
-7.26491
-7.24197
-7.23138
-7.23024
-7.23446
-7.23889
-7.23795
-7.22605
-7.19851
-7.15209
-7.08458
-6.99836
-6.8995
-6.78778
-6.68585
-7.64831
-7.54788
-7.45031
-7.37586
-7.3164
-7.27353
-7.24721
-7.23431
-7.23151
-7.23437
-7.23739
-7.23462
-7.22006
-7.18862
-7.13655
-7.06124
-6.96475
-6.85292
-6.72475
-6.6053
-7.69894
-7.58657
-7.47823
-7.39572
-7.33008
-7.28256
-7.25284
-7.23745
-7.23272
-7.2339
-7.23516
-7.23019
-7.21267
-7.17711
-7.11943
-7.03667
-6.93074
-6.80746
-6.66551
-6.53197
-7.73969
-7.61832
-7.50167
-7.41274
-7.34204
-7.29061
-7.25794
-7.24029
-7.23374
-7.23328
-7.23281
-7.22576
-7.2055
-7.16628
-7.10373
-7.01471
-6.90106
-6.76868
-6.61614
-6.47211
-7.76809
-7.64072
-7.51845
-7.42509
-7.35083
-7.2966
-7.26177
-7.24242
-7.23447
-7.23274
-7.23092
-7.22225
-7.19992
-7.15797
-7.09188
-6.99838
-6.8793
-6.74063
-6.58097
-6.43
-7.78265
-7.65228
-7.52719
-7.43157
-7.35547
-7.29978
-7.2638
-7.24355
-7.23485
-7.23242
-7.22986
-7.22032
-7.19688
-7.15348
-7.08553
-6.98969
-6.86782
-6.72595
-6.56271
-6.40832
-7.78265
-7.65228
-7.52719
-7.43157
-7.35547
-7.29978
-7.2638
-7.24355
-7.23485
-7.23242
-7.22986
-7.22032
-7.19688
-7.15348
-7.08553
-6.98969
-6.86782
-6.72595
-6.56271
-6.40832
-7.76809
-7.64072
-7.51845
-7.42509
-7.35083
-7.2966
-7.26176
-7.24241
-7.23447
-7.23274
-7.23092
-7.22225
-7.19992
-7.15797
-7.09188
-6.99838
-6.8793
-6.74063
-6.58097
-6.43
-7.73969
-7.61832
-7.50167
-7.41274
-7.34204
-7.29061
-7.25794
-7.24029
-7.23374
-7.23328
-7.23281
-7.22576
-7.2055
-7.16628
-7.10373
-7.01471
-6.90106
-6.76868
-6.61614
-6.47211
-7.69894
-7.58657
-7.47823
-7.39572
-7.33008
-7.28256
-7.25284
-7.23745
-7.23272
-7.2339
-7.23515
-7.23019
-7.21267
-7.17711
-7.11943
-7.03667
-6.93074
-6.80746
-6.66551
-6.53197
-7.64831
-7.54787
-7.45031
-7.37585
-7.3164
-7.27353
-7.24721
-7.2343
-7.23151
-7.23437
-7.23739
-7.23462
-7.22006
-7.18862
-7.13655
-7.06124
-6.96476
-6.85292
-6.72475
-6.6053
-7.59146
-7.50572
-7.42099
-7.35565
-7.30293
-7.26491
-7.24197
-7.23138
-7.23024
-7.23446
-7.23889
-7.23795
-7.22605
-7.19851
-7.15209
-7.08458
-6.99836
-6.8995
-6.78778
-6.68584
-7.53349
-7.46453
-7.39402
-7.33817
-7.29196
-7.25832
-7.23817
-7.22927
-7.2291
-7.23396
-7.23904
-7.23909
-7.22894
-7.20439
-7.1627
-7.10224
-7.02597
-6.94055
-6.84704
-6.76524
-7.4814
-7.43033
-7.37395
-7.32689
-7.2862
-7.25565
-7.23701
-7.22864
-7.22836
-7.23275
-7.23728
-7.237
-7.22708
-7.20374
-7.16475
-7.10932
-7.04135
-6.9683
-6.89288
-6.83261
-7.44549
-7.41314
-7.36879
-7.32717
-7.28928
-7.25943
-7.24007
-7.23035
-7.22832
-7.23066
-7.23297
-7.23041
-7.21836
-7.19329
-7.15349
-7.09928
-7.03559
-6.97074
-6.9111
-6.8735
-7.43127
-7.41266
-7.37815
-7.33813
-7.29977
-7.26836
-7.2464
-7.23388
-7.22894
-7.22818
-7.22716
-7.22099
-7.20508
-7.17598
-7.13235
-7.07576
-7.01175
-6.9501
-6.9034
-6.88322
-8.64159
-8.61707
-8.57356
-8.52498
-8.4805
-8.44663
-8.42637
-8.41957
-8.42371
-8.43424
-8.44518
-8.44982
-8.44163
-8.41533
-8.36823
-8.30142
-8.22144
-8.14091
-8.07716
-8.04784
-8.6615
-8.61826
-8.56232
-8.51144
-8.4675
-8.43563
-8.41857
-8.41526
-8.42303
-8.43744
-8.4526
-8.46187
-8.4587
-8.43772
-8.3957
-8.33224
-8.25278
-8.16761
-8.08627
-8.0312
-8.70897
-8.64122
-8.56943
-8.51135
-8.46384
-8.43105
-8.41482
-8.41315
-8.42309
-8.44004
-8.45797
-8.4701
-8.46965
-8.45086
-8.40982
-8.34468
-8.25935
-8.16257
-8.05881
-7.97158
-8.77653
-8.68531
-8.59515
-8.52578
-8.47124
-8.43447
-8.41628
-8.41391
-8.42393
-8.44141
-8.45995
-8.47241
-8.47154
-8.45101
-8.40617
-8.33406
-8.23728
-8.12334
-7.99421
-7.87655
-8.85098
-8.73795
-8.62946
-8.54795
-8.48507
-8.44274
-8.421
-8.41646
-8.42521
-8.44182
-8.45946
-8.47053
-8.46725
-8.44263
-8.39132
-8.30951
-8.19901
-8.06648
-7.91209
-7.76643
-8.92348
-8.79151
-8.66654
-8.57338
-8.50196
-8.45348
-8.42748
-8.42
-8.42663
-8.44148
-8.45725
-8.46587
-8.45902
-8.42912
-8.37017
-8.27773
-8.15316
-8.00278
-7.82575
-7.65603
-8.98775
-8.84043
-8.70168
-8.59828
-8.51904
-8.46471
-8.43443
-8.42381
-8.42799
-8.44068
-8.45414
-8.45987
-8.44907
-8.41368
-8.34715
-8.24463
-8.10721
-7.94119
-7.74533
-7.55642
-9.03929
-8.88044
-8.7311
-8.61957
-8.53395
-8.4747
-8.44071
-8.42725
-8.42913
-8.43973
-8.45096
-8.45396
-8.43954
-8.39927
-8.32623
-8.21527
-8.06738
-7.88898
-7.67875
-7.47562
-9.07513
-8.90862
-8.75212
-8.63499
-8.54488
-8.48212
-8.44541
-8.42982
-8.42995
-8.43891
-8.44841
-8.44931
-8.43217
-8.38828
-8.31051
-8.19352
-8.0383
-7.85139
-7.63152
-7.41906
-9.09348
-8.92315
-8.76305
-8.64306
-8.55065
-8.48606
-8.44791
-8.4312
-8.43037
-8.43845
-8.44701
-8.44677
-8.42817
-8.38236
-8.30211
-8.182
-8.02301
-7.83177
-7.60708
-7.39
-9.09348
-8.92315
-8.76305
-8.64306
-8.55065
-8.48606
-8.44791
-8.4312
-8.43037
-8.43845
-8.44701
-8.44677
-8.42817
-8.38236
-8.30211
-8.182
-8.02301
-7.83177
-7.60708
-7.39
-9.07513
-8.90862
-8.75212
-8.63499
-8.54488
-8.48212
-8.44541
-8.42982
-8.42995
-8.43891
-8.44841
-8.44931
-8.43217
-8.38828
-8.31051
-8.19352
-8.0383
-7.85139
-7.63152
-7.41906
-9.03929
-8.88044
-8.7311
-8.61957
-8.53394
-8.4747
-8.44071
-8.42725
-8.42913
-8.43973
-8.45096
-8.45396
-8.43954
-8.39927
-8.32623
-8.21527
-8.06738
-7.88898
-7.67875
-7.47562
-8.98775
-8.84043
-8.70168
-8.59828
-8.51904
-8.46471
-8.43443
-8.42381
-8.42799
-8.44067
-8.45414
-8.45987
-8.44907
-8.41368
-8.34716
-8.24463
-8.10721
-7.94119
-7.74533
-7.55641
-8.92348
-8.79151
-8.66654
-8.57337
-8.50196
-8.45348
-8.42747
-8.42
-8.42663
-8.44148
-8.45725
-8.46587
-8.45902
-8.42912
-8.37017
-8.27773
-8.15316
-8.00278
-7.82575
-7.65603
-8.85098
-8.73795
-8.62946
-8.54794
-8.48507
-8.44274
-8.421
-8.41646
-8.42521
-8.44182
-8.45946
-8.47053
-8.46725
-8.44263
-8.39132
-8.30951
-8.19901
-8.06648
-7.91209
-7.76643
-8.77653
-8.68531
-8.59515
-8.52578
-8.47124
-8.43447
-8.41628
-8.4139
-8.42393
-8.44141
-8.45995
-8.47241
-8.47154
-8.45101
-8.40617
-8.33407
-8.23728
-8.12334
-7.99421
-7.87655
-8.70897
-8.64122
-8.56943
-8.51135
-8.46384
-8.43104
-8.41481
-8.41315
-8.42308
-8.44003
-8.45797
-8.4701
-8.46965
-8.45086
-8.40982
-8.34468
-8.25935
-8.16257
-8.05881
-7.97158
-8.66149
-8.61826
-8.56232
-8.51144
-8.4675
-8.43563
-8.41857
-8.41526
-8.42303
-8.43744
-8.4526
-8.46187
-8.4587
-8.43772
-8.3957
-8.33224
-8.25278
-8.16761
-8.08627
-8.0312
-8.64159
-8.61707
-8.57356
-8.52498
-8.4805
-8.44663
-8.42637
-8.41957