/*--------------------------------*- C++ -*----------------------------------*\
  =========                 |
  \\      /  F ield         | OpenFOAM: The Open Source CFD Toolbox
   \\    /   O peration     | Website:  https://openfoam.org
    \\  /    A nd           | Version:  6
     \\/     M anipulation  |
\*---------------------------------------------------------------------------*/
FoamFile
{
    version     2.0;
    format      ascii;
    class       surfaceScalarField;
    location    "0.05";
    object      phi;
}
// * * * * * * * * * * * * * * * * * * * * * * * * * * * * * * * * * * * * * //

dimensions      [0 3 -1 0 0 0 0];

internalField   nonuniform List<scalar> 
92400
(
2.76494e-11
9.70233e-11
1.49506e-06
1.63866e-10
1.4707e-10
3.30812e-06
4.30511e-10
1.23202e-10
4.58728e-06
7.8118e-10
1.02243e-10
5.55119e-06
1.1838e-09
7.155e-11
6.29445e-06
1.59544e-09
4.33218e-11
6.86698e-06
1.96838e-09
2.50869e-11
7.29869e-06
2.26494e-09
1.14947e-11
7.60865e-06
2.4549e-09
1.71713e-12
7.8091e-06
2.5175e-09
-5.08025e-12
7.90739e-06
2.44466e-09
-1.13419e-11
7.90693e-06
2.24229e-09
-1.96444e-11
7.80764e-06
1.93059e-09
-3.23409e-11
7.60593e-06
1.54172e-09
-5.00051e-11
7.2944e-06
1.11781e-09
-7.29309e-11
6.86084e-06
7.12027e-10
-1.05432e-10
6.28637e-06
3.71041e-10
-1.38217e-10
5.54146e-06
1.26084e-10
-1.57012e-10
4.57677e-06
1.46736e-11
-1.71247e-10
3.29857e-06
-1.04634e-10
1.48963e-06
1.55373e-10
2.17309e-10
3.30841e-06
6.31962e-10
3.59545e-10
8.10485e-06
1.39461e-09
3.45092e-10
1.17242e-05
2.37677e-09
2.8555e-10
1.45221e-05
3.47296e-09
2.08691e-10
1.67028e-05
4.57057e-09
1.37406e-10
1.83912e-05
5.56245e-09
8.15395e-11
1.96679e-05
6.35102e-09
3.90533e-11
2.05861e-05
6.85821e-09
7.65576e-12
2.11806e-05
7.03226e-09
-1.68373e-11
2.14725e-05
6.85231e-09
-4.05554e-11
2.14716e-05
6.33161e-09
-6.987e-11
2.11778e-05
5.51834e-09
-1.10513e-10
2.05808e-05
4.49367e-09
-1.6567e-10
1.96592e-05
3.36487e-09
-2.35705e-10
1.83784e-05
2.25227e-09
-3.19362e-10
1.66855e-05
1.2793e-09
-4.01811e-10
1.45012e-05
5.52486e-10
-4.53859e-10
1.17018e-05
1.24427e-10
-4.40777e-10
8.08515e-06
-2.49148e-10
3.29827e-06
2.83899e-10
3.09022e-10
4.5883e-06
1.08918e-09
5.36368e-10
1.17256e-05
2.32122e-09
5.45827e-10
1.73306e-05
3.85768e-09
4.65856e-10
2.17592e-05
5.54496e-09
3.52139e-10
2.52532e-05
7.22064e-09
2.40167e-10
2.79777e-05
8.72739e-09
1.46196e-10
3.00466e-05
9.92358e-09
7.21241e-11
3.15386e-05
1.06956e-08
1.51291e-11
3.25062e-05
1.09675e-08
-3.16788e-11
3.29819e-05
1.07077e-08
-7.78383e-11
3.2981e-05
9.93417e-09
-1.33294e-10
3.25031e-05
8.71554e-09
-2.06756e-10
3.15324e-05
7.16797e-09
-3.03137e-10
3.0036e-05
5.44607e-09
-4.21618e-10
2.79614e-05
3.72632e-09
-5.54414e-10
2.52309e-05
2.18856e-09
-6.76796e-10
2.17319e-05
9.91863e-10
-7.42804e-10
1.73013e-05
2.43895e-10
-6.8582e-10
1.17001e-05
-3.71404e-10
4.57558e-06
3.99884e-10
3.53177e-10
5.55335e-06
1.48943e-09
6.40609e-10
1.45258e-05
3.12563e-09
6.76815e-10
2.17619e-05
5.13647e-09
5.92305e-10
2.75805e-05
7.32357e-09
4.58786e-10
3.22237e-05
9.48209e-09
3.20354e-10
3.58711e-05
1.14155e-08
1.98789e-10
3.86541e-05
1.29483e-08
9.99053e-11
4.06673e-05
1.39398e-08
2.12148e-11
4.19756e-05
1.42952e-08
-4.56296e-11
4.26196e-05
1.39747e-08
-1.12292e-10
4.26188e-05
1.29989e-08
-1.91012e-10
4.19726e-05
1.1451e-08
-2.92196e-10
4.0661e-05
9.47333e-09
-4.21294e-10
3.86428e-05
7.25642e-09
-5.75619e-10
3.58531e-05
5.02092e-09
-7.41271e-10
3.21985e-05
2.995e-09
-8.85189e-10
2.75492e-05
1.38735e-09
-9.49557e-10
2.17281e-05
3.5615e-10
-8.48522e-10
1.44963e-05
-4.41695e-10
5.53876e-06
4.90555e-10
3.54029e-10
6.29797e-06
1.81343e-09
6.64129e-10
1.67092e-05
3.78426e-09
7.20344e-10
2.52593e-05
6.18721e-09
6.43269e-10
3.22272e-05
8.78554e-09
5.0774e-10
3.78411e-05
1.13393e-08
3.60716e-10
4.22806e-05
1.36204e-08
2.27092e-10
4.56838e-05
1.54269e-08
1.15471e-10
4.81533e-05
1.6597e-08
2.42207e-11
4.97613e-05
1.70216e-08
-5.51675e-11
5.05539e-05
1.66541e-08
-1.34954e-10
5.05533e-05
1.55168e-08
-2.28086e-10
4.97587e-05
1.37037e-08
-3.45267e-10
4.81472e-05
1.13768e-08
-4.91484e-10
4.56723e-05
8.75469e-09
-6.62222e-10
4.22617e-05
6.09366e-09
-8.39484e-10
3.78139e-05
3.66213e-09
-9.85554e-10
3.21929e-05
1.71151e-09
-1.03805e-09
2.52219e-05
4.4516e-10
-9.06312e-10
1.66765e-05
-4.57697e-10
6.28176e-06
5.58139e-10
3.20103e-10
6.87188e-06
2.06291e-09
6.14934e-10
1.84005e-05
4.29776e-09
6.80238e-10
2.79872e-05
7.0123e-09
6.17228e-10
3.58783e-05
9.93817e-09
4.94213e-10
4.22843e-05
1.28065e-08
3.55609e-10
4.73789e-05
1.53639e-08
2.26268e-10
5.13e-05
1.73875e-08
1.15885e-10
5.41534e-05
1.86993e-08
2.37376e-11
5.60149e-05
1.91792e-08
-5.78383e-11
5.69335e-05
1.87751e-08
-1.40282e-10
5.69329e-05
1.75106e-08
-2.3574e-10
5.60125e-05
1.54876e-08
-3.53996e-10
5.41475e-05
1.28834e-08
-4.99026e-10
5.12883e-05
9.93862e-09
-6.65214e-10
4.7359e-05
6.93819e-09
-8.33331e-10
4.22554e-05
4.1837e-09
-9.65704e-10
3.58414e-05
1.96178e-09
-1.00265e-09
2.79468e-05
5.11586e-10
-8.60266e-10
1.83649e-05
-4.25132e-10
6.85418e-06
6.06755e-10
2.60037e-10
7.30485e-06
2.24558e-09
5.08438e-10
1.96797e-05
4.67881e-09
5.70538e-10
3.00592e-05
7.63019e-09
5.23841e-10
3.86645e-05
1.08063e-08
4.23827e-10
4.56906e-05
1.39154e-08
3.0778e-10
5.13031e-05
1.66842e-08
1.97327e-10
5.56371e-05
1.88738e-08
1.01497e-10
5.87983e-05
2.02938e-08
2.02352e-11
6.08639e-05
2.08158e-08
-5.26122e-11
6.18842e-05
2.03837e-08
-1.26532e-10
6.18837e-05
1.90218e-08
-2.11636e-10
6.08617e-05
1.68381e-08
-3.15896e-10
5.87924e-05
1.40214e-08
-4.42117e-10
5.56251e-05
1.08296e-08
-5.8467e-10
5.12824e-05
7.56976e-09
-7.26069e-10
4.56601e-05
4.56984e-09
-8.3343e-10
3.86253e-05
2.14431e-09
-8.56175e-10
3.0016e-05
5.59004e-10
-7.25318e-10
1.96415e-05
-3.52734e-10
7.2858e-06
6.39424e-10
1.82212e-10
7.61586e-06
2.3714e-09
3.607e-10
2.06e-05
4.94487e-09
4.08697e-10
3.15536e-05
8.06545e-09
3.7829e-10
4.068e-05
1.14213e-08
3.08243e-10
4.81622e-05
1.47037e-08
2.25248e-10
5.41584e-05
1.76249e-08
1.45149e-10
5.88002e-05
1.99341e-08
7.48369e-11
6.2192e-05
2.14321e-08
1.45616e-11
6.44109e-05
2.19842e-08
-3.99344e-11
6.55078e-05
2.15315e-08
-9.53844e-11
6.55073e-05
2.0099e-08
-1.58984e-10
6.44088e-05
1.77992e-08
-2.36312e-10
6.21861e-05
1.4829e-08
-3.29093e-10
5.87879e-05
1.14591e-08
-4.32805e-10
5.41369e-05
8.01301e-09
-5.34252e-10
4.81303e-05
4.83806e-09
-6.09257e-10
4.06388e-05
2.26905e-09
-6.21345e-10
3.1508e-05
5.90443e-10
-5.21862e-10
2.05596e-05
-2.5097e-10
7.59568e-06
6.59277e-10
9.36308e-11
7.81712e-06
2.44963e-09
1.86684e-10
2.1196e-05
5.11214e-09
2.12718e-10
3.25229e-05
8.34103e-09
1.97821e-10
4.19898e-05
1.18125e-08
1.6186e-10
4.97716e-05
1.52068e-08
1.18709e-10
5.6021e-05
1.82264e-08
7.67164e-11
6.08668e-05
2.06129e-08
3.95975e-11
6.44119e-05
2.21611e-08
7.57304e-12
6.6733e-05
2.27325e-08
-2.1524e-11
6.78809e-05
2.22663e-08
-5.11774e-11
6.78804e-05
2.07879e-08
-8.51157e-11
6.67308e-05
1.84127e-08
-1.262e-10
6.44059e-05
1.53431e-08
-1.75235e-10
6.08541e-05
1.18582e-08
-2.29712e-10
5.59989e-05
8.29244e-09
-2.82554e-10
4.97386e-05
5.00568e-09
-3.2099e-10
4.19472e-05
2.34593e-09
-3.25969e-10
3.24756e-05
6.09266e-10
-2.7241e-10
2.11541e-05
-1.30157e-10
7.79614e-06
6.6864e-10
-1.94109e-15
7.91601e-06
2.48699e-09
-5.93181e-15
2.1489e-05
5.1926e-09
-1.00856e-14
3.29997e-05
8.4742e-09
-1.39009e-14
4.26349e-05
1.20022e-08
-1.68657e-14
5.0565e-05
1.54512e-08
-1.85606e-14
5.69402e-05
1.8519e-08
-1.88143e-14
6.18875e-05
2.09433e-08
-1.76816e-14
6.55091e-05
2.25161e-08
-1.53934e-14
6.78812e-05
2.30969e-08
-1.22898e-14
6.90547e-05
2.26241e-08
-8.74449e-15
6.90542e-05
2.11231e-08
-5.12162e-15
6.78791e-05
1.87108e-08
-1.77154e-15
6.5503e-05
1.55925e-08
9.382e-16
6.18746e-05
1.20513e-08
2.66779e-15
5.69177e-05
8.42702e-09
3.2687e-15
5.05314e-05
5.08593e-09
2.83514e-15
4.25914e-05
2.3824e-09
1.74818e-15
3.29516e-05
6.18041e-10
5.06201e-16
2.14463e-05
-4.34615e-16
7.8946e-06
6.6864e-10
-9.36346e-11
7.91602e-06
2.487e-09
-1.86695e-10
2.1489e-05
5.1926e-09
-2.12738e-10
3.29997e-05
8.47421e-09
-1.97849e-10
4.26349e-05
1.20022e-08
-1.61893e-10
5.0565e-05
1.54512e-08
-1.18745e-10
5.69402e-05
1.8519e-08
-7.67535e-11
6.18875e-05
2.09434e-08
-3.96322e-11
6.55091e-05
2.25162e-08
-7.60312e-12
6.78812e-05
2.3097e-08
2.15001e-11
6.90547e-05
2.26241e-08
5.11606e-11
6.90542e-05
2.11231e-08
8.51061e-11
6.78791e-05
1.87108e-08
1.26197e-10
6.5503e-05
1.55925e-08
1.75237e-10
6.18746e-05
1.20513e-08
2.29718e-10
5.69177e-05
8.42703e-09
2.82561e-10
5.05314e-05
5.08593e-09
3.20996e-10
4.25914e-05
2.38241e-09
3.25973e-10
3.29516e-05
6.18042e-10
2.72412e-10
2.14463e-05
1.30157e-10
7.8946e-06
6.59278e-10
-1.82216e-10
7.81712e-06
2.44963e-09
-3.60712e-10
2.1196e-05
5.11215e-09
-4.08718e-10
3.25229e-05
8.34104e-09
-3.78318e-10
4.19898e-05
1.18126e-08
-3.08276e-10
4.97716e-05
1.52068e-08
-2.25283e-10
5.60211e-05
1.82264e-08
-1.45184e-10
6.08668e-05
2.06129e-08
-7.48698e-11
6.44119e-05
2.21611e-08
-1.45897e-11
6.6733e-05
2.27325e-08
3.99125e-11
6.78809e-05
2.22663e-08
9.53694e-11
6.78805e-05
2.0788e-08
1.58976e-10
6.67308e-05
1.84127e-08
2.36311e-10
6.44059e-05
1.53432e-08
3.29096e-10
6.08541e-05
1.18582e-08
4.32812e-10
5.59989e-05
8.29246e-09
5.34261e-10
4.97386e-05
5.00569e-09
6.09265e-10
4.19472e-05
2.34594e-09
6.21351e-10
3.24756e-05
6.09268e-10
5.21865e-10
2.11541e-05
2.5097e-10
7.79614e-06
6.39425e-10
-2.60042e-10
7.61586e-06
2.37141e-09
-5.08452e-10
2.06e-05
4.94489e-09
-5.7056e-10
3.15536e-05
8.06547e-09
-5.23869e-10
4.068e-05
1.14214e-08
-4.23859e-10
4.81622e-05
1.47038e-08
-3.07813e-10
5.41584e-05
1.7625e-08
-1.9736e-10
5.88003e-05
1.99342e-08
-1.01527e-10
6.2192e-05
2.14321e-08
-2.026e-11
6.44109e-05
2.19842e-08
5.25936e-11
6.55078e-05
2.15316e-08
1.2652e-10
6.55073e-05
2.00991e-08
2.11631e-10
6.44088e-05
1.77992e-08
3.15896e-10
6.21861e-05
1.4829e-08
4.42123e-10
5.87879e-05
1.14591e-08
5.8468e-10
5.41369e-05
8.01303e-09
7.2608e-10
4.81303e-05
4.83808e-09
8.33442e-10
4.06388e-05
2.26906e-09
8.56185e-10
3.1508e-05
5.90446e-10
7.25324e-10
2.05596e-05
3.52737e-10
7.59568e-06
6.06758e-10
-3.20111e-10
7.30485e-06
2.24559e-09
-6.14952e-10
1.96797e-05
4.67883e-09
-6.80261e-10
3.00592e-05
7.63022e-09
-6.17255e-10
3.86645e-05
1.08064e-08
-4.94242e-10
4.56906e-05
1.39154e-08
-3.55639e-10
5.13031e-05
1.66843e-08
-2.26296e-10
5.56371e-05
1.88738e-08
-1.1591e-10
5.87983e-05
2.02939e-08
-2.37576e-11
6.08639e-05
2.08159e-08
5.7824e-11
6.18842e-05
2.03837e-08
1.40274e-10
6.18837e-05
1.90218e-08
2.35738e-10
6.08617e-05
1.68382e-08
3.53999e-10
5.87925e-05
1.40215e-08
4.99034e-10
5.56251e-05
1.08296e-08
6.65226e-10
5.12824e-05
7.56979e-09
8.33347e-10
4.56601e-05
4.56987e-09
9.65721e-10
3.86253e-05
2.14432e-09
1.00266e-09
3.0016e-05
5.59008e-10
8.60278e-10
1.96415e-05
4.25138e-10
7.2858e-06
5.58145e-10
-3.54041e-10
6.87188e-06
2.06292e-09
-6.6415e-10
1.84005e-05
4.29779e-09
-7.20369e-10
2.79872e-05
7.01233e-09
-6.43294e-10
3.58783e-05
9.93822e-09
-5.07764e-10
4.22843e-05
1.28066e-08
-3.6074e-10
4.73789e-05
1.5364e-08
-2.27114e-10
5.13e-05
1.73876e-08
-1.1549e-10
5.41534e-05
1.86994e-08
-2.42354e-11
5.60149e-05
1.91793e-08
5.51581e-11
5.69335e-05
1.87752e-08
1.3495e-10
5.69329e-05
1.75106e-08
2.28087e-10
5.60125e-05
1.54877e-08
3.45272e-10
5.41475e-05
1.28834e-08
4.91492e-10
5.12883e-05
9.93867e-09
6.62235e-10
4.7359e-05
6.93823e-09
8.39502e-10
4.22554e-05
4.18373e-09
9.85575e-10
3.58414e-05
1.9618e-09
1.03807e-09
2.79468e-05
5.1159e-10
9.06329e-10
1.83649e-05
4.57705e-10
6.85418e-06
4.90563e-10
-3.53197e-10
6.29797e-06
1.81345e-09
-6.40635e-10
1.67092e-05
3.78429e-09
-6.76841e-10
2.52593e-05
6.18725e-09
-5.92328e-10
3.22273e-05
8.78559e-09
-4.58807e-10
3.78411e-05
1.13394e-08
-3.20374e-10
4.22806e-05
1.36205e-08
-1.98807e-10
4.56838e-05
1.5427e-08
-9.99212e-11
4.81533e-05
1.65971e-08
-2.12269e-11
4.97613e-05
1.70217e-08
4.56221e-11
5.0554e-05
1.66542e-08
1.12289e-10
5.05533e-05
1.55169e-08
1.91012e-10
4.97587e-05
1.37038e-08
2.92199e-10
4.81472e-05
1.13768e-08
4.21299e-10
4.56723e-05
8.75475e-09
5.75629e-10
4.22617e-05
6.0937e-09
7.41286e-10
3.78139e-05
3.66216e-09
8.85209e-10
3.21929e-05
1.71153e-09
9.49578e-10
2.52219e-05
4.45163e-10
8.48539e-10
1.66765e-05
4.41703e-10
6.28176e-06
3.99896e-10
-3.09059e-10
5.55335e-06
1.48945e-09
-5.36398e-10
1.45258e-05
3.12566e-09
-5.45851e-10
2.17619e-05
5.13651e-09
-4.65876e-10
2.75805e-05
7.32362e-09
-3.52156e-10
3.22237e-05
9.48215e-09
-2.40184e-10
3.58711e-05
1.14156e-08
-1.46212e-10
3.86541e-05
1.29484e-08
-7.21376e-11
4.06673e-05
1.39399e-08
-1.51396e-11
4.19756e-05
1.42953e-08
3.16717e-11
4.26196e-05
1.39747e-08
7.78344e-11
4.26188e-05
1.2999e-08
1.33293e-10
4.19727e-05
1.14511e-08
2.06756e-10
4.0661e-05
9.4734e-09
3.03138e-10
3.86428e-05
7.25648e-09
4.21621e-10
3.58531e-05
5.02096e-09
5.54421e-10
3.21985e-05
2.99503e-09
6.76807e-10
2.75492e-05
1.38736e-09
7.42817e-10
2.17281e-05
3.56151e-10
6.85833e-10
1.44963e-05
3.71408e-10
5.53876e-06
2.83918e-10
-2.17376e-10
4.5883e-06
1.0892e-09
-3.59591e-10
1.17256e-05
2.32125e-09
-3.45121e-10
1.73306e-05
3.85771e-09
-2.85572e-10
2.17592e-05
5.54501e-09
-2.0871e-10
2.52532e-05
7.22069e-09
-1.37424e-10
2.79777e-05
8.72745e-09
-8.15562e-11
3.00467e-05
9.92366e-09
-3.90686e-11
3.15386e-05
1.06957e-08
-7.66905e-12
3.25062e-05
1.09675e-08
1.68263e-11
3.29819e-05
1.07077e-08
4.05465e-11
3.2981e-05
9.93424e-09
6.98626e-11
3.25031e-05
8.7156e-09
1.10506e-10
3.15324e-05
7.16803e-09
1.65664e-10
3.0036e-05
5.44611e-09
2.357e-10
2.79614e-05
3.72635e-09
3.19359e-10
2.52309e-05
2.18857e-09
4.01811e-10
2.17319e-05
9.9187e-10
4.53861e-10
1.73013e-05
2.43894e-10
4.40773e-10
1.17001e-05
2.49149e-10
4.57558e-06
1.55419e-10
-9.72079e-11
3.30841e-06
6.32001e-10
-1.47119e-10
8.10485e-06
1.39463e-09
-1.23215e-10
1.17242e-05
2.37679e-09
-1.02249e-10
1.45221e-05
3.47299e-09
-7.15507e-11
1.67028e-05
4.57061e-09
-4.33203e-11
1.83912e-05
5.56249e-09
-2.50846e-11
1.96679e-05
6.35108e-09
-1.1492e-11
2.05861e-05
6.85828e-09
-1.71414e-12
2.11806e-05
7.03233e-09
5.08335e-12
2.14725e-05
6.85238e-09
1.1345e-11
2.14716e-05
6.33166e-09
1.96475e-11
2.11778e-05
5.51839e-09
3.23438e-11
2.05808e-05
4.49371e-09
5.00077e-11
1.96592e-05
3.3649e-09
7.29334e-11
1.83784e-05
2.25229e-09
1.05435e-10
1.66856e-05
1.2793e-09
1.3822e-10
1.45012e-05
5.52484e-10
1.57015e-10
1.17018e-05
1.24434e-10
1.71253e-10
8.08515e-06
1.04636e-10
3.29827e-06
2.78295e-11
1.49506e-06
1.63932e-10
3.30812e-06
4.30542e-10
4.58728e-06
7.81196e-10
5.55119e-06
1.18381e-09
6.29445e-06
1.59545e-09
6.86698e-06
1.9684e-09
7.29869e-06
2.26496e-09
7.60865e-06
2.45493e-09
7.8091e-06
2.51753e-09
7.9074e-06
2.44469e-09
7.90694e-06
2.24232e-09
7.80764e-06
1.93061e-09
7.60593e-06
1.54173e-09
7.2944e-06
1.11782e-09
6.86084e-06
7.12031e-10
6.28637e-06
3.71042e-10
5.54146e-06
1.26081e-10
4.57677e-06
1.46793e-11
3.29857e-06
1.48963e-06
-6.66058e-12
2.25432e-10
1.49484e-06
1.59685e-10
3.70857e-10
3.30759e-06
5.77866e-10
3.58235e-10
4.5865e-06
1.19935e-09
3.12074e-10
5.55025e-06
1.95796e-09
2.4238e-10
6.29345e-06
2.76033e-09
1.72517e-10
6.86601e-06
3.50329e-09
1.14752e-10
7.29783e-06
4.09718e-09
6.4905e-11
7.60799e-06
4.46975e-09
2.14709e-11
7.80871e-06
4.57305e-09
-1.79559e-11
7.90731e-06
4.39027e-09
-5.77302e-11
7.90718e-06
3.93906e-09
-1.02285e-10
7.80819e-06
3.27183e-09
-1.55389e-10
7.60675e-06
2.47069e-09
-2.1809e-10
7.29542e-06
1.63953e-09
-2.89436e-10
6.86196e-06
8.95223e-10
-3.69576e-10
6.28749e-06
3.36279e-10
-4.40271e-10
5.54246e-06
1.66672e-11
-4.70936e-10
4.57756e-06
-5.21811e-11
-4.43406e-10
3.29908e-06
-2.40227e-10
1.48981e-06
1.83973e-10
5.51796e-10
3.3079e-06
9.3882e-10
9.77571e-10
8.10349e-06
2.30162e-09
1.02185e-09
1.17222e-05
4.17456e-09
9.10129e-10
1.45197e-05
6.35692e-09
7.30963e-10
1.67001e-05
8.60528e-09
5.40465e-10
1.83886e-05
1.067e-08
3.64545e-10
1.96656e-05
1.23192e-08
2.06827e-10
2.05843e-05
1.3365e-08
6.47572e-11
2.11795e-05
1.36831e-08
-6.92246e-11
2.14722e-05
1.32274e-08
-2.05882e-10
2.14722e-05
1.20385e-08
-3.56039e-10
2.11793e-05
1.02442e-08
-5.28285e-10
2.05829e-05
8.05151e-09
-7.25364e-10
1.96619e-05
5.72404e-09
-9.41579e-10
1.83813e-05
3.54576e-09
-1.16075e-09
1.66885e-05
1.77902e-09
-1.33986e-09
1.45039e-05
6.07689e-10
-1.40278e-09
1.17039e-05
6.39849e-11
-1.24323e-09
8.08649e-06
-6.42992e-10
3.29874e-06
4.30044e-10
8.3467e-10
4.58758e-06
1.8487e-09
1.54191e-09
1.17236e-05
4.19879e-09
1.67811e-09
1.73276e-05
7.27897e-09
1.53483e-09
2.17555e-05
1.07797e-08
1.26252e-09
2.52492e-05
1.43385e-08
9.52365e-10
2.79737e-05
1.75836e-08
6.49901e-10
3.00431e-05
2.01718e-08
3.69165e-10
3.15358e-05
2.18241e-08
1.09049e-10
3.25045e-05
2.2354e-08
-1.41402e-10
3.29815e-05
2.16895e-08
-3.98199e-10
3.29819e-05
1.98857e-08
-6.77413e-10
3.25052e-05
1.71267e-08
-9.90814e-10
3.15356e-05
1.37133e-08
-1.34019e-09
3.004e-05
1.0032e-08
-1.71144e-09
2.79659e-05
6.50584e-09
-2.06837e-09
2.52354e-05
3.53237e-09
-2.33642e-09
2.17359e-05
1.41077e-09
-2.39168e-09
1.73044e-05
2.64968e-10
-2.05521e-09
1.1702e-05
-1.03273e-09
4.57623e-06
6.79248e-10
1.00735e-09
5.55249e-06
2.73616e-09
1.92614e-09
1.45234e-05
6.01524e-09
2.15513e-09
2.17582e-05
1.02103e-08
2.01201e-09
2.75758e-05
1.49067e-08
1.68463e-09
3.22186e-05
1.96366e-08
1.28908e-09
3.5866e-05
2.39272e-08
8.87345e-10
3.86496e-05
2.73445e-08
5.03663e-10
4.06637e-05
2.95358e-08
1.4005e-10
4.19733e-05
3.02639e-08
-2.15326e-10
4.2619e-05
2.94341e-08
-5.81027e-10
4.26198e-05
2.71112e-08
-9.75662e-10
4.19753e-05
2.35216e-08
-1.41161e-09
4.0665e-05
1.90394e-08
-1.88755e-09
3.86478e-05
1.41502e-08
-2.38015e-09
3.58587e-05
9.39285e-09
-2.83488e-09
3.2204e-05
5.2861e-09
-3.15113e-09
2.75541e-05
2.2438e-09
-3.1699e-09
2.17319e-05
4.89576e-10
-2.66519e-09
1.44987e-05
-1.30415e-09
5.53952e-06
8.96013e-10
1.05696e-09
6.29702e-06
3.52052e-09
2.07448e-09
1.67065e-05
7.62542e-09
2.36867e-09
2.5255e-05
1.28055e-08
2.24726e-09
3.22218e-05
1.85505e-08
1.90747e-09
3.78351e-05
2.43006e-08
1.47539e-09
4.22747e-05
2.94972e-08
1.02214e-09
4.56785e-05
3.36315e-08
5.79022e-10
4.81491e-05
3.62903e-08
1.51483e-10
4.97586e-05
3.71947e-08
-2.7111e-10
5.05531e-05
3.6231e-08
-7.07122e-10
5.05543e-05
3.34703e-08
-1.17494e-09
4.97616e-05
2.91722e-08
-1.68544e-09
4.81518e-05
2.37695e-08
-2.23349e-09
4.5678e-05
1.7829e-08
-2.78851e-09
4.2268e-05
1.19882e-08
-3.28407e-09
3.78202e-05
6.87201e-09
-3.60502e-09
3.21985e-05
2.99966e-09
-3.57679e-09
2.52262e-05
6.91812e-10
-2.95812e-09
1.66791e-05
-1.41727e-09
6.28257e-06
1.07254e-09
9.91788e-10
6.87087e-06
4.17129e-09
1.98407e-09
1.83975e-05
8.97119e-09
2.30024e-09
2.79825e-05
1.49824e-08
2.20962e-09
3.58723e-05
2.16117e-08
1.89512e-09
4.22777e-05
2.82202e-08
1.47771e-09
4.73722e-05
3.41774e-08
1.02852e-09
5.12941e-05
3.89127e-08
5.81138e-10
5.41486e-05
4.19636e-08
1.43406e-10
5.60118e-05
4.30172e-08
-2.92967e-10
5.69324e-05
4.19443e-08
-7.44067e-10
5.6934e-05
3.88203e-08
-1.22595e-09
5.60157e-05
3.39312e-08
-1.74684e-09
5.41524e-05
2.77574e-08
-2.29869e-09
5.12945e-05
2.09328e-08
-2.84779e-09
4.73659e-05
1.41771e-08
-3.32495e-09
4.22622e-05
8.20668e-09
-3.61485e-09
3.58474e-05
3.63218e-09
-3.54815e-09
2.79513e-05
8.58088e-10
-2.89751e-09
1.83676e-05
-1.36628e-09
6.85499e-06
1.20886e-09
8.29833e-10
7.3038e-06
4.68073e-09
1.68348e-09
1.96766e-05
1.00339e-08
1.97354e-09
3.00542e-05
1.67108e-08
1.91323e-09
3.86581e-05
2.40502e-08
1.65347e-09
4.56835e-05
3.13483e-08
1.29688e-09
5.12959e-05
3.79159e-08
9.0561e-10
5.56307e-05
4.31331e-08
5.10353e-10
5.87931e-05
4.6498e-08
1.19551e-10
6.08605e-05
4.76711e-08
-2.72495e-10
6.1883e-05
4.65105e-08
-6.78333e-10
6.18848e-05
4.30953e-08
-1.11043e-09
6.0865e-05
3.77322e-08
-1.57423e-09
5.87976e-05
3.09395e-08
-2.06063e-09
5.56316e-05
2.34047e-08
-2.53808e-09
5.12896e-05
1.59145e-08
-2.94425e-09
4.56672e-05
9.25993e-09
-3.17805e-09
3.86315e-05
4.1266e-09
-3.09448e-09
3.00207e-05
9.85985e-10
-2.50347e-09
1.96443e-05
-1.16651e-09
7.28658e-06
1.30686e-09
5.94176e-10
7.61479e-06
5.05256e-09
1.21706e-09
2.05967e-05
1.08161e-08
1.43757e-09
3.15483e-05
1.799e-08
1.4024e-09
4.06734e-05
2.58612e-08
1.21834e-09
4.81548e-05
3.36762e-08
9.59419e-10
5.4151e-05
4.07017e-08
6.71398e-10
5.87935e-05
4.62801e-08
3.77529e-10
6.21866e-05
4.988e-08
8.48465e-11
6.44074e-05
5.11419e-08
-2.10038e-10
6.55065e-05
4.99147e-08
-5.1558e-10
6.55084e-05
4.62803e-08
-8.40148e-10
6.44121e-05
4.05609e-08
-1.1868e-09
6.21914e-05
3.33033e-08
-1.54778e-09
5.87946e-05
2.52359e-08
-1.89869e-09
5.41444e-05
1.71962e-08
-2.19266e-09
4.81376e-05
1.00318e-08
-2.35503e-09
4.06452e-05
4.48514e-09
-2.28041e-09
3.15127e-05
1.07691e-09
-1.83304e-09
2.05624e-05
-8.47077e-10
7.59644e-06
1.36981e-09
3.09353e-10
7.81604e-06
5.29446e-09
6.37201e-10
2.11927e-05
1.13284e-08
7.55957e-10
3.25175e-05
1.88315e-08
7.40167e-10
4.1983e-05
2.70558e-08
6.44982e-10
4.97639e-05
3.52147e-08
5.09092e-10
5.60133e-05
4.2545e-08
3.56687e-10
6.08598e-05
4.83636e-08
2.00268e-10
6.44062e-05
5.21197e-08
4.38113e-11
6.67293e-05
5.34402e-08
-1.1422e-10
6.78795e-05
5.2168e-08
-2.78051e-10
6.78815e-05
4.83869e-08
-4.51846e-10
6.67342e-05
4.24295e-08
-6.36928e-10
6.44113e-05
3.4862e-08
-8.28846e-10
6.08609e-05
2.64402e-08
-1.01433e-09
5.60064e-05
1.80358e-08
-1.16827e-09
4.97459e-05
1.05345e-08
-1.25112e-09
4.19536e-05
4.71661e-09
-1.20753e-09
3.24803e-05
1.1346e-09
-9.66979e-10
2.11568e-05
-4.447e-10
7.79687e-06
1.40055e-09
-8.13196e-15
7.91492e-06
5.41342e-09
-2.30699e-14
2.14856e-05
1.15814e-08
-3.61296e-14
3.29943e-05
1.92482e-08
-4.59239e-14
4.2628e-05
2.76485e-08
-5.15208e-14
5.05572e-05
3.5979e-08
-5.2347e-14
5.69324e-05
4.34614e-08
-4.83354e-14
6.18804e-05
4.93999e-08
-3.99065e-14
6.55033e-05
5.32338e-08
-2.79033e-14
6.78775e-05
5.45834e-08
-1.34899e-14
6.90532e-05
5.32885e-08
1.96405e-15
6.90552e-05
4.94337e-08
1.70068e-14
6.78825e-05
4.33573e-08
3.01924e-14
6.55084e-05
3.56348e-08
4.0156e-14
6.18815e-05
2.70362e-08
4.57484e-14
5.69253e-05
1.84502e-08
4.62428e-14
5.05388e-05
1.07818e-08
4.16208e-14
4.25978e-05
4.82976e-09
3.24416e-14
3.29563e-05
1.16249e-09
1.9996e-14
2.1449e-05
6.47396e-15
7.89532e-06
1.40055e-09
-3.09369e-10
7.91492e-06
5.41342e-09
-6.37247e-10
2.14856e-05
1.15814e-08
-7.56029e-10
3.29943e-05
1.92482e-08
-7.40259e-10
4.2628e-05
2.76485e-08
-6.45085e-10
5.05572e-05
3.5979e-08
-5.09196e-10
5.69324e-05
4.34614e-08
-3.56783e-10
6.18804e-05
4.94e-08
-2.00347e-10
6.55033e-05
5.32338e-08
-4.38665e-11
6.78775e-05
5.45834e-08
1.14194e-10
6.90532e-05
5.32885e-08
2.78055e-10
6.90552e-05
4.94338e-08
4.5188e-10
6.78825e-05
4.33573e-08
6.36988e-10
6.55084e-05
3.56349e-08
8.28926e-10
6.18815e-05
2.70362e-08
1.01442e-09
5.69253e-05
1.84503e-08
1.16836e-09
5.05388e-05
1.07818e-08
1.2512e-09
4.25978e-05
4.82977e-09
1.20759e-09
3.29563e-05
1.16249e-09
9.6702e-10
2.1449e-05
4.44714e-10
7.89532e-06
1.36982e-09
-5.94193e-10
7.81604e-06
5.29447e-09
-1.21711e-09
2.11927e-05
1.13284e-08
-1.43764e-09
3.25175e-05
1.88315e-08
-1.40249e-09
4.1983e-05
2.70559e-08
-1.21844e-09
4.97639e-05
3.52148e-08
-9.59522e-10
5.60133e-05
4.25451e-08
-6.71492e-10
6.08598e-05
4.83637e-08
-3.77606e-10
6.44062e-05
5.21197e-08
-8.49008e-11
6.67293e-05
5.34403e-08
2.10012e-10
6.78795e-05
5.21681e-08
5.15584e-10
6.78815e-05
4.83869e-08
8.4018e-10
6.67342e-05
4.24295e-08
1.18686e-09
6.44113e-05
3.4862e-08
1.54786e-09
6.08609e-05
2.64402e-08
1.89878e-09
5.60064e-05
1.80358e-08
2.19275e-09
4.97459e-05
1.05346e-08
2.35512e-09
4.19536e-05
4.71662e-09
2.28048e-09
3.24803e-05
1.1346e-09
1.83308e-09
2.11568e-05
8.47091e-10
7.79687e-06
1.30686e-09
-8.2985e-10
7.61479e-06
5.05257e-09
-1.68352e-09
2.05967e-05
1.08161e-08
-1.97361e-09
3.15483e-05
1.79901e-08
-1.91332e-09
4.06734e-05
2.58613e-08
-1.65357e-09
4.81548e-05
3.36763e-08
-1.29698e-09
5.4151e-05
4.07018e-08
-9.057e-10
5.87935e-05
4.62802e-08
-5.10427e-10
6.21866e-05
4.98801e-08
-1.19603e-10
6.44074e-05
5.1142e-08
2.7247e-10
6.55065e-05
4.99149e-08
6.78336e-10
6.55084e-05
4.62805e-08
1.11046e-09
6.44121e-05
4.0561e-08
1.57428e-09
6.21914e-05
3.33034e-08
2.06071e-09
5.87946e-05
2.5236e-08
2.53817e-09
5.41444e-05
1.71962e-08
2.94433e-09
4.81376e-05
1.00318e-08
3.17813e-09
4.06452e-05
4.48516e-09
3.09455e-09
3.15127e-05
1.07692e-09
2.50352e-09
2.05624e-05
1.16652e-09
7.59644e-06
1.20886e-09
-9.91807e-10
7.3038e-06
4.68075e-09
-1.98412e-09
1.96766e-05
1.00339e-08
-2.30031e-09
3.00542e-05
1.67109e-08
-2.2097e-09
3.86581e-05
2.40503e-08
-1.89522e-09
4.56835e-05
3.13484e-08
-1.4778e-09
5.12959e-05
3.79161e-08
-1.02861e-09
5.56307e-05
4.31332e-08
-5.81207e-10
5.87931e-05
4.64982e-08
-1.43454e-10
6.08605e-05
4.76713e-08
2.92944e-10
6.1883e-05
4.65106e-08
7.44069e-10
6.18848e-05
4.30955e-08
1.22597e-09
6.0865e-05
3.77324e-08
1.74689e-09
5.87976e-05
3.09396e-08
2.29875e-09
5.56316e-05
2.34048e-08
2.84787e-09
5.12896e-05
1.59146e-08
3.32504e-09
4.56672e-05
9.25997e-09
3.61493e-09
3.86315e-05
4.12662e-09
3.54821e-09
3.00207e-05
9.85991e-10
2.89756e-09
1.96443e-05
1.3663e-09
7.28658e-06
1.07255e-09
-1.05698e-09
6.87088e-06
4.17132e-09
-2.07453e-09
1.83975e-05
8.97124e-09
-2.36874e-09
2.79825e-05
1.49824e-08
-2.24733e-09
3.58723e-05
2.16118e-08
-1.90755e-09
4.22777e-05
2.82204e-08
-1.47547e-09
4.73723e-05
3.41776e-08
-1.02222e-09
5.12941e-05
3.89129e-08
-5.79082e-10
5.41486e-05
4.19638e-08
-1.51524e-10
5.60118e-05
4.30174e-08
2.7109e-10
5.69325e-05
4.19445e-08
7.07124e-10
5.6934e-05
3.88204e-08
1.17496e-09
5.60157e-05
3.39313e-08
1.68548e-09
5.41524e-05
2.77576e-08
2.23355e-09
5.12945e-05
2.09329e-08
2.78858e-09
4.73659e-05
1.41772e-08
3.28415e-09
4.22622e-05
8.20674e-09
3.6051e-09
3.58474e-05
3.63221e-09
3.57686e-09
2.79513e-05
8.58094e-10
2.95817e-09
1.83676e-05
1.41729e-09
6.85499e-06
8.96024e-10
-1.00737e-09
6.29702e-06
3.52055e-09
-1.92618e-09
1.67065e-05
7.62548e-09
-2.15518e-09
2.5255e-05
1.28055e-08
-2.01207e-09
3.22218e-05
1.85506e-08
-1.6847e-09
3.78351e-05
2.43007e-08
-1.28914e-09
4.22747e-05
2.94973e-08
-8.874e-10
4.56785e-05
3.36317e-08
-5.03707e-10
4.81491e-05
3.62905e-08
-1.4008e-10
4.97587e-05
3.71949e-08
2.15314e-10
5.05531e-05
3.62312e-08
5.81032e-10
5.05544e-05
3.34705e-08
9.75684e-10
4.97617e-05
2.91723e-08
1.41164e-09
4.81518e-05
2.37696e-08
1.8876e-09
4.5678e-05
1.78292e-08
2.38021e-09
4.2268e-05
1.19883e-08
2.83495e-09
3.78202e-05
6.87207e-09
3.1512e-09
3.21985e-05
2.99969e-09
3.16996e-09
2.52262e-05
6.91818e-10
2.66523e-09
1.66791e-05
1.30417e-09
6.28257e-06
6.79262e-10
-8.34697e-10
5.55249e-06
2.73619e-09
-1.54194e-09
1.45234e-05
6.01529e-09
-1.67815e-09
2.17582e-05
1.02104e-08
-1.53487e-09
2.75759e-05
1.49068e-08
-1.26256e-09
3.22186e-05
1.96368e-08
-9.52399e-10
3.5866e-05
2.39273e-08
-6.49931e-10
3.86496e-05
2.73447e-08
-3.69188e-10
4.06638e-05
2.9536e-08
-1.09061e-10
4.19734e-05
3.02641e-08
1.41402e-10
4.2619e-05
2.94343e-08
3.98212e-10
4.26198e-05
2.71114e-08
6.77437e-10
4.19753e-05
2.35218e-08
9.90848e-10
4.0665e-05
1.90396e-08
1.34023e-09
3.86478e-05
1.41503e-08
1.71149e-09
3.58587e-05
9.39293e-09
2.06842e-09
3.2204e-05
5.28615e-09
2.33648e-09
2.75541e-05
2.24383e-09
2.39173e-09
2.17319e-05
4.89581e-10
2.05525e-09
1.44987e-05
1.03274e-09
5.53952e-06
4.30064e-10
-5.51834e-10
4.58758e-06
1.84873e-09
-9.77597e-10
1.17236e-05
4.19883e-09
-1.02186e-09
1.73276e-05
7.27903e-09
-9.10137e-10
2.17555e-05
1.07798e-08
-7.30969e-10
2.52492e-05
1.43386e-08
-5.4047e-10
2.79737e-05
1.75837e-08
-3.64547e-10
3.00431e-05
2.0172e-08
-2.06825e-10
3.15358e-05
2.18243e-08
-6.47495e-11
3.25045e-05
2.23542e-08
6.9239e-11
3.29815e-05
2.16897e-08
2.05904e-10
3.29819e-05
1.98858e-08
3.56066e-10
3.25053e-05
1.71269e-08
5.28317e-10
3.15356e-05
1.37134e-08
7.254e-10
3.004e-05
1.00321e-08
9.41617e-10
2.79659e-05
6.5059e-09
1.16079e-09
2.52354e-05
3.53241e-09
1.3399e-09
2.17359e-05
1.41078e-09
1.40281e-09
1.73044e-05
2.64969e-10
1.24326e-09
1.1702e-05
6.43008e-10
4.57623e-06
1.84014e-10
-2.25486e-10
3.3079e-06
9.38861e-10
-3.70886e-10
8.10349e-06
2.30166e-09
-3.5825e-10
1.17222e-05
4.1746e-09
-3.12082e-10
1.45197e-05
6.35698e-09
-2.42384e-10
1.67002e-05
8.60536e-09
-1.72519e-10
1.83886e-05
1.06701e-08
-1.14753e-10
1.96656e-05
1.23193e-08
-6.49039e-11
2.05843e-05
1.33651e-08
-2.14679e-11
2.11795e-05
1.36832e-08
1.79609e-11
2.14722e-05
1.32276e-08
5.7737e-11
2.14723e-05
1.20386e-08
1.02293e-10
2.11793e-05
1.02443e-08
1.55399e-10
2.05829e-05
8.05159e-09
2.181e-10
1.96619e-05
5.7241e-09
2.89447e-10
1.83813e-05
3.5458e-09
3.69586e-10
1.66885e-05
1.77903e-09
4.40281e-10
1.45039e-05
6.07694e-10
4.70945e-10
1.17039e-05
6.39758e-11
4.43411e-10
8.08649e-06
2.40231e-10
3.29874e-06
-6.59401e-12
1.49484e-06
1.59731e-10
3.30759e-06
5.77893e-10
4.5865e-06
1.19937e-09
5.55025e-06
1.95798e-09
6.29345e-06
2.76036e-09
6.86601e-06
3.50333e-09
7.29783e-06
4.09722e-09
7.60799e-06
4.4698e-09
7.80871e-06
4.5731e-09
7.90731e-06
4.39032e-09
7.90718e-06
3.93911e-09
7.80819e-06
3.27187e-09
7.60675e-06
2.47072e-09
7.29542e-06
1.63955e-09
6.86196e-06
8.95235e-10
6.28749e-06
3.36283e-10
5.54246e-06
1.66661e-11
4.57756e-06
-5.21874e-11
3.29908e-06
1.48981e-06
-3.30513e-11
3.70142e-10
1.49451e-06
1.93129e-10
6.17364e-10
3.30674e-06
8.127e-10
6.13126e-10
4.58527e-06
1.7693e-09
5.37062e-10
5.54876e-06
2.95621e-09
4.23755e-10
6.29184e-06
4.22312e-09
3.08388e-10
6.86443e-06
5.40511e-09
2.08046e-10
7.29644e-06
6.35462e-09
1.19545e-10
7.60692e-06
6.95192e-09
4.04367e-11
7.80807e-06
7.11725e-09
-3.35747e-11
7.90718e-06
6.82174e-09
-1.09099e-10
7.90758e-06
6.09339e-09
-1.92782e-10
7.80911e-06
5.01796e-09
-2.90158e-10
7.60812e-06
3.73195e-09
-4.03023e-10
7.29711e-06
2.40875e-09
-5.2929e-10
6.86381e-06
1.23958e-09
-6.64691e-10
6.28932e-06
3.86815e-10
-7.81099e-10
5.54409e-06
-6.19986e-11
-8.29438e-10
4.57884e-06
-1.15351e-10
-7.5965e-10
3.29989e-06
-4.0263e-10
1.4901e-06
2.4623e-10
9.21286e-10
3.3071e-06
1.37198e-09
1.65047e-09
8.10133e-06
3.47643e-09
1.75053e-09
1.1719e-05
6.41623e-09
1.57653e-09
1.45157e-05
9.87975e-09
1.28362e-09
1.66958e-05
1.34768e-08
9.6348e-10
1.83844e-05
1.67995e-08
6.58733e-10
1.96618e-05
1.94666e-08
3.78457e-10
2.05814e-05
2.11662e-08
1.19215e-10
2.11777e-05
2.16895e-08
-1.30775e-10
2.14718e-05
2.09563e-08
-3.87865e-10
2.14733e-05
1.90301e-08
-6.6831e-10
2.11817e-05
1.61211e-08
-9.84445e-10
2.05865e-05
1.25721e-08
-1.33915e-09
1.96664e-05
8.82208e-09
-1.72057e-09
1.83863e-05
5.34456e-09
-2.09631e-09
1.66934e-05
2.57062e-09
-2.39175e-09
1.45083e-05
7.89489e-10