/*--------------------------------*- C++ -*----------------------------------*\
  =========                 |
  \\      /  F ield         | OpenFOAM: The Open Source CFD Toolbox
   \\    /   O peration     | Website:  https://openfoam.org
    \\  /    A nd           | Version:  6
     \\/     M anipulation  |
\*---------------------------------------------------------------------------*/
FoamFile
{
    version     2.0;
    format      ascii;
    class       volVectorField;
    location    "0.05";
    object      U;
}
// * * * * * * * * * * * * * * * * * * * * * * * * * * * * * * * * * * * * * //

dimensions      [0 1 -1 0 0 0 0];

internalField   nonuniform List<vector> 
32000
(
(-3.50588e-07 1.39307e-06 0.0598058)
(2.68622e-06 2.08058e-06 0.132333)
(1.08571e-05 1.13532e-06 0.183502)
(2.3645e-05 9.9262e-07 0.222061)
(3.90179e-05 6.67756e-07 0.251792)
(5.57355e-05 3.00598e-07 0.274693)
(7.18473e-05 1.58338e-07 0.29196)
(8.55529e-05 6.41351e-08 0.304355)
(9.55254e-05 -6.53258e-09 0.31237)
(0.00010072 -3.79654e-08 0.316297)
(0.000100528 -5.67579e-08 0.316274)
(9.49002e-05 -9.90633e-08 0.312298)
(8.43747e-05 -1.91525e-07 0.304226)
(7.00192e-05 -3.17742e-07 0.291762)
(5.32953e-05 -5.00191e-07 0.274418)
(3.62214e-05 -9.08105e-07 0.251439)
(2.09579e-05 -1.25732e-06 0.221644)
(8.83575e-06 -1.39741e-06 0.183059)
(1.66963e-06 -2.25932e-06 0.131935)
(-4.92634e-07 -1.43863e-06 0.059582)
(9.08624e-07 6.42724e-06 0.132344)
(1.24117e-05 9.99693e-06 0.324214)
(3.78761e-05 9.31645e-06 0.468999)
(7.39896e-05 7.52345e-06 0.580921)
(0.000116379 5.33854e-06 0.668151)
(0.000161352 3.40495e-06 0.735687)
(0.000204254 1.97064e-06 0.78675)
(0.00024069 9.13384e-07 0.82347)
(0.000267238 1.62567e-07 0.847239)
(0.000281246 -3.91805e-07 0.858904)
(0.000281172 -9.18111e-07 0.858858)
(0.000266842 -1.58933e-06 0.847094)
(0.000239541 -2.56581e-06 0.823201)
(0.000201893 -3.9359e-06 0.78633)
(0.000157592 -5.72606e-06 0.735093)
(0.000111537 -7.97831e-06 0.66738)
(6.89275e-05 -1.03173e-05 0.580011)
(3.3773e-05 -1.19328e-05 0.468043)
(1.01575e-05 -1.19146e-05 0.323386)
(5.44643e-07 -7.12284e-06 0.131924)
(1.69097e-06 1.08107e-05 0.183543)
(2.25965e-05 1.84064e-05 0.469054)
(6.4336e-05 1.82327e-05 0.693269)
(0.000121584 1.53412e-05 0.870422)
(0.00018725 1.13872e-05 1.01019)
(0.000256159 7.61991e-06 1.11916)
(0.000321446 4.57788e-06 1.20192)
(0.000376711 2.22739e-06 1.26158)
(0.000417009 4.56881e-07 1.30027)
(0.000438461 -9.58534e-07 1.31928)
(0.000438778 -2.34063e-06 1.31923)
(0.000417657 -4.02589e-06 1.3001)
(0.000376915 -6.31212e-06 1.26125)
(0.000320308 -9.36562e-06 1.20138)
(0.00025311 -1.31874e-05 1.1184)
(0.00018243 -1.76271e-05 1.00917)
(0.000115951 -2.18746e-05 0.869219)
(5.94242e-05 -2.4342e-05 0.692008)
(1.97332e-05 -2.30128e-05 0.467975)
(1.20875e-06 -1.26867e-05 0.183013)
(2.492e-06 1.36459e-05 0.222147)
(3.15431e-05 2.43124e-05 0.581067)
(8.74642e-05 2.52921e-05 0.870531)
(0.000162765 2.18399e-05 1.10329)
(0.000248323 1.67005e-05 1.28902)
(0.000337337 1.15354e-05 1.43491)
(0.000421191 7.09441e-06 1.54623)
(0.000492013 3.53475e-06 1.62674)
(0.000543667 7.50811e-07 1.67905)
(0.000571326 -1.5744e-06 1.70479)
(0.00057213 -3.88061e-06 1.70474)
(0.000545654 -6.62655e-06 1.67887)
(0.000494075 -1.02095e-05 1.62638)
(0.000421984 -1.48469e-05 1.54564)
(0.000335868 -2.04641e-05 1.43405)
(0.000244463 -2.66178e-05 1.28786)
(0.000157439 -3.21528e-05 1.1019)
(8.24165e-05 -3.4911e-05 0.869067)
(2.84388e-05 -3.16338e-05 0.579817)
(1.95134e-06 -1.67369e-05 0.221539)
(3.03851e-06 1.44897e-05 0.251933)
(3.86913e-05 2.68319e-05 0.66841)
(0.00010629 2.87761e-05 1.01043)
(0.000196562 2.54616e-05 1.28917)
(0.000298565 1.99382e-05 1.51373)
(0.00040405 1.40649e-05 1.69131)
(0.000503049 8.79859e-06 1.82743)
(0.000586533 4.45211e-06 1.92619)
(0.000647417 9.44677e-07 1.99049)
(0.000680145 -2.07387e-06 2.02217)
(0.00068142 -5.09734e-06 2.02212)
(0.000650709 -8.64418e-06 1.99031)
(0.000590438 -1.31502e-05 1.92582)
(0.000505821 -1.88331e-05 1.82681)
(0.0004043 -2.55402e-05 1.69038)
(0.00029589 -3.25984e-05 1.51247)
(0.000191813 -3.85541e-05 1.28764)
(0.000101351 -4.09478e-05 1.00881)
(3.54943e-05 -3.61119e-05 0.667022)
(2.45988e-06 -1.84502e-05 0.251258)
(3.38105e-06 1.37547e-05 0.27489)
(4.41107e-05 2.61912e-05 0.736064)
(0.000120876 2.87499e-05 1.11956)
(0.000223022 2.5925e-05 1.43522)
(0.000338113 2.06415e-05 1.69147)
(0.000456708 1.47747e-05 1.89525)
(0.000567756 9.35846e-06 2.05208)
(0.000661294 4.78023e-06 2.1662)
(0.000729495 9.93176e-07 2.24064)
(0.000766245 -2.33559e-06 2.27735)
(0.000767916 -5.69232e-06 2.2773)
(0.000733884 -9.59138e-06 2.24046)
(0.000666753 -1.44525e-05 2.16583)
(0.000572205 -2.04593e-05 2.05144)
(0.00045843 -2.74005e-05 1.89427)
(0.000336471 -3.44978e-05 1.69012)
(0.000218799 -4.01885e-05 1.43357)
(0.000116063 -4.19646e-05 1.1178)
(4.08541e-05 -3.62531e-05 0.734555)
(2.77133e-06 -1.80577e-05 0.274154)
(3.6087e-06 1.18041e-05 0.29221)
(4.80199e-05 2.29414e-05 0.787235)
(0.000131624 2.56133e-05 1.20244)
(0.000242746 2.34153e-05 1.54667)
(0.000367819 1.88697e-05 1.82772)
(0.000496446 1.36544e-05 2.05222)
(0.000616718 8.72955e-06 2.22557)
(0.000717947 4.48453e-06 2.352)
(0.000791735 9.06103e-07 2.4346)
(0.000831555 -2.28708e-06 2.47538)
(0.000833524 -5.52249e-06 2.47533)
(0.000796952 -9.25506e-06 2.43442)
(0.000724573 -1.38465e-05 2.35163)
(0.000622419 -1.94323e-05 2.22491)
(0.000499253 -2.57771e-05 2.05119)
(0.00036692 -3.21199e-05 1.8263)
(0.000238879 -3.70041e-05 1.54492)
(0.000126868 -3.81635e-05 1.20057)
(4.46957e-05 -3.24763e-05 0.78562)
(2.97091e-06 -1.58774e-05 0.291419)
(3.74652e-06 8.97697e-06 0.304651)
(5.06701e-05 1.77064e-05 0.824047)
(0.000139072 2.00036e-05 1.26222)
(0.000256577 1.84686e-05 1.6273)
(0.000388808 1.50153e-05 1.92659)
(0.000524654 1.09515e-05 2.16644)
(0.000651572 7.04703e-06 2.3521)
(0.000758345 3.63181e-06 2.48776)
(0.000836158 7.13691e-07 2.57649)
(0.000878183 -1.91773e-06 2.62033)
(0.000880357 -4.59289e-06 2.62028)
(0.000841939 -7.66476e-06 2.5763)
(0.000765761 -1.14084e-05 2.48737)
(0.000658108 -1.59123e-05 2.35142)
(0.000528166 -2.09627e-05 2.16537)
(0.000388365 -2.59248e-05 1.92511)
(0.000252896 -2.96254e-05 1.62546)
(0.000134307 -3.02815e-05 1.26025)
(4.72705e-05 -2.54984e-05 0.822344)
(3.08436e-06 -1.22995e-05 0.303814)
(3.82027e-06 5.59027e-06 0.312702)
(5.22959e-05 1.1132e-05 0.847889)
(0.000143725 1.2672e-05 1.30099)
(0.000265302 1.17754e-05 1.67969)
(0.000402129 9.62871e-06 1.99097)
(0.000542629 7.0582e-06 2.24095)
(0.000673838 4.55981e-06 2.43477)
(0.000784192 2.3536e-06 2.57655)
(0.000864605 4.52187e-07 2.66937)
(0.00090805 -1.27386e-06 2.71526)
(0.000910348 -3.03238e-06 2.7152)
(0.000870726 -5.04579e-06 2.66919)
(0.00079208 -7.48506e-06 2.57616)
(0.000680864 -1.03989e-05 2.43407)
(0.000546539 -1.3639e-05 2.23985)
(0.000401926 -1.67858e-05 1.98944)
(0.000261692 -1.90808e-05 1.67779)
(0.000138919 -1.93901e-05 1.29895)
(4.88302e-05 -1.6217e-05 0.846122)
(3.13993e-06 -7.75504e-06 0.311833)
(3.852e-06 1.89614e-06 0.316657)
(5.3066e-05 3.79339e-06 0.859608)
(0.000145954 4.3342e-06 1.32007)
(0.000269508 4.04026e-06 1.70549)
(0.000408577 3.3128e-06 2.02271)
(0.000551353 2.43413e-06 2.27772)
(0.000684664 1.57529e-06 2.4756)
(0.000796774 8.13405e-07 2.62044)
(0.00087846 1.5405e-07 2.7153)
(0.000922599 -4.46411e-07 2.76221)
(0.000924954 -1.0588e-06 2.76215)
(0.000884738 -1.75898e-06 2.71511)
(0.000804878 -2.60485e-06 2.62004)
(0.000691912 -3.61181e-06 2.47489)
(0.000555438 -4.727e-06 2.2766)
(0.00040847 -5.80395e-06 2.02115)
(0.000265915 -6.58052e-06 1.70356)
(0.000141116 -6.66809e-06 1.31799)
(4.95618e-05 -5.55844e-06 0.857809)
(3.16193e-06 -2.64688e-06 0.315772)
(3.852e-06 -1.89629e-06 0.316657)
(5.3066e-05 -3.79387e-06 0.859608)
(0.000145954 -4.33501e-06 1.32007)
(0.000269508 -4.04137e-06 1.70549)
(0.000408577 -3.31415e-06 2.02271)
(0.000551353 -2.43561e-06 2.27772)
(0.000684664 -1.57679e-06 2.4756)
(0.000796774 -8.14818e-07 2.62044)
(0.00087846 -1.5528e-07 2.7153)
(0.000922599 4.45429e-07 2.76221)
(0.000924955 1.0581e-06 2.76215)
(0.000884739 1.75857e-06 2.71511)
(0.000804879 2.60471e-06 2.62004)
(0.000691912 3.61189e-06 2.47489)
(0.000555438 4.72721e-06 2.2766)
(0.000408471 5.80421e-06 2.02115)
(0.000265916 6.58075e-06 1.70356)
(0.000141116 6.66822e-06 1.31799)
(4.95618e-05 5.55848e-06 0.857809)
(3.16193e-06 2.64685e-06 0.315772)
(3.82026e-06 -5.59042e-06 0.312702)
(5.22959e-05 -1.11325e-05 0.847889)
(0.000143725 -1.26729e-05 1.30099)
(0.000265302 -1.17766e-05 1.67969)
(0.00040213 -9.63005e-06 1.99097)
(0.000542629 -7.05966e-06 2.24095)
(0.000673839 -4.56127e-06 2.43477)
(0.000784193 -2.35497e-06 2.57655)
(0.000864606 -4.53366e-07 2.66937)
(0.000908051 1.27294e-06 2.71526)
(0.000910349 3.03173e-06 2.7152)
(0.000870727 5.04543e-06 2.66919)
(0.000792081 7.48496e-06 2.57616)
(0.000680865 1.0399e-05 2.43407)
(0.00054654 1.36392e-05 2.23985)
(0.000401926 1.67861e-05 1.98944)
(0.000261692 1.90811e-05 1.67779)
(0.00013892 1.93903e-05 1.29895)
(4.88303e-05 1.62171e-05 0.846122)
(3.13994e-06 7.75503e-06 0.311833)
(3.7465e-06 -8.97714e-06 0.304651)
(5.06703e-05 -1.77069e-05 0.824047)
(0.000139072 -2.00045e-05 1.26222)
(0.000256578 -1.84697e-05 1.6273)
(0.000388808 -1.50166e-05 1.92659)
(0.000524656 -1.09529e-05 2.16644)
(0.000651574 -7.04841e-06 2.3521)
(0.000758346 -3.63308e-06 2.48776)
(0.00083616 -7.14768e-07 2.57649)
(0.000878185 1.9169e-06 2.62033)
(0.000880359 4.59233e-06 2.62028)
(0.000841941 7.66448e-06 2.5763)
(0.000765762 1.14084e-05 2.48737)
(0.00065811 1.59125e-05 2.35142)
(0.000528167 2.09631e-05 2.16537)
(0.000388366 2.59252e-05 1.92511)
(0.000252896 2.96257e-05 1.62546)
(0.000134307 3.02818e-05 1.26025)
(4.72707e-05 2.54986e-05 0.822344)
(3.08438e-06 1.22996e-05 0.303814)
(3.6087e-06 -1.18043e-05 0.29221)
(4.80202e-05 -2.2942e-05 0.787235)
(0.000131624 -2.56142e-05 1.20244)
(0.000242747 -2.34164e-05 1.54667)
(0.00036782 -1.88709e-05 1.82772)
(0.000496448 -1.36557e-05 2.05222)
(0.00061672 -8.73078e-06 2.22557)
(0.000717949 -4.48563e-06 2.352)
(0.000791738 -9.07011e-07 2.4346)
(0.000831557 2.28641e-06 2.47538)
(0.000833527 5.52208e-06 2.47533)
(0.000796954 9.25489e-06 2.43442)
(0.000724575 1.38466e-05 2.35163)
(0.000622421 1.94326e-05 2.22491)
(0.000499255 2.57776e-05 2.05119)
(0.000366922 3.21205e-05 1.8263)
(0.00023888 3.70047e-05 1.54492)
(0.000126869 3.8164e-05 1.20057)
(4.4696e-05 3.24767e-05 0.78562)
(2.97092e-06 1.58775e-05 0.291419)
(3.38109e-06 -1.37551e-05 0.274891)
(4.41111e-05 -2.61919e-05 0.736064)
(0.000120877 -2.87509e-05 1.11956)
(0.000223023 -2.5926e-05 1.43522)
(0.000338114 -2.06426e-05 1.69147)
(0.00045671 -1.47757e-05 1.89525)
(0.000567758 -9.35947e-06 2.05209)
(0.000661297 -4.7811e-06 2.1662)
(0.000729497 -9.93865e-07 2.24064)
(0.000766248 2.33513e-06 2.27735)
(0.000767919 5.69209e-06 2.2773)
(0.000733887 9.59136e-06 2.24046)
(0.000666756 1.44527e-05 2.16583)
(0.000572208 2.04596e-05 2.05144)
(0.000458433 2.7401e-05 1.89427)
(0.000336473 3.44985e-05 1.69012)
(0.000218801 4.01893e-05 1.43357)
(0.000116064 4.19654e-05 1.11781)
(4.08544e-05 3.62538e-05 0.734555)
(2.77134e-06 1.8058e-05 0.274154)
(3.03857e-06 -1.44902e-05 0.251933)
(3.86919e-05 -2.68328e-05 0.66841)
(0.000106291 -2.87771e-05 1.01043)
(0.000196563 -2.54626e-05 1.28917)
(0.000298567 -1.99391e-05 1.51373)
(0.000404052 -1.40658e-05 1.69131)
(0.000503052 -8.79937e-06 1.82743)
(0.000586536 -4.45278e-06 1.92619)
(0.00064742 -9.45175e-07 1.99049)
(0.000680148 2.07357e-06 2.02217)
(0.000681423 5.09724e-06 2.02212)
(0.000650713 8.64424e-06 1.99031)
(0.000590441 1.31504e-05 1.92582)
(0.000505824 1.88334e-05 1.82681)
(0.000404303 2.55407e-05 1.69038)
(0.000295893 3.25991e-05 1.51247)
(0.000191815 3.8555e-05 1.28764)
(0.000101352 4.09487e-05 1.00881)
(3.54946e-05 3.61126e-05 0.667022)
(2.45987e-06 1.84505e-05 0.251258)
(2.49211e-06 -1.36469e-05 0.222147)
(3.15439e-05 -2.43134e-05 0.581067)
(8.74653e-05 -2.52931e-05 0.870531)
(0.000162766 -2.18408e-05 1.10329)
(0.000248325 -1.67013e-05 1.28902)
(0.000337339 -1.15361e-05 1.43491)
(0.000421194 -7.09509e-06 1.54623)
(0.000492016 -3.53533e-06 1.62674)
(0.00054367 -7.5125e-07 1.67905)
(0.00057133 1.57412e-06 1.70479)
(0.000572134 3.88049e-06 1.70474)
(0.000545658 6.62654e-06 1.67887)
(0.000494078 1.02095e-05 1.62639)
(0.000421987 1.4847e-05 1.54564)
(0.00033587 2.04644e-05 1.43405)
(0.000244465 2.66182e-05 1.28786)
(0.00015744 3.21535e-05 1.1019)
(8.24173e-05 3.49118e-05 0.869067)
(2.8439e-05 3.16344e-05 0.579817)
(1.95131e-06 1.67372e-05 0.221539)
(1.69129e-06 -1.08129e-05 0.183543)
(2.25976e-05 -1.84079e-05 0.469054)
(6.4337e-05 -1.82338e-05 0.693269)
(0.000121586 -1.53421e-05 0.870422)
(0.000187251 -1.1388e-05 1.01019)
(0.000256161 -7.62065e-06 1.11916)
(0.000321448 -4.57857e-06 1.20192)
(0.000376713 -2.22801e-06 1.26158)
(0.000417012 -4.57405e-07 1.30027)
(0.000438464 9.58127e-07 1.31928)
(0.000438781 2.34033e-06 1.31923)
(0.00041766 4.02567e-06 1.3001)
(0.000376918 6.31193e-06 1.26125)
(0.00032031 9.36545e-06 1.20138)
(0.000253112 1.31873e-05 1.1184)
(0.000182431 1.76271e-05 1.00917)
(0.000115952 2.18748e-05 0.869219)
(5.94246e-05 2.43422e-05 0.692008)
(1.97333e-05 2.3013e-05 0.467975)
(1.20871e-06 1.26868e-05 0.183013)
(9.10161e-07 -6.43252e-06 0.132344)
(1.24136e-05 -9.99901e-06 0.324214)
(3.78774e-05 -9.3175e-06 0.468999)
(7.39905e-05 -7.52409e-06 0.580921)
(0.00011638 -5.33894e-06 0.668151)
(0.000161354 -3.40525e-06 0.735687)
(0.000204256 -1.97089e-06 0.78675)
(0.000240692 -9.13595e-07 0.82347)
(0.00026724 -1.62736e-07 0.84724)
(0.000281249 3.91676e-07 0.858904)
(0.000281174 9.1802e-07 0.858858)
(0.000266844 1.58927e-06 0.847094)
(0.000239543 2.56576e-06 0.823201)
(0.000201894 3.93584e-06 0.78633)
(0.000157593 5.72601e-06 0.735093)
(0.000111538 7.97829e-06 0.66738)
(6.89279e-05 1.03173e-05 0.580011)
(3.3773e-05 1.19328e-05 0.468043)
(1.01575e-05 1.19146e-05 0.323386)
(5.44783e-07 7.12291e-06 0.131924)
(-3.45998e-07 -1.39773e-06 0.0598058)
(2.69141e-06 -2.08217e-06 0.132333)
(1.08591e-05 -1.13544e-06 0.183502)
(2.36458e-05 -9.92555e-07 0.222061)
(3.90184e-05 -6.67677e-07 0.251793)
(5.5736e-05 -3.00521e-07 0.274693)
(7.18481e-05 -1.58262e-07 0.29196)
(8.55538e-05 -6.40589e-08 0.304355)
(9.55264e-05 6.60936e-09 0.31237)
(0.000100721 3.80388e-08 0.316297)
(0.000100529 5.68246e-08 0.316274)
(9.49013e-05 9.91239e-08 0.312298)
(8.43756e-05 1.91578e-07 0.304226)
(7.00199e-05 3.17781e-07 0.291762)
(5.32958e-05 5.00207e-07 0.274418)
(3.62216e-05 9.08102e-07 0.251439)
(2.0958e-05 1.2573e-06 0.221644)
(8.8357e-06 1.39739e-06 0.183059)
(1.66968e-06 2.25936e-06 0.131935)
(-4.92508e-07 1.43868e-06 0.059582)
(-1.51856e-06 3.0695e-06 0.0597991)
(8.58624e-07 4.47016e-06 0.132317)
(1.25677e-05 3.37578e-06 0.183479)
(3.39944e-05 2.83695e-06 0.222034)
(6.2317e-05 2.07683e-06 0.251764)
(9.44824e-05 1.31447e-06 0.274665)
(0.000126329 8.40536e-07 0.291935)
(0.000153837 4.73208e-07 0.304336)
(0.000173747 1.70965e-07 0.312358)
(0.000183587 -7.20117e-08 0.316294)
(0.000182004 -3.0514e-07 0.316281)
(0.000168995 -5.87082e-07 0.312313)
(0.000145992 -9.65067e-07 0.304249)
(0.000115744 -1.43835e-06 0.29179)
(8.20206e-05 -2.03402e-06 0.27445)
(4.94604e-05 -2.90313e-06 0.251471)
(2.26851e-05 -3.70048e-06 0.221673)
(4.68643e-06 -4.1457e-06 0.183082)
(-2.80611e-06 -4.88471e-06 0.13195)
(-1.92993e-06 -3.01773e-06 0.059588)
(-1.66696e-07 1.55627e-05 0.132329)
(1.60606e-05 2.64038e-05 0.324174)
(5.90205e-05 2.6845e-05 0.46894)
(0.000125644 2.33673e-05 0.58085)
(0.00020873 1.83615e-05 0.668074)
(0.000299822 1.3325e-05 0.735612)
(0.000388589 8.88535e-06 0.786684)
(0.000464923 5.02918e-06 0.823418)
(0.000520374 1.65003e-06 0.847208)
(0.000548535 -1.47015e-06 0.858895)
(0.000545831 -4.63574e-06 0.858874)
(0.000512098 -8.15146e-06 0.847133)
(0.000450791 -1.22737e-05 0.823261)
(0.000368747 -1.71108e-05 0.786405)
(0.000275491 -2.25746e-05 0.735176)
(0.000182598 -2.83692e-05 0.667464)
(0.000101662 -3.34266e-05 0.580087)
(4.13894e-05 -3.57135e-05 0.468104)
(7.1477e-06 -3.23566e-05 0.323426)
(-1.43222e-06 -1.72865e-05 0.131938)
(1.24659e-06 2.83125e-05 0.183521)
(3.57055e-05 5.1404e-05 0.468995)
(0.000112263 5.48799e-05 0.693182)
(0.000224018 4.95302e-05 0.870316)
(0.000358658 4.02197e-05 1.01007)
(0.000503607 3.00109e-05 1.11905)
(0.000643433 2.0354e-05 1.20182)
(0.000763168 1.15631e-05 1.2615)
(0.000850316 3.54383e-06 1.30022)
(0.000895312 -4.08999e-06 1.31927)
(0.000892729 -1.18944e-05 1.31925)
(0.00084215 -2.04297e-05 1.30015)
(0.000748487 -3.01256e-05 1.26134)
(0.000621646 -4.1091e-05 1.2015)
(0.000475498 -5.29532e-05 1.11852)
(0.000327107 -6.47016e-05 1.0093)
(0.000193913 -7.39561e-05 0.869332)
(8.92956e-05 -7.65903e-05 0.692098)
(2.36206e-05 -6.68199e-05 0.468032)
(-5.28212e-07 -3.39988e-05 0.183033)
(2.8211e-06 3.78628e-05 0.222121)
(5.52004e-05 7.14142e-05 0.580996)
(0.00016388 7.89462e-05 0.870422)
(0.000317607 7.29482e-05 1.10315)
(0.000499495 6.05344e-05 1.28887)
(0.000692869 4.60038e-05 1.43477)
(0.00087801 3.15367e-05 1.5461)
(0.00103606 1.79146e-05 1.62664)
(0.00115121 5.15428e-06 1.67899)
(0.00121134 -7.22217e-06 1.70478)
(0.00120948 -1.99352e-05 1.70477)
(0.00114495 -3.37067e-05 1.67894)
(0.0010237 -4.90445e-05 1.6265)
(0.000858006 -6.59707e-05 1.54578)
(0.000665216 -8.37218e-05 1.4342)
(0.000466788 -0.000100441 1.28802)
(0.000285125 -0.000112564 1.10204)
(0.000138307 -0.000114241 0.869177)
(4.13804e-05 -9.6997e-05 0.579886)
(7.58188e-07 -4.79721e-05 0.221562)
(4.06574e-06 4.23467e-05 0.251905)
(7.23555e-05 8.23141e-05 0.668329)
(0.000209602 9.31825e-05 1.01031)
(0.000400576 8.77717e-05 1.28901)
(0.000624095 7.40543e-05 1.51356)
(0.000859749 5.70105e-05 1.69114)
(0.00108422 3.93842e-05 1.82728)
(0.00127541 2.23382e-05 1.92607)
(0.00141478 6.03166e-06 1.99041)
(0.0014881 -1.00017e-05 2.02215)
(0.00148716 -2.65246e-05 2.02215)
(0.00141099 -4.43002e-05 1.99039)
(0.00126635 -6.38092e-05 1.92595)
(0.00106737 -8.49221e-05 1.82697)
(0.000834233 -0.000106522 1.69056)
(0.000592062 -0.000126099 1.51264)
(0.000367448 -0.000139207 1.2878)
(0.000182763 -0.000138984 1.00894)
(5.75298e-05 -0.000115762 0.667099)
(1.81191e-06 -5.58938e-05 0.251282)
(4.98288e-06 4.19272e-05 0.27486)
(8.64552e-05 8.33284e-05 0.735976)
(0.000247683 9.60379e-05 1.11942)
(0.000470079 9.17967e-05 1.43505)
(0.000728727 7.83989e-05 1.69128)
(0.000999991 6.0926e-05 1.89506)
(0.00125752 4.23242e-05 2.05192)
(0.00147651 2.39463e-05 2.16607)
(0.00163616 6.07365e-06 2.24055)
(0.00172056 -1.16792e-05 2.27732)
(0.00172048 -3.00167e-05 2.27733)
(0.00163471 -4.96422e-05 2.24054)
(0.0014706 -7.09426e-05 2.16597)
(0.0012438 -9.36391e-05 2.05162)
(0.000976807 -0.000116398 1.89446)
(0.000697776 -0.000136404 1.69031)
(0.000436845 -0.000148894 1.43374)
(0.000220086 -0.000146788 1.11794)
(7.09326e-05 -0.000120465 0.734635)
(2.58205e-06 -5.71057e-05 0.274179)
(5.65041e-06 3.72093e-05 0.292179)
(9.7382e-05 7.51695e-05 0.787143)
(0.000277616 8.77834e-05 1.2023)
(0.000525117 8.48176e-05 1.54649)
(0.000811954 7.30932e-05 1.82752)
(0.00111183 5.72023e-05 2.05202)
(0.0013959 3.98968e-05 2.22539)
(0.00163719 2.25102e-05 2.35186)
(0.00181309 5.38826e-06 2.43451)
(0.00190636 -1.17475e-05 2.47535)
(0.00190697 -2.94769e-05 2.47536)
(0.0018135 -4.83774e-05 2.43451)
(0.0016338 -6.8719e-05 2.35177)
(0.00138468 -9.01352e-05 2.22509)
(0.00109048 -0.000111268 2.0514)
(0.000781843 -0.000129395 1.8265)
(0.000491775 -0.00014005 1.5451)
(0.000249395 -0.000136769 1.20071)
(8.12883e-05 -0.000111006 0.785702)
(3.1263e-06 -5.1899e-05 0.291444)
(6.10085e-06 2.90436e-05 0.304619)
(0.000105279 5.93601e-05 0.823951)
(0.000299547 6.99666e-05 1.26207)
(0.000565738 6.81272e-05 1.62711)
(0.000873664 5.90915e-05 1.92638)
(0.00119498 4.64769e-05 2.16623)
(0.00149897 3.25044e-05 2.35191)
(0.00175697 1.8292e-05 2.4876)
(0.00194505 4.1689e-06 2.57639)
(0.00204495 -1.00413e-05 2.62029)
(0.00204603 -2.47609e-05 2.62031)
(0.00194676 -4.04082e-05 2.5764)
(0.00175533 -5.71463e-05 2.48752)
(0.00148943 -7.46145e-05 2.35161)
(0.00117482 -9.16465e-05 2.16558)
(0.000843995 -0.000105983 1.92531)
(0.000532157 -0.000114005 1.62564)
(0.000270749 -0.000110575 1.26039)
(8.87026e-05 -8.9039e-05 0.822426)
(3.47538e-06 -4.12147e-05 0.303839)
(6.37326e-06 1.84096e-05 0.312669)
(0.000110376 3.79082e-05 0.847791)
(0.000313856 4.49478e-05 1.30084)
(0.000592398 4.39853e-05 1.6795)
(0.000914316 3.83113e-05 1.99076)
(0.0012499 3.02292e-05 2.24073)
(0.00156713 2.11762e-05 2.43457)
(0.00183626 1.18933e-05 2.5764)
(0.00203243 2.61476e-06 2.66927)
(0.00213672 -6.75314e-06 2.71522)
(0.00213811 -1.64638e-05 2.71523)
(0.00203494 -2.67676e-05 2.66928)
(0.00183566 -3.77458e-05 2.57631)
(0.00155857 -4.91373e-05 2.43426)
(0.00123037 -6.01567e-05 2.24006)
(0.000884791 -6.93151e-05 1.98965)
(0.000558534 -7.42633e-05 1.67798)
(0.000284588 -7.17089e-05 1.29909)
(9.34368e-05 -5.74482e-05 0.846204)
(3.67435e-06 -2.64202e-05 0.311857)
(6.50117e-06 6.30001e-06 0.316625)
(0.000112871 1.30199e-05 0.85951)
(0.000320905 1.54823e-05 1.31991)
(0.00060558 1.51877e-05 1.7053)
(0.000934467 1.32553e-05 2.02249)
(0.00127716 1.04748e-05 2.2775)
(0.00160101 7.34325e-06 2.4754)
(0.00187569 4.11951e-06 2.62028)
(0.0020759 8.8811e-07 2.7152)
(0.00218238 -2.37984e-06 2.76217)
(0.0021839 -5.76857e-06 2.76218)
(0.00207877 -9.36096e-06 2.71521)
(0.00187557 -1.31811e-05 2.6202)
(0.00159288 -1.71339e-05 2.47508)
(0.00125789 -2.09426e-05 2.27681)
(0.000904957 -2.40882e-05 2.02136)
(0.000571528 -2.57571e-05 1.70375)
(0.000291371 -2.48169e-05 1.31813)
(9.57347e-05 -1.98318e-05 0.85789)
(3.76348e-06 -9.09177e-06 0.315795)
(6.50117e-06 -6.30065e-06 0.316625)
(0.000112871 -1.30217e-05 0.85951)
(0.000320905 -1.54852e-05 1.31991)
(0.00060558 -1.51914e-05 1.7053)
(0.000934467 -1.32594e-05 2.02249)
(0.00127716 -1.0479e-05 2.2775)
(0.00160101 -7.34711e-06 2.4754)
(0.00187569 -4.12269e-06 2.62028)
(0.0020759 -8.90337e-07 2.7152)
(0.00218238 2.37877e-06 2.76217)
(0.0021839 5.76873e-06 2.76218)
(0.00207877 9.36232e-06 2.71521)
(0.00187557 1.31835e-05 2.6202)
(0.00159288 1.71371e-05 2.47508)
(0.00125789 2.09463e-05 2.27681)
(0.000904957 2.40919e-05 2.02136)
(0.000571528 2.57604e-05 1.70375)
(0.000291371 2.48195e-05 1.31813)
(9.57348e-05 1.98334e-05 0.85789)
(3.76349e-06 9.09229e-06 0.315795)
(6.37328e-06 -1.84103e-05 0.312669)
(0.000110377 -3.79101e-05 0.847791)
(0.000313856 -4.49507e-05 1.30084)
(0.000592398 -4.3989e-05 1.6795)
(0.000914318 -3.83154e-05 1.99076)
(0.0012499 -3.02333e-05 2.24073)
(0.00156713 -2.118e-05 2.43457)
(0.00183626 -1.18965e-05 2.5764)
(0.00203244 -2.61696e-06 2.66927)
(0.00213673 6.75208e-06 2.71522)
(0.00213811 1.6464e-05 2.71523)
(0.00203494 2.67689e-05 2.66928)
(0.00183566 3.77481e-05 2.57631)
(0.00155857 4.91405e-05 2.43426)
(0.00123037 6.01604e-05 2.24006)
(0.000884793 6.93188e-05 1.98965)
(0.000558535 7.42666e-05 1.67798)
(0.000284589 7.17115e-05 1.29909)
(9.3437e-05 5.74498e-05 0.846204)
(3.67436e-06 2.64208e-05 0.311857)
(6.10088e-06 -2.90442e-05 0.304619)
(0.000105279 -5.9362e-05 0.823951)
(0.000299547 -6.99695e-05 1.26207)
(0.000565739 -6.81309e-05 1.62711)
(0.000873666 -5.90955e-05 1.92638)
(0.00119499 -4.6481e-05 2.16623)
(0.00149897 -3.25081e-05 2.35192)
(0.00175697 -1.82951e-05 2.4876)
(0.00194505 -4.17104e-06 2.57639)
(0.00204495 1.00403e-05 2.62029)
(0.00204604 2.4761e-05 2.62031)
(0.00194676 4.04095e-05 2.5764)
(0.00175533 5.71486e-05 2.48752)
(0.00148943 7.46176e-05 2.35161)
(0.00117483 9.16501e-05 2.16558)
(0.000843997 0.000105986 1.92531)
(0.000532159 0.000114008 1.62564)
(0.000270749 0.000110578 1.26039)
(8.87029e-05 8.90407e-05 0.822426)
(3.47541e-06 4.12153e-05 0.303839)
(5.65048e-06 -3.721e-05 0.292179)
(9.73825e-05 -7.51714e-05 0.787143)
(0.000277617 -8.77863e-05 1.2023)
(0.000525119 -8.48212e-05 1.54649)
(0.000811957 -7.3097e-05 1.82752)
(0.00111183 -5.72062e-05 2.05202)
(0.00139591 -3.99003e-05 2.22539)
(0.00163719 -2.25131e-05 2.35186)
(0.0018131 -5.39027e-06 2.43451)
(0.00190637 1.17465e-05 2.47535)
(0.00190698 2.9477e-05 2.47536)
(0.00181351 4.83786e-05 2.43451)
(0.0016338 6.87211e-05 2.35177)
(0.00138468 9.01381e-05 2.22509)
(0.00109049 0.000111272 2.0514)
(0.000781846 0.000129398 1.8265)
(0.000491777 0.000140053 1.5451)
(0.000249396 0.000136771 1.20071)
(8.12888e-05 0.000111007 0.785702)
(3.12632e-06 5.18997e-05 0.291444)
(4.98299e-06 -4.1928e-05 0.274861)
(8.64559e-05 -8.33304e-05 0.735976)
(0.000247684 -9.60407e-05 1.11942)
(0.000470082 -9.18e-05 1.43505)
(0.000728731 -7.84024e-05 1.69128)
(0.000999996 -6.09295e-05 1.89506)
(0.00125753 -4.23273e-05 2.05192)
(0.00147652 -2.39489e-05 2.16607)
(0.00163617 -6.07548e-06 2.24055)
(0.00172057 1.16783e-05 2.27732)
(0.00172049 3.00168e-05 2.27733)
(0.00163472 4.96432e-05 2.24054)
(0.00147061 7.09444e-05 2.16597)
(0.00124381 9.36417e-05 2.05162)
(0.000976812 0.000116401 1.89446)
(0.00069778 0.000136407 1.69031)
(0.000436848 0.000148897 1.43374)
(0.000220088 0.000146791 1.11794)
(7.09332e-05 0.000120467 0.734635)
(2.58206e-06 5.71065e-05 0.274179)
(4.06587e-06 -4.23476e-05 0.251905)
(7.23563e-05 -8.2316e-05 0.668329)
(0.000209604 -9.31851e-05 1.01031)
(0.000400578 -8.77745e-05 1.28901)
(0.000624099 -7.40573e-05 1.51356)
(0.000859754 -5.70134e-05 1.69114)
(0.00108423 -3.93869e-05 1.82728)
(0.00127542 -2.23404e-05 1.92607)
(0.00141479 -6.03317e-06 1.99042)
(0.00148811 1.0001e-05 2.02215)
(0.00148717 2.65247e-05 2.02215)
(0.001411 4.4301e-05 1.99039)
(0.00126635 6.38108e-05 1.92595)
(0.00106737 8.49242e-05 1.82697)
(0.000834239 0.000106525 1.69056)
(0.000592066 0.000126102 1.51264)
(0.000367451 0.00013921 1.2878)
(0.000182764 0.000138986 1.00894)
(5.75303e-05 0.000115764 0.667099)
(1.81192e-06 5.58945e-05 0.251282)
(2.82127e-06 -3.78638e-05 0.222121)
(5.52013e-05 -7.14158e-05 0.580996)
(0.000163882 -7.89481e-05 0.870422)
(0.000317609 -7.29502e-05 1.10315)
(0.000499499 -6.05365e-05 1.28887)
(0.000692873 -4.60058e-05 1.43477)
(0.000878016 -3.15385e-05 1.5461)
(0.00103607 -1.7916e-05 1.62664)
(0.00115122 -5.15519e-06 1.67899)
(0.00121134 7.22187e-06 1.70478)
(0.00120949 1.99355e-05 1.70477)
(0.00114496 3.37076e-05 1.67894)
(0.0010237 4.90459e-05 1.6265)
(0.000858012 6.59725e-05 1.54578)
(0.000665221 8.3724e-05 1.4342)
(0.000466792 0.000100444 1.28802)
(0.000285127 0.000112566 1.10204)
(0.000138308 0.000114243 0.869177)
(4.13808e-05 9.69986e-05 0.579886)
(7.58184e-07 4.79729e-05 0.221562)
(1.24697e-06 -2.83137e-05 0.183521)
(3.57067e-05 -5.14052e-05 0.468995)
(0.000112265 -5.48808e-05 0.693182)
(0.00022402 -4.9531e-05 0.870316)
(0.000358661 -4.02204e-05 1.01007)
(0.000503611 -3.00115e-05 1.11905)
(0.000643438 -2.03545e-05 1.20182)
(0.000763174 -1.15634e-05 1.2615)
(0.000850323 -3.54381e-06 1.30022)
(0.000895319 4.09039e-06 1.31927)
(0.000892737 1.18952e-05 1.31925)
(0.000842157 2.04309e-05 1.30015)
(0.000748493 3.0127e-05 1.26134)
(0.000621651 4.10926e-05 1.2015)
(0.000475502 5.2955e-05 1.11852)
(0.00032711 6.47036e-05 1.0093)
(0.000193915 7.39581e-05 0.869332)
(8.92964e-05 7.65922e-05 0.692098)
(2.36208e-05 6.68213e-05 0.468032)
(-5.28273e-07 3.39995e-05 0.183033)
(-1.65463e-07 -1.55648e-05 0.132329)
(1.60623e-05 -2.6405e-05 0.324174)
(5.9022e-05 -2.68457e-05 0.46894)
(0.000125646 -2.33676e-05 0.58085)
(0.000208732 -1.83616e-05 0.668074)
(0.000299825 -1.3325e-05 0.735612)
(0.000388592 -8.88527e-06 0.786684)
(0.000464927 -5.02898e-06 0.823419)
(0.000520379 -1.64968e-06 0.847208)
(0.00054854 1.47065e-06 0.858896)
(0.000545837 4.6364e-06 0.858874)
(0.000512103 8.15226e-06 0.847133)
(0.000450795 1.22746e-05 0.823262)
(0.000368751 1.71118e-05 0.786405)
(0.000275494 2.25756e-05 0.735176)
(0.000182599 2.83702e-05 0.667464)
(0.000101663 3.34277e-05 0.580087)
(4.13897e-05 3.57145e-05 0.468104)
(7.14757e-06 3.23573e-05 0.323426)
(-1.43249e-06 1.72869e-05 0.131938)
(-1.51666e-06 -3.07111e-06 0.0597991)
(8.6119e-07 -4.471e-06 0.132317)
(1.25691e-05 -3.37593e-06 0.183479)
(3.39952e-05 -2.8369e-06 0.222034)
(6.23178e-05 -2.07675e-06 0.251764)
(9.44834e-05 -1.31438e-06 0.274665)
(0.00012633 -8.40436e-07 0.291935)
(0.000153839 -4.73096e-07 0.304336)
(0.000173749 -1.7084e-07 0.312358)
(0.000183589 7.2145e-08 0.316294)
(0.000182006 3.05275e-07 0.316281)
(0.000168997 5.87213e-07 0.312313)
(0.000145993 9.65184e-07 0.304249)
(0.000115745 1.43844e-06 0.29179)
(8.20217e-05 2.03408e-06 0.27445)
(4.9461e-05 2.90316e-06 0.251471)
(2.26854e-05 3.70049e-06 0.221673)
(4.68643e-06 4.14571e-06 0.183082)
(-2.8063e-06 4.8847e-06 0.13195)
(-1.93006e-06 3.01779e-06 0.059588)
(-2.72069e-06 4.98131e-06 0.0597882)
(-2.46618e-07 7.13999e-06 0.13229)
(1.66188e-05 5.83129e-06 0.18344)
(4.90245e-05 4.83108e-06 0.221986)
(9.30894e-05 3.58189e-06 0.251712)
(0.000143685 2.38448e-06 0.274615)
(0.00019418 1.55091e-06 0.291891)
(0.000238092 8.90963e-07 0.304303)
(0.000269996 3.42727e-07 0.312338)
(0.000285789 -1.24414e-07 0.31629)
(0.000283209 -5.86041e-07 0.316294)
(0.000262202 -1.12688e-06 0.312342)
(0.000225076 -1.81858e-06 0.304292)
(0.000176375 -2.68004e-06 0.291843)
(0.000122418 -3.7465e-06 0.274508)
(7.0841e-05 -5.15246e-06 0.251529)
(2.91985e-05 -6.48814e-06 0.221724)
(2.62966e-06 -7.32838e-06 0.183123)
(-6.8435e-06 -7.99805e-06 0.131976)
(-3.49606e-06 -4.95363e-06 0.0595971)
(-1.07812e-06 2.57579e-05 0.132303)
(2.24054e-05 4.43936e-05 0.324105)
(8.76267e-05 4.58088e-05 0.468837)
(0.000191269 4.03289e-05 0.580724)
(0.000322628 3.21739e-05 0.667937)
(0.000467853 2.37513e-05 0.735477)
(0.000610297 1.6078e-05 0.786564)
(0.000733521 9.23976e-06 0.823326)
(0.000823457 3.0753e-06 0.847152)
(0.000869405 -2.76468e-06 0.858882)
(0.000865327 -8.74613e-06 0.858906)
(0.000810786 -1.5332e-05 0.847209)
(0.000711358 -2.28996e-05 0.823375)
(0.000578339 -3.15964e-05 0.786546)
(0.000427665 -4.1224e-05 0.735331)
(0.000278503 -5.1124e-05 0.667618)
(0.000150006 -5.94583e-05 0.580224)
(5.67885e-05 -6.28001e-05 0.468211)
(6.55964e-06 -5.59823e-05 0.323494)
(-3.39053e-06 -2.92904e-05 0.131961)
(1.13906e-06 4.75227e-05 0.183485)
(5.34008e-05 8.71912e-05 0.468895)
(0.000172422 9.42419e-05 0.693029)
(0.000348854 8.59484e-05 0.870126)
(0.000564148 7.06964e-05 1.00986)
(0.000797404 5.34954e-05 1.11885)
(0.0010237 3.67493e-05 1.20163)
(0.00121859 2.11141e-05 1.26136)
(0.00136115 6.48153e-06 1.30014)
(0.00143535 -7.73986e-06 1.31925)
(0.00143195 -2.23913e-05 1.3193)