/*--------------------------------*- C++ -*----------------------------------*\
  =========                 |
  \\      /  F ield         | OpenFOAM: The Open Source CFD Toolbox
   \\    /   O peration     | Website:  https://openfoam.org
    \\  /    A nd           | Version:  6
     \\/     M anipulation  |
\*---------------------------------------------------------------------------*/
FoamFile
{
    version     2.0;
    format      ascii;
    class       volScalarField;
    location    "0.36";
    object      T;
}
// * * * * * * * * * * * * * * * * * * * * * * * * * * * * * * * * * * * * * //

dimensions      [0 0 0 1 0 0 0];

internalField   nonuniform List<scalar> 
7000
(
104.801
104.8
104.797
104.794
104.789
104.784
104.779
104.774
104.771
104.769
104.801
104.8
104.797
104.794
104.789
104.784
104.779
104.774
104.771
104.769
104.801
104.8
104.797
104.794
104.789
104.784
104.779
104.774
104.771
104.769
104.801
104.8
104.797
104.794
104.789
104.784
104.779
104.774
104.771
104.769
104.801
104.8
104.797
104.794
104.789
104.784
104.779
104.774
104.771
104.769
104.801
104.8
104.797
104.794
104.789
104.784
104.779
104.774
104.771
104.769
104.801
104.8
104.797
104.794
104.789
104.784
104.779
104.774
104.771
104.769
104.801
104.8
104.797
104.794
104.789
104.784
104.779
104.774
104.771
104.769
104.801
104.8
104.797
104.794
104.789
104.784
104.779
104.774
104.771
104.769
104.801
104.8
104.797
104.794
104.789
104.784
104.779
104.774
104.771
104.769
94.4747
94.4707
94.4629
94.4517
94.4376
94.4218
94.4056
94.391
94.3797
94.3735
94.4747
94.4707
94.4629
94.4516
94.4376
94.4218
94.4056
94.3909
94.3797
94.3735
94.4747
94.4707
94.4628
94.4516
94.4375
94.4217
94.4056
94.3909
94.3796
94.3735
94.4746
94.4706
94.4628
94.4516
94.4375
94.4217
94.4056
94.3909
94.3796
94.3735
94.4746
94.4706
94.4628
94.4516
94.4375
94.4217
94.4056
94.3909
94.3796
94.3735
94.4746
94.4706
94.4628
94.4516
94.4375
94.4217
94.4056
94.3909
94.3796
94.3735
94.4746
94.4706
94.4628
94.4516
94.4375
94.4217
94.4056
94.3909
94.3796
94.3735
94.4746
94.4706
94.4628
94.4516
94.4375
94.4217
94.4056
94.3909
94.3796
94.3735
94.4747
94.4707
94.4628
94.4516
94.4376
94.4217
94.4056
94.3909
94.3796
94.3735
94.4747
94.4707
94.4629
94.4516
94.4376
94.4218
94.4056
94.3909
94.3797
94.3735
84.3602
84.353
84.3391
84.3189
84.2935
84.2646
84.2347
84.2073
84.186
84.1743
84.3601
84.353
84.339
84.3188
84.2934
84.2645
84.2347
84.2072
84.1859
84.1743
84.3601
84.3529
84.339
84.3188
84.2934
84.2645
84.2346
84.2072
84.1859
84.1742
84.36
84.3529
84.339
84.3188
84.2934
84.2644
84.2346
84.2071
84.1859
84.1742
84.36
84.3529
84.339
84.3188
84.2933
84.2644
84.2346
84.2071
84.1859
84.1742
84.36
84.3529
84.3389
84.3188
84.2933
84.2644
84.2346
84.2071
84.1859
84.1742
84.36
84.3529
84.339
84.3188
84.2933
84.2644
84.2346
84.2071
84.1859
84.1742
84.36
84.3529
84.339
84.3188
84.2934
84.2645
84.2346
84.2072
84.1859
84.1742
84.36
84.3529
84.339
84.3188
84.2934
84.2645
84.2346
84.2072
84.1859
84.1743
84.3601
84.353
84.339
84.3189
84.2934
84.2645
84.2347
84.2072
84.186
84.1743
74.589
74.5782
74.5567
74.5254
74.4855
74.4394
74.3911
74.3458
74.3101
74.2902
74.589
74.5781
74.5567
74.5253
74.4854
74.4394
74.391
74.3457
74.31
74.2902
74.5889
74.578
74.5566
74.5253
74.4854
74.4393
74.391
74.3457
74.31
74.2901
74.5889
74.578
74.5566
74.5252
74.4853
74.4393
74.3909
74.3456
74.3099
74.2901
74.5888
74.578
74.5566
74.5252
74.4853
74.4393
74.3909
74.3456
74.3099
74.2901
74.5888
74.578
74.5565
74.5252
74.4853
74.4393
74.3909
74.3456
74.3099
74.2901
74.5889
74.578
74.5566
74.5252
74.4853
74.4393
74.3909
74.3456
74.3099
74.2901
74.5889
74.578
74.5566
74.5253
74.4854
74.4393
74.3909
74.3457
74.31
74.2901
74.5889
74.578
74.5566
74.5253
74.4854
74.4394
74.391
74.3457
74.31
74.2902
74.5889
74.5781
74.5567
74.5254
74.4855
74.4394
74.3911
74.3458
74.3101
74.2902
65.2796
65.2641
65.2334
65.1879
65.1291
65.0598
64.9853
64.9137
64.8558
64.8229
65.2795
65.264
65.2333
65.1878
65.129
65.0597
64.9852
64.9136
64.8557
64.8229
65.2794
65.2639
65.2332
65.1878
65.1289
65.0596
64.9851
64.9136
64.8557
64.8228
65.2794
65.2639
65.2332
65.1877
65.1289
65.0596
64.9851
64.9135
64.8556
64.8228
65.2794
65.2639
65.2331
65.1877
65.1289
65.0596
64.9851
64.9135
64.8556
64.8228
65.2793
65.2639
65.2331
65.1877
65.1289
65.0596
64.9851
64.9135
64.8556
64.8228
65.2794
65.2639
65.2332
65.1877
65.1289
65.0596
64.9851
64.9135
64.8556
64.8228
65.2794
65.2639
65.2332
65.1877
65.1289
65.0596
64.9851
64.9136
64.8557
64.8228
65.2794
65.264
65.2332
65.1878
65.129
65.0597
64.9852
64.9136
64.8557
64.8229
65.2795
65.264
65.2333
65.1879
65.129
65.0598
64.9853
64.9137
64.8558
64.823
56.5324
56.5114
56.4692
56.406
56.3226
56.2217
56.1099
55.9985
55.9049
55.85
56.5323
56.5113
56.4691
56.4059
56.3225
56.2216
56.1098
55.9984
55.9048
55.8499
56.5322
56.5112
56.4691
56.4058
56.3224
56.2216
56.1097
55.9983
55.9047
55.8499
56.5322
56.5111
56.469
56.4058
56.3223
56.2215
56.1097
55.9983
55.9047
55.8498
56.5322
56.5111
56.469
56.4058
56.3223
56.2215
56.1097
55.9983
55.9047
55.8498
56.5322
56.5111
56.469
56.4058
56.3223
56.2215
56.1097
55.9983
55.9047
55.8498
56.5322
56.5111
56.469
56.4058
56.3223
56.2215
56.1097
55.9983
55.9047
55.8498
56.5322
56.5112
56.469
56.4058
56.3224
56.2216
56.1097
55.9983
55.9048
55.8499
56.5323
56.5112
56.4691
56.4059
56.3224
56.2216
56.1098
55.9984
55.9048
55.85
56.5323
56.5113
56.4692
56.406
56.3225
56.2217
56.1099
55.9985
55.9049
55.85
48.4278
48.4002
48.3446
48.2598
48.1453
48.0025
47.8377
47.6653
47.5123
47.4174
48.4276
48.4001
48.3445
48.2597
48.1452
48.0024
47.8376
47.6652
47.5122
47.4174
48.4276
48.4001
48.3445
48.2597
48.1451
48.0023
47.8375
47.6652
47.5121
47.4173
48.4275
48.4
48.3444
48.2596
48.1451
48.0023
47.8375
47.6651
47.5121
47.4173
48.4275
48.4
48.3444
48.2596
48.145
48.0023
47.8374
47.6651
47.5121
47.4173
48.4275
48.4
48.3444
48.2596
48.145
48.0023
47.8374
47.6651
47.5121
47.4173
48.4275
48.4
48.3444
48.2596
48.1451
48.0023
47.8375
47.6651
47.5121
47.4173
48.4275
48.4
48.3444
48.2597
48.1451
48.0023
47.8375
47.6652
47.5122
47.4173
48.4276
48.4001
48.3445
48.2597
48.1452
48.0024
47.8376
47.6653
47.5122
47.4174
48.4277
48.4002
48.3446
48.2598
48.1453
48.0025
47.8377
47.6654
47.5123
47.4175
41.0237
40.9892
40.9186
40.8091
40.6574
40.4613
40.2235
39.9584
39.703
39.5292
41.0236
40.9891
40.9185
40.809
40.6573
40.4612
40.2234
39.9583
39.7029
39.5291
41.0235
40.989
40.9184
40.809
40.6572
40.4611
40.2233
39.9582
39.7029
39.5291
41.0235
40.9889
40.9184
40.8089
40.6572
40.461
40.2233
39.9582
39.7028
39.529
41.0235
40.9889
40.9184
40.8089
40.6571
40.461
40.2233
39.9582
39.7028
39.529
41.0235
40.9889
40.9184
40.8089
40.6571
40.461
40.2233
39.9582
39.7028
39.529
41.0235
40.9889
40.9184
40.8089
40.6572
40.4611
40.2233
39.9582
39.7028
39.5291
41.0235
40.989
40.9184
40.809
40.6572
40.4611
40.2234
39.9583
39.7029
39.5291
41.0236
40.989
40.9185
40.809
40.6573
40.4612
40.2234
39.9583
39.703
39.5292
41.0237
40.9891
40.9186
40.8091
40.6574
40.4613
40.2235
39.9584
39.7031
39.5293
34.3558
34.3143
34.2286
34.0934
33.9009
33.6423
33.3105
32.9089
32.4739
32.1256
34.3557
34.3142
34.2285
34.0933
33.9008
33.6422
33.3104
32.9088
32.4738
32.1256
34.3557
34.3141
34.2284
34.0932
33.9007
33.6421
33.3103
32.9087
32.4737
32.1255
34.3556
34.3141
34.2284
34.0931
33.9007
33.642
33.3102
32.9087
32.4737
32.1255
34.3556
34.314
34.2284
34.0931
33.9006
33.642
33.3102
32.9087
32.4737
32.1255
34.3556
34.314
34.2284
34.0931
33.9006
33.642
33.3102
32.9087
32.4737
32.1255
34.3556
34.3141
34.2284
34.0931
33.9007
33.642
33.3103
32.9087
32.4737
32.1255
34.3556
34.3141
34.2284
34.0932
33.9007
33.6421
33.3103
32.9088
32.4738
32.1256
34.3557
34.3142
34.2285
34.0933
33.9008
33.6422
33.3104
32.9088
32.4739
32.1256
34.3558
34.3143
34.2286
34.0934
33.9009
33.6423
33.3105
32.9089
32.474
32.1257
28.4375
28.3899
28.291
28.1325
27.9015
27.5797
27.142
26.5593
25.817
25.0279
28.4374
28.3898
28.2909
28.1324
27.9014
27.5796
27.1419
26.5592
25.8169
25.0278
28.4373
28.3897
28.2908
28.1323
27.9014
27.5795
27.1419
26.5591
25.8169
25.0278
28.4373
28.3897
28.2907
28.1322
27.9013
27.5795
27.1418
26.5591
25.8168
25.0277
28.4372
28.3897
28.2907
28.1322
27.9013
27.5795
27.1418
26.5591
25.8168
25.0277
28.4372
28.3897
28.2907
28.1322
27.9013
27.5795
27.1418
26.5591
25.8168
25.0277
28.4373
28.3897
28.2907
28.1323
27.9013
27.5795
27.1418
26.5591
25.8169
25.0278
28.4373
28.3897
28.2908
28.1323
27.9014
27.5796
27.1419
26.5592
25.8169
25.0278
28.4374
28.3898
28.2909
28.1324
27.9015
27.5796
27.142
26.5592
25.817
25.0279
28.4375
28.3899
28.291
28.1325
27.9016
27.5797
27.1421
26.5593
25.8171
25.028
23.2613
23.2096
23.1016
22.927
22.6687
22.2996
21.7754
21.0154
19.8431
17.7689
23.2612
23.2096
23.1015
22.9269
22.6686
22.2995
21.7753
21.0153
19.843
17.7688
23.2612
23.2095
23.1014
22.9268
22.6685
22.2994
21.7752
21.0152
19.843
17.7688
23.2611
23.2094
23.1014
22.9268
22.6685
22.2994
21.7752
21.0152
19.8429
17.7687
23.2611
23.2094
23.1014
22.9267
22.6684
22.2994
21.7752
21.0152
19.8429
17.7687
23.2611
23.2094
23.1014
22.9267
22.6684
22.2994
21.7752
21.0152
19.8429
17.7687
23.2611
23.2094
23.1014
22.9268
22.6685
22.2994
21.7752
21.0152
19.843
17.7688
23.2612
23.2095
23.1015
22.9268
22.6685
22.2995
21.7753
21.0153
19.843
17.7688
23.2612
23.2096
23.1015
22.9269
22.6686
22.2995
21.7754
21.0154
19.8431
17.7689
23.2613
23.2096
23.1016
22.927
22.6687
22.2996
21.7754
21.0154
19.8432
17.769
18.8012
18.7481
18.637
18.4571
18.1904
17.8088
17.2678
16.4949
15.369
13.7041
18.8011
18.748
18.6369
18.457
18.1904
17.8087
17.2677
16.4948
15.3689
13.704
18.8011
18.748
18.6369
18.457
18.1903
17.8087
17.2677
16.4948
15.3689
13.704
18.801
18.7479
18.6368
18.4569
18.1903
17.8086
17.2676
16.4947
15.3688
13.704
18.801
18.7479
18.6368
18.4569
18.1902
17.8086
17.2676
16.4947
15.3688
13.7039
18.801
18.7479
18.6368
18.4569
18.1902
17.8086
17.2676
16.4947
15.3688
13.7039
18.801
18.7479
18.6368
18.4569
18.1903
17.8087
17.2676
16.4947
15.3688
13.704
18.8011
18.748
18.6369
18.457
18.1903
17.8087
17.2677
16.4948
15.3689
13.704
18.8011
18.748
18.6369
18.457
18.1904
17.8088
17.2678
16.4949
15.369
13.7041
18.8012
18.7481
18.637
18.4571
18.1905
17.8089
17.2679
16.495
15.369
13.7042
15.0151
14.9635
14.8558
14.6822
14.4272
14.0676
13.571
12.8943
11.9881
10.8288
15.015
14.9634
14.8557
14.6821
14.4271
14.0675
13.571
12.8942
11.9881
10.8287
15.015
14.9634
14.8556
14.6821
14.427
14.0675
13.5709
12.8941
11.988
10.8287
15.0149
14.9633
14.8556
14.682
14.427
14.0674
13.5709
12.8941
11.988
10.8286
15.0149
14.9633
14.8556
14.682
14.427
14.0674
13.5709
12.8941
11.988
10.8286
15.0149
14.9633
14.8556
14.682
14.427
14.0674
13.5709
12.8941
11.988
10.8286
15.0149
14.9634
14.8556
14.6821
14.427
14.0675
13.5709
12.8941
11.988
10.8286
15.015
14.9634
14.8557
14.6821
14.4271
14.0675
13.5709
12.8942
11.988
10.8287
15.015
14.9635
14.8557
14.6822
14.4271
14.0676
13.571
12.8942
11.9881
10.8287
15.0151
14.9635
14.8558
14.6823
14.4272
14.0676
13.5711
12.8943
11.9882
10.8288
11.8486
11.801
11.7021
11.5443
11.316
11.0015
10.5822
10.0399
9.36731
8.59291
11.8486
11.8009
11.7021
11.5443
11.316
11.0015
10.5822
10.0399
9.36725
8.59285
11.8485
11.8009
11.702
11.5442
11.3159
11.0014
10.5821
10.0398
9.36721
8.5928
11.8485
11.8009
11.702
11.5442
11.3159
11.0014
10.5821
10.0398
9.36718
8.59277
11.8485
11.8009
11.702
11.5442
11.3159
11.0014
10.5821
10.0398
9.36717
8.59276
11.8485
11.8009
11.702
11.5442
11.3159
11.0014
10.5821
10.0398
9.36717
8.59277
11.8485
11.8009
11.702
11.5442
11.3159
11.0014
10.5821
10.0398
9.3672
8.59279
11.8485
11.8009
11.702
11.5443
11.3159
11.0015
10.5822
10.0398
9.36724
8.59283
11.8486
11.801
11.7021
11.5443
11.316
11.0015
10.5822
10.0399
9.36729
8.59288
11.8486
11.801
11.7022
11.5444
11.3161
11.0016
10.5823
10.04
9.36737
8.59295
9.23895
9.19708
9.11072
8.97461
8.7813
8.5221
8.18916
7.77984
7.30506
6.80283
9.23889
9.19702
9.11066
8.97455
8.78124
8.52205
8.18911
7.77978
7.305
6.80278
9.23885
9.19698
9.11062
8.97451
8.7812
8.52201
8.18907
7.77974
7.30496
6.80274
9.23882
9.19695
9.11059
8.97448
8.78117
8.52198
8.18904
7.77972
7.30494
6.80271
9.23881
9.19694
9.11058
8.97447
8.78116
8.52197
8.18903
7.77971
7.30493
6.8027
9.23881
9.19694
9.11058
8.97447
8.78117
8.52198
8.18904
7.77972
7.30493
6.80271
9.23883
9.19696
9.1106
8.97449
8.78119
8.522
8.18906
7.77974
7.30495
6.80273
9.23886
9.19699
9.11064
8.97453
8.78123
8.52204
8.1891
7.77977
7.30499
6.80276
9.23891
9.19704
9.11069
8.97458
8.78128
8.52209
8.18915
7.77982
7.30504
6.80281
9.23896
9.19711
9.11076
8.97465
8.78135
8.52216
8.18922
7.77989
7.3051
6.80287
7.119
7.08375
7.01161
6.8995
6.74352
6.54028
6.28905
5.99535
5.67615
5.36592
7.11895
7.0837
7.01156
6.89945
6.74347
6.54023
6.289
5.9953
5.6761
5.36587
7.11891
7.08366
7.01153
6.89941
6.74344
6.5402
6.28897
5.99527
5.67607
5.36584
7.11889
7.08363
7.0115
6.89939
6.74341
6.54018
6.28895
5.99524
5.67605
5.36582
7.11888
7.08362
7.01149
6.89938
6.74341
6.54017
6.28894
5.99524
5.67604
5.36581
7.11888
7.08363
7.0115
6.89938
6.74341
6.54018
6.28895
5.99524
5.67605
5.36581
7.1189
7.08365
7.01152
6.8994
6.74343
6.54019
6.28896
5.99526
5.67606
5.36583
7.11893
7.08368
7.01155
6.89944
6.74346
6.54023
6.289
5.99529
5.67609
5.36586
7.11897
7.08372
7.01159
6.89948
6.74351
6.54027
6.28904
5.99534
5.67614
5.3659
7.11901
7.08378
7.01165
6.89954
6.74357
6.54033
6.2891
5.9954
5.6762
5.36596
5.42107
5.39254
5.33468
5.24608
5.12554
4.97327
4.79282
4.59373
4.39435
4.22361
5.42103
5.3925
5.33464
5.24604
5.1255
4.97322
4.79278
4.59369
4.39431
4.22357
5.421
5.39247
5.33461
5.24601
5.12547
4.9732
4.79275
4.59366
4.39428
4.22354
5.42098
5.39245
5.33459
5.24599
5.12545
4.97318
4.79274
4.59364
4.39426
4.22352
5.42097
5.39244
5.33458
5.24598
5.12544
4.97317
4.79273
4.59364
4.39425
4.22351
5.42097
5.39245
5.33458
5.24599
5.12545
4.97318
4.79273
4.59364
4.39426
4.22352
5.42099
5.39246
5.3346
5.246
5.12546
4.97319
4.79275
4.59366
4.39428
4.22354
5.42101
5.39249
5.33463
5.24603
5.12549
4.97322
4.79278
4.59369
4.3943
4.22356
5.42105
5.39252
5.33466
5.24607
5.12553
4.97326
4.79282
4.59373
4.39434
4.2236
5.42109
5.39257
5.33472
5.24612
5.12558
4.97331
4.79287
4.59378
4.39439
4.22365
4.07988
4.05762
4.01287
3.94547
3.85596
3.74684
3.62415
3.49961
3.39261
3.32996
4.07985
4.05758
4.01284
3.94543
3.85593
3.74681
3.62412
3.49958
3.39257
3.32992
4.07982
4.05755
4.01281
3.94541
3.85591
3.74679
3.62409
3.49955
3.39255
3.3299
4.0798
4.05754
4.0128
3.94539
3.85589
3.74677
3.62408
3.49954
3.39253
3.32988
4.0798
4.05753
4.01279
3.94539
3.85589
3.74677
3.62408
3.49954
3.39253
3.32988
4.0798
4.05754
4.01279
3.94539
3.85589
3.74677
3.62408
3.49954
3.39253
3.32988
4.07981
4.05755
4.01281
3.9454
3.8559
3.74679
3.62409
3.49955
3.39254
3.32989
4.07983
4.05757
4.01283
3.94543
3.85593
3.74681
3.62412
3.49958
3.39257
3.32992
4.07986
4.0576
4.01286
3.94546
3.85596
3.74684
3.62415
3.49961
3.3926
3.32995
4.0799
4.05764
4.01291
3.9455
3.85601
3.74689
3.6242
3.49965
3.39265
3.33
3.03479
3.01797
2.98451
2.93495
2.87089
2.79598
2.71748
2.64851
2.6112
2.63956
3.03476
3.01794
2.98448
2.93492
2.87086
2.79595
2.71745
2.64848
2.61118
2.63953
3.03474
3.01792
2.98446
2.9349
2.87084
2.79593
2.71743
2.64846
2.61115
2.63951
3.03472
3.01791
2.98445
2.93489
2.87083
2.79592
2.71742
2.64845
2.61114
2.6395
3.03472
3.0179
2.98444
2.93489
2.87083
2.79592
2.71741
2.64844
2.61114
2.63949
3.03472
3.01791
2.98444
2.93489
2.87083
2.79592
2.71742
2.64845
2.61114
2.6395
3.03473
3.01792
2.98446
2.9349
2.87084
2.79593
2.71743
2.64846
2.61115
2.63951
3.03475
3.01793
2.98447
2.93492
2.87086
2.79595
2.71745
2.64848
2.61117
2.63953
3.03477
3.01796
2.9845
2.93495
2.87089
2.79598
2.71748
2.64851
2.6112
2.63956
3.0348
3.018
2.98454
2.93499
2.87093
2.79602
2.71751
2.64855
2.61124
2.6396
2.23123
2.2189
2.19459
2.15921
2.11471
2.06494
2.01695
1.98338
1.98812
2.0844
2.23121
2.21888
2.19457
2.15919
2.11469
2.06492
2.01693
1.98336
1.9881
2.08438
2.23119
2.21886
2.19455
2.15917
2.11468
2.0649
2.01691
1.98334
1.98808
2.08436
2.23118
2.21885
2.19454
2.15916
2.11467
2.06489
2.0169
1.98334
1.98807
2.08435
2.23118
2.21885
2.19454
2.15916
2.11466
2.06489
2.0169
1.98333
1.98807
2.08435
2.23118
2.21885
2.19454
2.15916
2.11467
2.0649
2.0169
1.98334
1.98807
2.08435
2.23119
2.21886
2.19455
2.15917
2.11468
2.06491
2.01691
1.98335
1.98808
2.08436
2.23121
2.21887
2.19457
2.15919
2.11469
2.06492
2.01693
1.98336
1.9881
2.08438
2.23123
2.21889
2.19459
2.15921
2.11472
2.06495
2.01695
1.98339
1.98812
2.08441
2.23125
2.21892
2.19462
2.15924
2.11475
2.06498
2.01698
1.98342
1.98815
2.08444
13.0823
10.6413
9.61204
9.70301
10.8631
13.1954
16.9525
22.593
30.9414
43.6142
13.0822
10.6412
9.61196
9.70291
10.863
13.1953
16.9523
22.5929
30.9412
43.6139
13.0822
10.6411
9.61189
9.70284
10.863
13.1952
16.9522
22.5927
30.941
43.6138
13.0821
10.6411
9.61185
9.70279
10.8629
13.1951
16.9522
22.5927
30.9409
43.6137
13.0821
10.6411
9.61183
9.70277
10.8629
13.1951
16.9521
22.5926
30.9409
43.6136
13.0821
10.6411
9.61183
9.70277
10.8629
13.1951
16.9521
22.5926
30.9409
43.6136
13.0821
10.6411
9.61185
9.70279
10.8629
13.1951
16.9521
22.5926
30.9409
43.6136
13.0822
10.6411
9.61189
9.70282
10.8629
13.1952
16.9522
22.5927
30.941
43.6137
13.0822
10.6412
9.61194
9.70288
10.863
13.1952
16.9523
22.5928
30.9411
43.6139
13.0823
10.6412
9.612
9.70294
10.8631
13.1953
16.9524
22.5929
30.9412
43.614
11.3916
9.7824
9.06623
9.25361
10.3819
12.5604
15.9877
20.966
27.898
37.1546
11.3915
9.78232
9.06615
9.25352
10.3818
12.5603
15.9875
20.9658
27.8978
37.1544
11.3914
9.78227
9.06608
9.25345
10.3817
12.5602
15.9874
20.9657
27.8977
37.1542
11.3914
9.78223
9.06604
9.25341
10.3817
12.5602
15.9874
20.9656
27.8976
37.1541
11.3914
9.78221
9.06602
9.25338
10.3816
12.5601
15.9873
20.9656
27.8976
37.1541
11.3914
9.78222
9.06603
9.25338
10.3816
12.5601
15.9873
20.9656
27.8975
37.1541
11.3914
9.78224
9.06604
9.2534
10.3817
12.5601
15.9873
20.9656
27.8976
37.1541
11.3915
9.78227
9.06608
9.25344
10.3817
12.5602
15.9874
20.9657
27.8977
37.1542
11.3915
9.78233
9.06614
9.2535
10.3818
12.5603
15.9875
20.9658
27.8978
37.1543
11.3916
9.7824
9.06621
9.25358
10.3819
12.5604
15.9876
20.9659
27.8979
37.1545
9.52893
8.56625
8.17601
8.46775
9.52416
11.4456
14.3633
18.4282
23.7542
30.2545
9.52886
8.56618
8.17593
8.46766
9.52407
11.4454
14.3631
18.428
23.7541
30.2543
9.52881
8.56612
8.17588
8.4676
9.52399
11.4454
14.363
18.4279
23.7539
30.2542
9.52877
8.56609
8.17584
8.46756
9.52394
11.4453
14.363
18.4279
23.7539
30.2541
9.52876
8.56607
8.17582
8.46754
9.52392
11.4453
14.3629
18.4278
23.7538
30.2541
9.52876
8.56607
8.17582
8.46754
9.52392
11.4453
14.3629
18.4278
23.7538
30.2541
9.52879
8.56609
8.17584
8.46755
9.52394
11.4453
14.363
18.4278
23.7538
30.2541
9.52882
8.56613
8.17588
8.46759
9.52398
11.4453
14.363
18.4279
23.7539
30.2542
9.52888
8.56619
8.17594
8.46765
9.52405
11.4454
14.3631
18.428
23.754
30.2543
9.52896
8.56626
8.17601
8.46774
9.52414
11.4455
14.3632
18.4281
23.7542
30.2545
7.82575
7.28364
7.13517
7.49301
8.44293
10.0644
12.4337
15.6067
19.5704
24.1522
7.82568
7.28357
7.1351
7.49293
8.44284
10.0643
12.4336
15.6066
19.5703
24.152
7.82564
7.28352
7.13505
7.49287
8.44278
10.0642
12.4335
15.6065
19.5702
24.1519
7.82561
7.28349
7.13501
7.49283
8.44273
10.0641
12.4334
15.6064
19.5701
24.1518
7.82559
7.28348
7.135
7.49281
8.44271
10.0641
12.4334
15.6064
19.57
24.1518
7.8256
7.28348
7.135
7.49281
8.44271
10.0641
12.4334
15.6064
19.57
24.1518
7.82562
7.2835
7.13502
7.49283
8.44273
10.0641
12.4334
15.6064
19.5701
24.1518
7.82566
7.28353
7.13506
7.49287
8.44277
10.0642
12.4335
15.6065
19.5702
24.1519
7.82571
7.28359
7.13511
7.49293
8.44284
10.0642
12.4336
15.6066
19.5703
24.152
7.82578
7.28366
7.13519
7.49301
8.44292
10.0643
12.4337
15.6067
19.5704
24.1522
6.35318
6.07586
6.08296
6.46379
7.2887
8.61386
10.4785
12.8903
15.797
19.048
6.35312
6.0758
6.08289
6.46372
7.28862
8.61376
10.4784
12.8902
15.7969
19.0479
6.35308
6.07575
6.08284
6.46367
7.28856
8.6137
10.4783
12.8901
15.7968
19.0477
6.35305
6.07572
6.08281
6.46363
7.28852
8.61365
10.4783
12.8901
15.7967
19.0477
6.35304
6.07571
6.0828
6.46362
7.2885
8.61363
10.4782
12.8901
15.7967
19.0476
6.35305
6.07571
6.0828
6.46362
7.2885
8.61363
10.4782
12.8901
15.7967
19.0476
6.35306
6.07573
6.08282
6.46364
7.28852
8.61365
10.4783
12.8901
15.7967
19.0477
6.3531
6.07577
6.08285
6.46367
7.28856
8.6137
10.4783
12.8901
15.7968
19.0478
6.35315
6.07582
6.0829
6.46373
7.28862
8.61377
10.4784
12.8902
15.7969
19.0479
6.35321
6.07588
6.08297
6.4638
7.2887
8.61386
10.4785
12.8903
15.797
19.048
5.12018
5.01075
5.11082
5.48468
6.18377
7.24447
8.6831
10.4862
12.597
14.9041
5.12013
5.01069
5.11076
5.48461
6.1837
7.24439
8.683
10.4861
12.5969
14.904
5.12009
5.01066
5.11072
5.48456
6.18364
7.24433
8.68294
10.486
12.5968
14.9039
5.12007
5.01063
5.11069
5.48453
6.18361
7.24429
8.68289
10.486
12.5968
14.9038
5.12006
5.01062
5.11068
5.48452
6.18359
7.24427
8.68287
10.486
12.5968
14.9038
5.12007
5.01062
5.11068
5.48452
6.18359
7.24427
8.68287
10.486
12.5968
14.9038
5.12008
5.01064
5.1107
5.48454
6.18361
7.24429
8.6829
10.486
12.5968
14.9038
5.12011
5.01067
5.11073
5.48457
6.18365
7.24434
8.68294
10.486
12.5969
14.9039
5.12016
5.01072
5.11078
5.48462
6.18371
7.2444
8.68302
10.4861
12.5969
14.904
5.12022
5.01078
5.11084
5.48469
6.18378
7.24448
8.68311
10.4862
12.5971
14.9041
4.11913
4.12142
4.27684
4.63002
5.21681
6.05893
7.15883
8.49378
10.0112
11.63
4.11908
4.12137
4.27678
4.62996
5.21674
6.05886
7.15875
8.49368
10.0111
11.6299
4.11905
4.12133
4.27675
4.62992
5.21669
6.0588
7.15869
8.49361
10.011
11.6298
4.11903
4.12131
4.27672
4.62989
5.21666
6.05877
7.15865
8.49357
10.0109
11.6298
4.11902
4.1213
4.27671
4.62988
5.21665
6.05875
7.15863
8.49355
10.0109
11.6298
4.11902
4.12131
4.27671
4.62988
5.21665
6.05875
7.15863
8.49355
10.0109
11.6298
4.11904
4.12132
4.27673
4.6299
5.21667
6.05878
7.15866
8.49358
10.0109
11.6298
4.11907
4.12135
4.27676
4.62993
5.2167
6.05882
7.1587
8.49363
10.011
11.6299
4.11911
4.12139
4.2768
4.62998
5.21676
6.05887
7.15877
8.49371
10.0111
11.63
4.11916
4.12145
4.27686
4.63004
5.21682
6.05895
7.15885
8.4938
10.0112
11.6301
3.33841
3.42504
3.61788
3.95001
4.4476
5.12292
5.96945
6.95799
8.03591
9.13549
3.33837
3.425
3.61783
3.94996
4.44754
5.12285
5.96938
6.9579
8.03582
9.13539
3.33834
3.42497
3.6178
3.94992
4.44749
5.12281
5.96932
6.95785
8.03575
9.13532
3.33832
3.42495
3.61778
3.9499
4.44747
5.12278
5.96929
6.95781
8.03571
9.13528
3.33831
3.42494
3.61777
3.94989
4.44746
5.12276
5.96927
6.95779
8.0357
9.13526
3.33832
3.42495
3.61777
3.94989
4.44746
5.12277
5.96928
6.9578
8.0357
9.13527
3.33833
3.42496
3.61779
3.94991
4.44748
5.12279
5.9693
6.95782
8.03573
9.1353
3.33836
3.42499
3.61781
3.94994
4.44751
5.12282
5.96934
6.95787
8.03578
9.13535
3.33839
3.42502
3.61785
3.94998
4.44756
5.12288
5.9694
6.95793
8.03585
9.13543
3.33844
3.42507
3.61791
3.95004
4.44762
5.12295
5.96948
6.95802
8.03595
9.13554
2.7701
2.93472
3.15919
3.4779
3.91482
4.47748
5.15307
5.9045
6.66788
7.3583
2.77006
2.93469
3.15915
3.47786
3.91477
4.47742
5.153
5.90443
6.6678
7.35822
2.77004
2.93466
3.15912
3.47782
3.91473
4.47738
5.15296
5.90438
6.66775
7.35816
2.77003
2.93464
3.1591
3.4778
3.91471
4.47736
5.15293
5.90435
6.66772
7.35813
2.77002
2.93464
3.15909
3.47779
3.9147
4.47734
5.15292
5.90433
6.6677
7.35811
2.77002
2.93464
3.15909
3.4778
3.9147
4.47735
5.15292
5.90434
6.66771
7.35812
2.77004
2.93465
3.15911
3.47781
3.91472
4.47737
5.15294
5.90436
6.66773
7.35815
2.77006
2.93468
3.15914
3.47784
3.91475
4.4774
5.15298
5.9044
6.66778
7.3582
2.77009
2.93471
3.15917
3.47788
3.91479
4.47745
5.15304
5.90447
6.66785
7.35827
2.77013
2.93476
3.15922
3.47794
3.91485
4.47752
5.15311
5.90455
6.66793
7.35836
2.42837
2.67097
2.92133
3.23566
3.64241
4.14809
4.7361
5.36132
5.93889
6.31779
2.42834
2.67094
2.92129
3.23562
3.64237
4.14804
4.73605
5.36126
5.93883
6.31772
2.42832
2.67091
2.92127
3.23559
3.64233
4.14801
4.73601
5.36122
5.93878
6.31768
2.42831
2.6709
2.92125
3.23557
3.64231
4.14799
4.73598
5.36119
5.93875
6.31764
2.4283
2.67089
2.92124
3.23556
3.6423
4.14797
4.73597
5.36118
5.93874
6.31763
2.42831
2.6709
2.92125
3.23557
3.64231
4.14798
4.73597
5.36118
5.93875
6.31764
2.42832
2.67091
2.92126
3.23558
3.64232
4.148
4.736
5.36121
5.93877
6.31766
2.42834
2.67093
2.92129
3.23561
3.64235
4.14803
4.73603
5.36125
5.93881
6.31771
2.42837
2.67097
2.92132
3.23565
3.6424
4.14808
4.73608
5.36131
5.93888
6.31778
2.42841
2.67101
2.92137
3.2357
3.64245
4.14814
4.73615
5.36138
5.93896
6.31786
64.2774
73.5441
78.8063
82.2056
84.5309
86.1518
87.2751
88.0278
88.4903
88.7104
64.2771
73.5437
78.8059
82.2052
84.5305
86.1514
87.2747
88.0274
88.4899
88.7101
64.2768
73.5435
78.8057
82.205
84.5303
86.1512
87.2744
88.0272
88.4897
88.7099
64.2767
73.5434
78.8055
82.2048
84.5301
86.151
87.2743
88.027
88.4896
88.7098
64.2766
73.5433
78.8054
82.2047
84.53
86.151
87.2742
88.027
88.4895
88.7097
64.2766
73.5433
78.8054
82.2047
84.53
86.151
87.2742
88.027
88.4895
88.7097
64.2767
73.5434
78.8055
82.2048
84.5301
86.1511
87.2743
88.0271
88.4897
88.7099
64.2768
73.5435
78.8057
82.205
84.5303
86.1513
87.2745
88.0273
88.4899
88.7101
64.277
73.5437
78.8059
82.2052
84.5306
86.1515
87.2748
88.0276
88.4902
88.7104
64.2772
73.544
78.8062
82.2055
84.5309
86.1518
87.2751
88.0279
88.4905
88.7107
48.285
56.1019
61.3205
64.8588
67.3031
69.0045
70.1789
70.9629
71.4433
71.6715
48.2847
56.1017
61.3202
64.8585
67.3027
69.0042
70.1786
70.9626
71.443
71.6712
48.2845
56.1015
61.32
64.8582
67.3025
69.0039
70.1783
70.9624
71.4428
71.6711
48.2844
56.1013
61.3199
64.8581
67.3024
69.0038
70.1782
70.9623
71.4426
71.6709
48.2844
56.1013
61.3198
64.858
67.3023
69.0037
70.1781
70.9622
71.4426
71.6709
48.2844
56.1013
61.3198
64.858
67.3023
69.0037
70.1782
70.9622
71.4426
71.6709
48.2844
56.1013
61.3199
64.8581
67.3024
69.0038
70.1783
70.9623
71.4427
71.671
48.2845
56.1015
61.32
64.8583
67.3026
69.004
70.1784
70.9625
71.4429
71.6712
48.2847
56.1017
61.3202
64.8585
67.3028
69.0043
70.1787
70.9628
71.4432
71.6715
48.2849
56.1019
61.3205
64.8588
67.3031
69.0046
70.179
70.9631
71.4435
71.6719
37.2637
43.0905
47.482
50.6791
52.9758
54.6088
55.749
56.5151
56.986
57.2102
37.2635
43.0903
47.4818
50.6789
52.9756
54.6085
55.7487
56.5148
56.9858
57.21
37.2634
43.0901
47.4816
50.6787
52.9754
54.6083
55.7485
56.5146
56.9856
57.2098
37.2632
43.09
47.4815
50.6785
52.9752
54.6081
55.7484
56.5145
56.9855
57.2097
37.2632
43.0899
47.4814
50.6785
52.9752
54.6081
55.7483
56.5144
56.9854
57.2096
37.2632
43.0899
47.4814
50.6785
52.9752
54.6081
55.7483
56.5144
56.9854
57.2097
37.2632
43.09
47.4815
50.6786
52.9753
54.6082
55.7484
56.5145
56.9855
57.2098
37.2634
43.0901
47.4816
50.6787
52.9754
54.6084
55.7486
56.5147
56.9857
57.21
37.2635
43.0903
47.4818
50.6789
52.9757
54.6086
55.7488
56.515
56.986
57.2102
37.2637
43.0905
47.4821
50.6792
52.9759
54.6089
55.7492
56.5153
56.9863
57.2106
28.9064
33.1494
36.6012
39.2678
41.2651
42.7257
43.7649
44.4717
44.9096
45.1188
28.9062
33.1492
36.601
39.2676
41.2648
42.7255
43.7647
44.4715
44.9093
45.1187
28.9061
33.1491
36.6008
39.2674
41.2647
42.7253
43.7645
44.4713
44.9092
45.1185
28.906
33.149
36.6007
39.2673
41.2646
42.7252
43.7644
44.4712
44.9091
45.1184
28.9059
33.1489
36.6007
39.2672
41.2645
42.7251
43.7643
44.4712
44.909
45.1184
28.9059
33.1489
36.6007
39.2673
41.2645
42.7252
43.7644
44.4712
44.9091
45.1184
28.906
33.149
36.6007
39.2673
41.2646
42.7252
43.7644
44.4713
44.9092
45.1185
28.9061
33.1491
36.6009
39.2675
41.2647
42.7254
43.7646
44.4714
44.9093
45.1187
28.9062
33.1493
36.601
39.2677
41.2649
42.7256
43.7648
44.4717
44.9096
45.1189
28.9064
33.1495
36.6013
39.2679
41.2652
42.7259
43.7651
44.472
44.9099
45.1192
22.3733
25.4437
28.0641
30.1812
31.8262
33.0636
33.9625
34.5829
34.9711
35.1577
22.3731
25.4436
28.0639
30.181
31.826
33.0634
33.9623
34.5827
34.9709
35.1575
22.373
25.4434
28.0637
30.1809
31.8259
33.0633
33.9621
34.5826
34.9708
35.1574
22.3729
25.4433
28.0636
30.1808
31.8258
33.0632
33.962
34.5825
34.9707
35.1573
22.3729
25.4433
28.0636
30.1807
31.8257
33.0631
33.962
34.5825
34.9707
35.1573
22.3729
25.4433
28.0636
30.1807
31.8257
33.0631
33.962
34.5825
34.9707
35.1573
22.3729
25.4434
28.0637
30.1808
31.8258
33.0632
33.9621
34.5826
34.9708
35.1574
22.373
25.4435
28.0638
30.1809
31.8259
33.0634
33.9622
34.5827
34.9709
35.1576
22.3731
25.4436
28.0639
30.1811
31.8261
33.0635
33.9624
34.5829
34.9711
35.1578
22.3733
25.4438
28.0642
30.1813
31.8264
33.0638
33.9627
34.5832
34.9714
35.1581
17.2458
19.4485
21.3889
23.0109
24.3109
25.3146
26.0588
26.5806
26.9105
27.07
17.2457
19.4484
21.3887
23.0107
24.3108
25.3144
26.0586
26.5804
26.9103
27.0699
17.2456
19.4483
21.3886
23.0106
24.3106
25.3143
26.0585
26.5802
26.9102
27.0698
17.2455
19.4482
21.3885
23.0105
24.3106
25.3142
26.0584
26.5802
26.9101
27.0697
17.2455
19.4482
21.3885
23.0105
24.3105
25.3142
26.0584
26.5801
26.9101
27.0697
17.2455
19.4482
21.3885
23.0105
24.3105
25.3142
26.0584
26.5802
26.9101
27.0697
17.2455
19.4482
21.3886
23.0106
24.3106
25.3143
26.0585
26.5803
26.9102
27.0698
17.2456
19.4483
21.3886
23.0107
24.3107
25.3144
26.0586
26.5804
26.9103
27.07
17.2457
19.4484
21.3888
23.0108
24.3109
25.3146
26.0588
26.5806
26.9105
27.0701
17.2459
19.4486
21.389
23.011
24.3111
25.3148
26.059
26.5808
26.9107
27.0704
13.2554
14.803
16.2008
17.4038
18.3952
19.1795
19.7727
20.1951
20.4651
20.5966
13.2553
14.8028
16.2007
17.4037
18.3951
19.1793
19.7726
20.195
20.465
20.5965
13.2552
14.8027
16.2006
17.4036
18.395
19.1792
19.7725
20.1949
20.4649
20.5964
13.2552
14.8027
16.2005
17.4035
18.3949
19.1791
19.7724
20.1948
20.4648
20.5964
13.2551
14.8027
16.2005
17.4035
18.3949
19.1791
19.7724
20.1948
20.4648
20.5963
13.2551
14.8027
16.2005
17.4035
18.3949
19.1791
19.7724
20.1948
20.4649
20.5964
13.2552
14.8027
16.2006
17.4036
18.395
19.1792
19.7725
20.1949
20.4649
20.5964
13.2553
14.8028
16.2007
17.4037
18.3951
19.1793
19.7726
20.195
20.465
20.5966
13.2554
14.8029
16.2008
17.4038
18.3952
19.1794
19.7727
20.1951
20.4652
20.5967
13.2555
14.803
16.2009
17.404
18.3954
19.1796
19.7729
20.1953
20.4654
20.5969
10.2013
11.2349
12.2005
13.06
13.7897
14.3816
14.8385
15.169
15.3826
15.4872
10.2012
11.2348
12.2004
13.0599
13.7896
14.3815
14.8384
15.1688
15.3824
15.4872
10.2012
11.2347