/*--------------------------------*- C++ -*----------------------------------*\
  =========                 |
  \\      /  F ield         | OpenFOAM: The Open Source CFD Toolbox
   \\    /   O peration     | Website:  https://openfoam.org
    \\  /    A nd           | Version:  6
     \\/     M anipulation  |
\*---------------------------------------------------------------------------*/
FoamFile
{
    version     2.0;
    format      ascii;
    class       volScalarField;
    location    "1000";
    object      p;
}
// * * * * * * * * * * * * * * * * * * * * * * * * * * * * * * * * * * * * * //

dimensions      [0 2 -2 0 0 0 0];

internalField   nonuniform List<scalar> 
7000
(
0.038795
0.0365629
0.0360487
0.0358308
0.0357342
0.0357679
0.0359288
0.0362012
0.0367578
0.0390456
0.0365525
0.03432
0.0338082
0.033592
0.0334974
0.0335335
0.033697
0.0339719
0.0345296
0.036822
0.0360302
0.0337999
0.0332888
0.033074
0.0329811
0.0330192
0.0331847
0.0334615
0.0340211
0.0363149
0.0358004
0.0335715
0.0330616
0.0328485
0.0327577
0.032798
0.0329658
0.0332448
0.0338065
0.0361028
0.0356884
0.0334607
0.0329521
0.0327408
0.0326521
0.0326948
0.0328652
0.0331464
0.0337102
0.0360092
0.035704
0.0334776
0.0329702
0.0327604
0.0326738
0.0327188
0.0328913
0.0331747
0.0337402
0.0360414
0.0358458
0.0336205
0.033114
0.0329056
0.0328206
0.0328674
0.0330418
0.0333268
0.0338937
0.0361963
0.0361007
0.033876
0.0333703
0.0331628
0.033079
0.033127
0.0333027
0.0335889
0.0341569
0.0364606
0.0366427
0.0344173
0.0339122
0.0337053
0.0336223
0.0336712
0.0338477
0.0341347
0.0347031
0.0370084
0.0389089
0.0366857
0.0361799
0.0359735
0.0358913
0.035941
0.0361182
0.0364061
0.0369759
0.0392792
0.0358474
0.0344448
0.0344738
0.0342602
0.034163
0.0341986
0.0343644
0.0346368
0.0346473
0.036115
0.034432
0.0330297
0.033063
0.0328505
0.0327553
0.0327934
0.0329621
0.0332379
0.0332478
0.0347197
0.0344541
0.033056
0.0330894
0.0328785
0.0327851
0.0328255
0.0329966
0.0332748
0.0332879
0.0347592
0.0342278
0.0328303
0.0328651
0.0326562
0.0325651
0.0326081
0.032782
0.0330628
0.0330783
0.0345532
0.0341139
0.0327176
0.0327536
0.0325467
0.032458
0.0325037
0.0326805
0.0329639
0.032982
0.0344595
0.0341301
0.032735
0.0327723
0.032567
0.0324805
0.0325287
0.0327079
0.0329937
0.0330139
0.0344932
0.0342749
0.0328809
0.0329192
0.0327154
0.0326307
0.0326807
0.0328618
0.0331494
0.033171
0.0346512
0.0345277
0.0331349
0.0331739
0.032971
0.0328874
0.0329388
0.0331213
0.0334102
0.0334329
0.0349129
0.034525
0.0331295
0.03317
0.0329677
0.032885
0.0329372
0.0331204
0.0334103
0.0334326
0.0349157
0.0359648
0.0345704
0.0346082
0.034407
0.034325
0.0343778
0.0345614
0.0348509
0.0348763
0.0363578
0.0333879
0.0325825
0.032936
0.0327404
0.0327021
0.0327418
0.0328567
0.0331193
0.0328038
0.0336885
0.0325668
0.0317656
0.032126
0.0319309
0.0318956
0.0319388
0.0320576
0.0323262
0.0320095
0.0328964
0.0329142
0.0321196
0.0324793
0.0322863
0.0322533
0.0322993
0.0324214
0.032693
0.0323816
0.0332672
0.0327036
0.0319089
0.0322705
0.0320799
0.0320497
0.0320991
0.0322249
0.0325001
0.032192
0.0330835
0.0326464
0.0318534
0.0322163
0.032028
0.0320007
0.0320534
0.0321829
0.0324617
0.0321571
0.033052
0.0326637
0.031872
0.0322364
0.0320501
0.0320253
0.0320809
0.0322134
0.032495
0.0321931
0.0330903
0.032754
0.0319632
0.0323289
0.0321441
0.0321213
0.0321791
0.0323137
0.0325973
0.0322969
0.0331951
0.0329926
0.0322042
0.0325703
0.0323864
0.0323649
0.0324241
0.03256
0.0328449
0.0325457
0.033442
0.0326643
0.031871
0.0322395
0.0320559
0.0320354
0.0320953
0.0322319
0.0325176
0.0322169
0.0331183
0.0335115
0.0327155
0.033079
0.0328975
0.0328773
0.0329377
0.0330745
0.0333584
0.0330629
0.0339647
0.0321052
0.0315303
0.0319063
0.0316994
0.0317341
0.0317794
0.0318322
0.0321173
0.0317817
0.032453
0.0315121
0.0309449
0.0313291
0.0311226
0.0311626
0.0312134
0.0312719
0.0315672
0.0312328
0.0319092
0.0318824
0.0313231
0.0317059
0.0315027
0.0315458
0.0316008
0.0316646
0.0319647
0.0316389
0.032317
0.0316583
0.0310983
0.0314839
0.0312838
0.0313309
0.0313908
0.0314602
0.0317663
0.0314459
0.0321346
0.0316716
0.0311145
0.0315019
0.0313048
0.0313558
0.0314204
0.0314953
0.031807
0.0314922
0.0321859
0.0316909
0.0311356
0.0315248
0.0313303
0.0313845
0.031453
0.0315321
0.0318479
0.0315369
0.0322337
0.0317147
0.0311598
0.0315506
0.031358
0.0314148
0.031486
0.0315677
0.0318858
0.0315765
0.0322747
0.03197
0.0314187
0.0318096
0.0316181
0.0316765
0.0317493
0.0318323
0.0321514
0.0318435
0.0325373
0.03162
0.0310629
0.0314573
0.0312658
0.0313252
0.0313989
0.0314823
0.0318024
0.0314914
0.0321894
0.0322419
0.0316794
0.032068
0.0318796
0.0319385
0.0320122
0.0320961
0.0324123
0.0321058
0.032805
0.0311957
0.0307308
0.0310519
0.0308312
0.0309159
0.0309676
0.0309829
0.031296
0.0310172
0.0316024
0.0307107
0.0302565
0.0305866
0.030367
0.03046
0.0305206
0.0305453
0.0308753
0.0306052
0.0312032
0.0310275
0.0305816
0.0309101
0.0306953
0.030793
0.0308601
0.0308936
0.031232
0.0309763
0.0315834
0.0307879
0.0303412
0.0306737
0.0304632
0.0305667
0.0306412
0.0306839
0.0310327
0.0307869
0.0314123
0.0308493
0.0304072
0.0307421
0.0305358
0.0306449
0.0307266
0.0307777
0.0311353
0.0308993
0.0315333
0.0308717
0.030432
0.0307693
0.0305665
0.0306803
0.0307674
0.0308246
0.0311882
0.030958
0.0315962
0.0308534
0.0304137
0.0307533
0.0305531
0.0306703
0.030761
0.0308216
0.0311877
0.0309593
0.0315981
0.0311296
0.0306944
0.031034
0.0308354
0.0309545
0.031047
0.0311088
0.0314752
0.0312475
0.0318777
0.0308358
0.0303955
0.0307395
0.0305406
0.030661
0.0307543
0.030816
0.0311828
0.0309497
0.0315813
0.0313539
0.0309056
0.0312441
0.031049
0.0311679
0.0312608
0.0313227
0.0316826
0.0314522
0.0320814
0.0301751
0.0298195
0.0301136
0.0299014
0.0300163
0.030074
0.0300707
0.030389
0.0301397
0.0306384
0.0297989
0.0294577
0.0297617
0.0295523
0.0296796
0.0297512
0.0297644
0.0301106
0.0298828
0.0304171
0.0300911
0.0297587
0.0300615
0.0298589
0.0299931
0.0300749
0.0301023
0.030464
0.0302602
0.0308206
0.0298598
0.0295273
0.0298355
0.0296388
0.0297817
0.029875
0.0299172
0.0302971
0.030112
0.0307061
0.0299514
0.0296252
0.0299367
0.0297461
0.0298972
0.0300011
0.0300563
0.030451
0.0302827
0.0308935
0.0299778
0.0296549
0.0299698
0.029784
0.0299418
0.0300535
0.0301176
0.0305209
0.0303611
0.0309773
0.0299373
0.0296144
0.0299325
0.0297503
0.0299126
0.0300292
0.0300975
0.0305036
0.0303445
0.030957
0.0302122
0.0298948
0.0302129
0.030033
0.0301977
0.0303163
0.0303855
0.0307897
0.0306293
0.0312246
0.0299475
0.0296253
0.0299487
0.0297684
0.0299349
0.0300541
0.0301221
0.0305254
0.0303563
0.0309445
0.0303622
0.0300296
0.030348
0.030172
0.0303358
0.0304537
0.0305208
0.0309132
0.0307408
0.0313192
0.0290625
0.0288072
0.0290861
0.0288952
0.0290282
0.0290891
0.0290744
0.0293844
0.0291427
0.0295639
0.0287878
0.0285512
0.0288413
0.0286561
0.028807
0.0288895
0.0289026
0.0292583
0.0290646
0.0295678
0.0290692
0.0288422
0.029132
0.0289562
0.0291171
0.0292151
0.029251
0.0296337
0.0294821
0.0300467
0.0288616
0.0286358
0.028933
0.0287653
0.0289391
0.0290546
0.029114
0.0295274
0.0294126
0.0300432
0.0289748
0.0287572
0.0290589
0.0289
0.0290857
0.0292169
0.0292965
0.0297335
0.0296484
0.0303135
0.0290062
0.0287931
0.0290995
0.0289474
0.0291425
0.0292849
0.0293772
0.0298262
0.0297538
0.0304247
0.0289543
0.0287416
0.0290524
0.0289051
0.0291063
0.0292551
0.0293525
0.0298031
0.0297281
0.0303825
0.0292144
0.0290079
0.0293189
0.0291749
0.029379
0.0295299
0.0296271
0.030072
0.0299894
0.030608
0.0289663
0.028756
0.0290729
0.0289284
0.0291348
0.0292859
0.0293802
0.0298207
0.0297228
0.0303187
0.029287
0.0290633
0.0293757
0.0292355
0.0294382
0.0295866
0.0296772
0.0301007
0.0299915
0.0305573
0.0279626
0.027779
0.0280313
0.0278589
0.0279973
0.0280551
0.0280296
0.0283237
0.0280931
0.0284219
0.0277634
0.0276027
0.0278676
0.0277051
0.0278682
0.0279583
0.0279779
0.0283467
0.028209
0.0287319
0.028025
0.0278747
0.0281406
0.0279905
0.0281679
0.0282809
0.0283357
0.0287512
0.0286912
0.0293634
0.0278422
0.027695
0.0279706
0.0278318
0.0280277
0.0281666
0.0282581
0.0287269
0.0287394
0.0295587
0.0279697
0.0278331
0.0281149
0.0279883
0.0282012
0.0283631
0.0284854
0.028993
0.0290586
0.0299539
0.0280069
0.0278764
0.0281645
0.0280474
0.0282733
0.0284511
0.0285913
0.029116
0.0291988
0.0300965
0.0279522
0.0278231
0.028117
0.0280063
0.0282406
0.0284266
0.0285726
0.0290956
0.029166
0.0300112
0.0281977
0.0280753
0.02837
0.0282637
0.0285016
0.0286899
0.0288339
0.0293434
0.0293918
0.0301546
0.0279763
0.0278512
0.0281524
0.0280458
0.0282865
0.0284746
0.0286131
0.0291126
0.029134
0.0298364
0.0282299
0.0280896
0.0283873
0.0282848
0.028521
0.0287044
0.0288354
0.0293089
0.0293011
0.0299242
0.0268824
0.0267451
0.0269608
0.0267998
0.0269286
0.0269718
0.0269253
0.0271957
0.0269581
0.0271315
0.0267365
0.0266265
0.0268564
0.0267104
0.0268723
0.0269612
0.0269834
0.0273688
0.0272963
0.0278773
0.0269717
0.0268729
0.0271057
0.0269756
0.0271573
0.0272785
0.0273526
0.0278141
0.0278808
0.0288045
0.0268121
0.0267191
0.0269641
0.0268496
0.0270571
0.027216
0.0273466
0.0278949
0.0281047
0.0293631
0.0269478
0.026868
0.0271215
0.0270236
0.0272549
0.0274473
0.0276243
0.0282334
0.0285399
0.0299629
0.0269915
0.0269199
0.0271818
0.0270969
0.0273463
0.027561
0.0277636
0.0283954
0.0287246
0.0301325
0.0269416
0.0268728
0.0271424
0.0270661
0.027327
0.0275528
0.0277619
0.0283854
0.0286806
0.0299496
0.0271753
0.027114
0.0273852
0.0273149
0.0275806
0.0278089
0.0280131
0.0286115
0.0288567
0.02994
0.0269879
0.0269257
0.0272039
0.0271338
0.0274028
0.0276302
0.027826
0.0284066
0.0286078
0.0295552
0.0271986
0.0271193
0.0273953
0.027329
0.0275926
0.0278131
0.0279959
0.0285389
0.0286847
0.0294608
0.0257907
0.0256848
0.0258622
0.0257065
0.0258103
0.0258214
0.0257276
0.0259313
0.0256877
0.025402
0.0256865
0.025612
0.0258054
0.0256704
0.0258159
0.0258869
0.0258881
0.026253
0.0262746
0.0267989
0.0258968
0.0258344
0.0260327
0.0259173
0.0260885
0.0262022
0.0262749
0.0267561
0.0270262
0.0284165
0.0257608
0.0257075
0.0259209
0.0258259
0.0260318
0.026198
0.0263542
0.026974
0.0275269
0.0297163
0.0259007
0.0258635
0.0260882
0.0260153
0.0262536
0.0264669
0.0266912
0.0274066
0.028133
0.0306725
0.0259512
0.0259247
0.0261604
0.0261049
0.0263679
0.0266128
0.0268742
0.0276213
0.0283718
0.0308456
0.0259103
0.0258889
0.0261344
0.0260907
0.0263695
0.02663
0.0269004
0.02763
0.0283047
0.0304231
0.0261319
0.0261189
0.0263672
0.0263315
0.0266172
0.0268813
0.0271443
0.0278338
0.0284017
0.0300624
0.0259768
0.0259646
0.0262205
0.0261859
0.0264761
0.0267398
0.0269923
0.0276574
0.0281525
0.0295371
0.0261563
0.0261263
0.0263817
0.0263508
0.0266355
0.0268904
0.0271247
0.0277388
0.0281416
0.0291478
0.0246692
0.0245848
0.0247253
0.0245687
0.0246318
0.0245874
0.0244049
0.0244361
0.0240963
0.0235281
0.0245997
0.0245509
0.0247091
0.0245788
0.024691
0.0247173
0.0246466
0.0248646
0.0247726
0.0252595
0.0247891
0.0247534
0.0249184
0.0248113
0.0249549
0.0250332
0.0250534
0.0254258
0.0256473
0.0275306
0.0246774
0.0246546
0.0248377
0.0247567
0.0249452
0.0250938
0.025232
0.0258065
0.0264481
0.0297682
0.0248192
0.0248157
0.0250134
0.0249611
0.0251925
0.0254058
0.0256427
0.0263552
0.0272593
0.0311647
0.0248762
0.0248867
0.0250984
0.0250691
0.0253341
0.0255923
0.0258852
0.0266462
0.027595
0.0312521
0.0248464
0.0248648
0.0250889
0.0250754
0.0253626
0.0256447
0.0259544
0.0266999
0.0275623
0.030582
0.025055
0.0250829
0.0253114
0.0253088
0.0256063
0.0258955
0.0261987
0.0268953
0.0276209
0.0298905
0.0249275
0.0249584
0.0251951
0.025195
0.025499
0.0257896
0.0260837
0.0267553
0.0274226
0.029321
0.0250834
0.0250957
0.0253335
0.025337
0.025636
0.0259169
0.0261883
0.0268045
0.0274048
0.0288475
0.0235235
0.0234541
0.0235599
0.0233988
0.0234106
0.0232913
0.0229911
0.0227668
0.0220989
0.02185
0.0234825
0.0234525
0.023577
0.0234462
0.0235104
0.0234604
0.0232515
0.023151
0.0223438
0.0219218
0.0236529
0.0236369
0.0237697
0.0236642
0.0237629
0.0237669
0.023643
0.0236693
0.0229381
0.0229283
0.0235642
0.0235648
0.0237185
0.0236449
0.023798
0.0238871
0.0239066
0.0241602
0.0237827
0.0250482
0.0237057
0.0237291
0.0239007
0.0238629
0.0240703
0.0242424
0.0243947
0.02482
0.0247283
0.0266883
0.0237682
0.023809
0.0239981
0.0239899
0.0242419
0.0244769
0.0247163
0.0252233
0.0252446
0.0268613
0.0237498
0.0238017
0.0240059
0.024019
0.0243022
0.0245759
0.0248575
0.0253888
0.0254749
0.0266642
0.0239445
0.0240074
0.0242179
0.0242454
0.0245444
0.0248342
0.0251245
0.025637
0.0257393
0.0265639
0.0238408
0.0239085
0.0241277
0.0241594
0.0244681
0.0247645
0.0250559
0.0255715
0.0257379
0.0265179
0.023977
0.024026
0.024248
0.0242833
0.0245884
0.024877
0.0251506
0.0256361
0.0259275
0.0269965
0.0223575
0.0222996
0.0223755
0.0222118
0.0221743
0.0219774
0.0215572
0.0211016
0.0198518
0.0188184
0.0223388
0.0223235
0.022418
0.022286
0.0222985
0.0221587
0.0217769
0.0213362
0.0197395
0.0179116
0.0224906
0.0224896
0.022593
0.0224869
0.0225334
0.0224429
0.0221217
0.0217531
0.0201732
0.0182359
0.0224219
0.0224412
0.0225677
0.0224986
0.0226075
0.0226115
0.0224473
0.0223181
0.0209963
0.0199591
0.0225604
0.022606
0.0227536
0.0227272
0.0229021
0.0230059
0.0230083
0.0231001
0.0220197
0.0215297
0.0226267
0.0226933
0.0228616
0.0228723
0.0231048
0.0232931
0.0234285
0.0236717
0.0228154
0.0222358
0.0226187
0.0226998
0.0228861
0.0229243
0.0231996
0.0234478
0.023672
0.024011
0.0234246
0.0229588
0.0227999
0.0228931
0.0230877
0.0231442
0.0234424
0.0237198
0.0239781
0.0243385
0.0239064
0.0234317
0.0227162
0.0228164
0.0230199
0.0230824
0.0233933
0.0236829
0.0239511
0.0243191
0.0239439
0.0234437
0.022837
0.022918
0.0231253
0.0231908
0.0234986
0.0237818
0.0240392
0.0243841
0.0241746
0.0242805
0.0211762
0.0211318
0.0211883
0.0210353
0.0209738
0.0207373
0.0202507
0.0197162
0.0181855
0.0164939
0.021174
0.0211744
0.0212482
0.0211265
0.0211087
0.0209176
0.020428
0.0198079
0.0178612
0.0150746
0.0213067
0.021321
0.0214033
0.0213065
0.0213205
0.0211767
0.0207418
0.0201556
0.0182796
0.0152265
0.0212542
0.0212919
0.0213985
0.0213427
0.0214262
0.0213863
0.0211211
0.0208057
0.0192196
0.0167712
0.0213866
0.0214533
0.0215833
0.0215765
0.0217377
0.0218136
0.0217452
0.0217427
0.0205073
0.0185597
0.0214538
0.0215446
0.0216979
0.0217353
0.0219684
0.0221522
0.0222709
0.022542
0.0217414
0.0202227
0.0214539
0.0215622
0.0217356
0.0218065
0.0220947
0.0223609
0.0226229
0.0230881
0.0227287
0.0219912
0.0216202
0.0217416
0.0219245
0.0220164
0.022333
0.0226382
0.0229581
0.0234762
0.0233884
0.0233247
0.0215529
0.0216823
0.0218734
0.0219714
0.0222999
0.0226141
0.0229289
0.0233895
0.0231865
0.0226564
0.0216588
0.0217684
0.0219634
0.0220614
0.0223824
0.0226792
0.0229587
0.0233294
0.0230398
0.0226911
0.0199778
0.0199527
0.0200042
0.0198839
0.0198419
0.0196429
0.0191969
0.0187695
0.0173065
0.0149343
0.0199861
0.0200067
0.0200727
0.0199818
0.0199747
0.0198102
0.0193453
0.0187418
0.0167669
0.0131333
0.0200988
0.0201317
0.0202047
0.0201366
0.0201585
0.0200417
0.0196517
0.0190679
0.0171967
0.0133729
0.0200578
0.0201162
0.0202135
0.0201893
0.0202874
0.0202877
0.0200927
0.0198445
0.0184896
0.0153279
0.0201805
0.0202694
0.020391
0.02042
0.0206069
0.0207429
0.0207796
0.0209867
0.020425
0.0183403
0.0202448
0.0203599
0.020506
0.0205845
0.0208569
0.0211257
0.0214032
0.0220511
0.0223331
0.0218209
0.0202494
0.0203841
0.020551
0.0206669
0.0210041
0.0213723
0.0218327
0.0227589
0.0235324
0.0240422
0.0203996
0.0205474
0.0207238
0.0208609
0.0212271
0.0216342
0.0221555
0.0231154
0.0240823
0.0252948
0.0203444
0.0205007
0.0206835
0.0208243
0.0211956
0.0215949
0.0220667
0.0228513
0.02335
0.0232278
0.0204363
0.0205709
0.020756
0.0208901
0.021242
0.021596
0.0219705
0.0225375
0.0225744
0.0220836
0.018762
0.0187634
0.0188251
0.0187631
0.018791
0.0187198
0.0184443
0.0183064
0.0173077
0.0142162
0.0187749
0.0188212
0.018893
0.0188562
0.0189065
0.0188497
0.0185514
0.0181804
0.0165079
0.0120485
0.0188663
0.018922
0.0189978
0.0189803
0.0190542
0.0190384
0.0188456
0.0185111
0.0168736
0.0124465
0.018832
0.0189136
0.0190119
0.0190387
0.0191925
0.0193068
0.0193419
0.0194005
0.018593
0.0154663
0.0189408
0.0190526
0.0191737
0.0192542
0.0195035
0.0197756
0.0200761
0.0207092
0.0213096
0.0201851
0.0189979
0.0191361
0.0192806
0.019412
0.0197555
0.020183
0.0207627
0.0219815
0.0238553
0.0253502
0.0190027
0.0191609
0.0193249
0.0194933
0.0199049
0.0204385
0.0212125
0.022765
0.0252336
0.0286228
0.0191346
0.0193044
0.019476
0.019662
0.0200963
0.0206551
0.0214639
0.0229973
0.0254837
0.0300121
0.0190873
0.0192649
0.0194396
0.0196241
0.020051
0.0205741
0.0212674
0.0224582
0.0239425
0.0250064
0.0191635
0.0193167
0.0194908
0.0196591
0.0200484
0.020489
0.0210063
0.0218341
0.0225031
0.0221973
0.0175237
0.0175556
0.0176377
0.0176507
0.0177838
0.0179147
0.0179439
0.0183063
0.0184998
0.0157532
0.0175351
0.0176086
0.0176932
0.0177231
0.0178592
0.0179644
0.0179481
0.0180592
0.0173671
0.0129679
0.0176035
0.0176816
0.0177651
0.0178071
0.0179573
0.0180805
0.0181719
0.0183518
0.0175377
0.0134928
0.0175706
0.0176729
0.0177747
0.0178571
0.0180837
0.0183377
0.0186755
0.0192476
0.0194209
0.0179478
0.0176609
0.0177905
0.0179107
0.0180419
0.0183607
0.0187852
0.0194089
0.0205503
0.0226456
0.0250706
0.0177061
0.0178599
0.0179998
0.0181776
0.0185891
0.0191811
0.0200934
0.0218516
0.0255905
0.0321581
0.0177065
0.0178786
0.0180341
0.0182439
0.0187179
0.019411
0.0205015
0.0226005
0.026978
0.0364413
0.0178184
0.0179992
0.0181586
0.018379
0.0188636
0.0195589
0.0206435
0.022651
0.0267218
0.0369972
0.0177755
0.0179629
0.0181218
0.0183347
0.0187973
0.0194255
0.0203188
0.0218085
0.0243043
0.0278001
0.017836
0.0179956
0.0181503
0.0183371
0.0187442
0.019258
0.0199106
0.0209559
0.0224501
0.0230714
0.0162569
0.0163164
0.0164193
0.0165081
0.0167569
0.0171331
0.0175938
0.0186506
0.0211097
0.0221859
0.016261
0.0163562
0.0164509
0.016543
0.01677
0.0170591
0.0174052
0.0182416
0.019625
0.0180824
0.0163058
0.0163988
0.0164854
0.016578
0.016803
0.0170642
0.0174609
0.018371
0.0191617
0.0172125
0.0162697
0.0163829
0.0164803
0.0166027
0.0168857
0.0172454
0.0178552
0.0190149
0.0202766
0.0215876
0.0163378
0.0164721
0.0165799
0.0167375
0.0170901
0.0176011
0.0184794
0.0200061
0.0231759
0.0315513
0.0163672
0.0165205
0.0166408
0.0168328
0.0172586
0.0179231
0.0190488
0.0210354
0.0260337
0.0412227
0.0163593
0.0165271
0.0166564
0.0168697
0.0173404
0.018084
0.0193275
0.0215353
0.0269643
0.0449632
0.0164497
0.016622
0.0167504
0.0169654
0.0174311
0.0181517
0.0193348
0.0213598
0.0259238
0.0417007
0.0164086
0.0165857
0.0167103
0.0169135
0.017347
0.0179796
0.0189249
0.0203692
0.0231598
0.0291893
0.0164524
0.0165989
0.0167171
0.0168891
0.0172603
0.0177748
0.0184891
0.0195697
0.021751
0.02423
0.0149578
0.0150342
0.0151473
0.0152921
0.0156253
0.0161983
0.0171124
0.0187657
0.0234641
0.0360312
0.01495
0.0150534
0.0151459
0.0152757
0.0155608
0.0159832
0.0166636
0.0181463
0.0219364
0.0305614
0.014971
0.0150643
0.0151404
0.0152544
0.0155153
0.0158497
0.0164354
0.0179304
0.0205295
0.025525
0.0149279
0.0150342
0.0151105
0.0152344
0.0155157
0.0158673
0.0165245
0.0179795
0.0196447
0.0255827
0.0149704
0.0150883
0.0151625
0.0152984
0.0156027
0.0160352
0.0168831
0.0183164
0.0204888
0.0340983
0.0149805
0.0151093
0.015185
0.0153348
0.0156711
0.0162049
0.0172238
0.0187173
0.0219502
0.0434245
0.0149611
0.0150982
0.0151741
0.0153298
0.0156804
0.0162521
0.0172946
0.0187172
0.0219885
0.0450207
0.0150295
0.0151663
0.0152362
0.015385
0.0157161
0.0162462
0.0171858
0.0183617
0.0206419
0.0382417
0.014989
0.0151293
0.0151939
0.0153317
0.0156331
0.016086
0.016818
0.0175964
0.0192014
0.0276025
0.0150174
0.015126
0.0151852
0.0152964
0.0155513
0.0159355
0.0165668
0.0173236
0.0195453
0.0269492
0.0136236
0.0136981
0.0137986
0.0139523
0.0142883
0.0148715
0.0160137
0.0179838
0.0214691
0.0447976
0.0136017
0.0136935
0.0137625
0.0138837
0.0141563
0.0145679
0.0153807
0.0173112
0.0211529
0.0421803
0.0136012
0.0136752
0.0137212
0.0138101
0.0140393
0.0143186
0.0148422
0.016681
0.019493
0.0341607
0.0135495
0.0136277
0.0136613
0.0137342
0.0139316
0.0141089
0.0144484
0.015878
0.0162308
0.0267137
0.0135657
0.0136432
0.0136598
0.0137146
0.013869
0.0139965
0.0143368
0.0151593
0.0130697
0.0241322
0.0135557
0.0136336
0.0136388
0.013682
0.0138079
0.0139347
0.0143145
0.0145403
0.0109773
0.0244752
0.0135236
0.0136023
0.0135981
0.0136302
0.0137305
0.0138388
0.0141715
0.0139624
0.00983917
0.0238512
0.0135711
0.0136445
0.0136305
0.0136509
0.0137251
0.0137994
0.0140808
0.0137899
0.00998128
0.0219501
0.0135309
0.0136076
0.0135891
0.0136061
0.0136714
0.0137286
0.0139766
0.0138404
0.0121873
0.0244087
0.0135456
0.0135917
0.0135728
0.0135786
0.0136389
0.0137278
0.0141141
0.0144949
0.0148198
0.0291607
0.0221614
0.0225524
0.0208763
0.0179122
0.0156386
0.0152278
0.0160612
0.0169471
0.0179153
0.0171546
0.023043
0.0238359
0.0227957
0.0189643
0.015341
0.0142652
0.015272
0.0169104
0.0186971
0.0191311
0.0257189
0.0276914
0.0266567
0.0218388
0.0171272
0.0153026
0.0159526
0.0175851
0.0194877
0.0197319
0.0286173
0.0301628
0.0280307
0.022719
0.0181679
0.0165516
0.0171551
0.0185759
0.0202981
0.0203816
0.0303301
0.0316881
0.0286427
0.0230003
0.0188217
0.0175093
0.0181213
0.0194033
0.021045
0.0210942
0.0306702
0.0326487
0.0298166
0.0241394
0.0197767
0.0181735
0.0186095
0.0199422
0.021796
0.022504
0.0300271
0.0324593
0.0309983
0.0259802
0.0214531
0.0193153
0.0193216
0.0205068
0.0224159
0.0233339
0.0292769
0.0318949
0.0305523
0.0260322
0.021967
0.0199681
0.0198984
0.0209149
0.0226734
0.0232748
0.0287559
0.0308986
0.0301998
0.02644
0.0226758
0.020624
0.0203306
0.0210677
0.0225382
0.0232191
0.0286059
0.0296138
0.0289067
0.0259612
0.0228331
0.0211002
0.0207968
0.021104
0.0220435
0.0212434
0.020561
0.0195549
0.0173394
0.0144981
0.0126395
0.0127584
0.0143101
0.0160857
0.017639
0.0188313
0.0193138
0.018905
0.0169634
0.0131475
0.0107623
0.0108128
0.012241
0.014488
0.0173345
0.0191251
0.0209552
0.0216375
0.019839
0.0151948
0.012328
0.011909
0.0129338
0.0150281
0.0178489
0.019581
0.0237927
0.0244696
0.0218326
0.0166946
0.0138316
0.0132571
0.0141612
0.0161494
0.0189522
0.0210439
0.0255572
0.0262817
0.0229832
0.0179824
0.0152957
0.0147876
0.0156912
0.0175974
0.020286
0.0225597
0.0258186
0.0270298
0.0242301
0.019655
0.0169245
0.0160069
0.0164944
0.0182074
0.0208712
0.0231064
0.0253743
0.0269405
0.0253001
0.0211496
0.0180886
0.0167031
0.0168937
0.0184547
0.0211209
0.0234143
0.0253123
0.0265092
0.0248091
0.0213234
0.0186533
0.0173088
0.0174286
0.0189385
0.0215793
0.0239427
0.0250897
0.0261345
0.0248449
0.0215674
0.0188738
0.0175244
0.0175679
0.0189472
0.021483
0.0237183
0.0261115
0.0264342
0.0251691
0.0222206
0.0196282
0.0184729
0.0187424
0.0199892
0.021558
0.0234948
0.0180864
0.0172175
0.0158894
0.013694
0.0118289
0.0116375
0.0128547
0.0148405
0.0166692
0.017549
0.0159954
0.0154841
0.0139392
0.0111741
0.00995458
0.0105385
0.0117494
0.0135273
0.0159496
0.0170115
0.0168386
0.0164623
0.0144969
0.0111798
0.0103138
0.0109262
0.0121185
0.0138785
0.016235
0.0172831
0.0190697
0.0189891
0.0161658
0.0124088
0.0113098
0.0116672
0.0128622
0.0146353
0.0171408
0.0188403
0.0208599
0.0211608
0.0178527
0.014183
0.0129606
0.0132422
0.0141957
0.0158129
0.0184099
0.0203852
0.0217044
0.0222046
0.0194948
0.0162797
0.0148883
0.0146257
0.0150922
0.0164307
0.0189173
0.0207495
0.022281
0.022453
0.0205029
0.0177429
0.0159942
0.015217
0.015441
0.0167182
0.0192293
0.0211739
0.0236774
0.0226938
0.0203107
0.0180818
0.0164516
0.0156285
0.0157983
0.0170818
0.0197547
0.0220836
0.0228214
0.0228849
0.0205487
0.0180138
0.0163819
0.0156946
0.0158862
0.0171181
0.0197032
0.0220968
0.0235224
0.0241112
0.022535
0.0199281
0.0180061
0.0170723
0.0170971
0.0182448
0.0201565
0.0223279
0.0162763
0.0158024
0.0153468
0.0134119
0.0114964
0.0112355
0.0121096
0.0137563
0.0153539
0.0153386
0.0138367
0.0135012
0.0127806
0.0107722
0.00992084
0.010577
0.0117054
0.0131587
0.0148647
0.0148566
0.0139749
0.013096
0.0117899
0.00950182
0.00922147
0.0102976
0.011903
0.0134493
0.0150857
0.0150802
0.0157664
0.0152856
0.0128137
0.0101183
0.00960973
0.0106213
0.0122531
0.0137436
0.0154554
0.0159591
0.0184809
0.0181585
0.0146906
0.0117989
0.011057
0.0117616
0.0128677
0.0141563
0.0160445
0.0167589
0.0208239
0.0200155
0.0166229
0.013977
0.0130426
0.0129886
0.0134441
0.0144761
0.0163337
0.01699
0.0224033
0.0206558
0.0178824
0.0157714
0.014351
0.013653
0.0137994
0.014715
0.0166786
0.0176453
0.0242201
0.0202821
0.0178537
0.0159145
0.0144993
0.013791
0.0139432
0.0148399
0.0170103
0.0185617
0.0232594
0.0208993
0.0173391
0.0153094
0.0143867
0.0141113
0.0142749
0.015002
0.0169024
0.0185341
0.0224298
0.0224074
0.0200597
0.0177608
0.0166014
0.0159495
0.0155806
0.0159709
0.017293
0.0184071
0.0146309
0.0144854
0.0146143
0.0132894
0.0116736
0.0115051
0.0123091
0.0135181
0.0146337
0.0141748
0.0120214
0.0120753
0.0121214
0.0110322
0.0100209
0.0107406
0.012045
0.0131972
0.0143366
0.0137571
0.0117998
0.0111611
0.0108523
0.00899431
0.00842
0.00979887
0.0119078
0.0132651
0.0143717
0.0138058
0.013565
0.0132456
0.0113249
0.00877012
0.00801566
0.00929267
0.011488
0.0129609
0.0141479
0.0137375
0.0179657
0.0166636
0.0130993
0.0102035
0.00905743
0.00971097
0.0112523
0.012669
0.0140551
0.0136526
0.0226465
0.0191979
0.0152356
0.0123804
0.0111244
0.0107724
0.0111848
0.0123839
0.0139218
0.0135853
0.0248269
0.0202374
0.0168305
0.014381
0.012487
0.0112318
0.0110378
0.0120213
0.0138835
0.0141061
0.024085
0.01948
0.0165315
0.0140922
0.0123035
0.0111801
0.0110552
0.0118743
0.0138317
0.0147531
0.023512
0.0190996
0.014912
0.0130413
0.0122665
0.0119382
0.011938
0.0124452
0.0137405
0.0145624
0.0225035
0.020751
0.0174534
0.0155279
0.0151066
0.0146667
0.0139165
0.0135715
0.0140399
0.0142207
0.0130545
0.0132096
0.0140071
0.0140417
0.0127688
0.0125659
0.0131308
0.0138467
0.0145444
0.0138477
0.0103763
0.0111351
0.0120458
0.0120188
0.0108343
0.0115691
0.0127823
0.0135774
0.0142791
0.0132306
0.0106237
0.0106811
0.0111319
0.00934975
0.00831794
0.00984099
0.0120598
0.0132861
0.0140601
0.01294
0.0132353
0.0129214
0.011138
0.00815186
0.00676948
0.00818844
0.0108903
0.0125389
0.0134295
0.0120626
0.0181641
0.0164013
0.01252
0.0090411
0.00704391
0.00748261
0.00981936
0.0117462
0.0128598
0.0113468
0.0233171
0.0192902
0.0147695
0.0110197
0.00879632
0.0080102
0.00883443
0.0106231
0.0121287
0.0108239
0.0264868
0.0210576
0.0166498
0.0129797
0.0102185
0.00850964
0.00805048
0.00911
0.0111379
0.0106285
0.0257568
0.0203311
0.0157982
0.0125275
0.0102868
0.00876202
0.00798759
0.00839207
0.0103478
0.0106238
0.0237244
0.0174776
0.0131891
0.0112662
0.01045
0.00981421
0.00920431
0.00931082
0.010315
0.0102359
0.0227018
0.0191574
0.0153013
0.0138182
0.0139616
0.0134234
0.0119483
0.0108338
0.0106809
0.00984039
0.0129256
0.0133015
0.0148944
0.0161742
0.0143127
0.0135523
0.0138299
0.0142205
0.0145031
0.0135627
0.00993975
0.0115276
0.0134838
0.0136514
0.0119794
0.0123235
0.0133074
0.0139382
0.0142822
0.0127518
0.0111809
0.0118067
0.012804
0.0104746
0.00921864
0.0104228
0.0122687
0.0134422
0.0140055
0.0123107
0.0156508
0.014761
0.0123751
0.00842224
0.00674723
0.00818629
0.0106086
0.0123668
0.0131704
0.010984
0.0214495
0.0185609
0.0130622
0.00839088
0.0057212
0.00645123
0.00902897
0.0111609
0.0122857
0.00986106
0.0262698
0.0215143
0.0151334
0.00983877
0.00649755
0.00575354
0.00747974
0.00950372
0.0110357
0.00883894
0.0295379
0.0234967
0.0172744
0.0118176
0.00818713
0.00652316
0.00659539
0.00760535
0.00908748
0.00765902
0.0292225
0.0215855
0.0156497
0.0117008
0.009152
0.00767752
0.00691265
0.00657784
0.0072912
0.00678163
0.0244192
0.0164145
0.012338
0.0104428
0.0097373
0.00914272
0.00806814
0.00695974
0.00691856
0.00578765
0.0228727
0.0177735
0.0139773
0.0131196
0.0137372
0.0127577
0.010073
0.00793949
0.0071254
0.00530287
0.0175672
0.016864
0.0195841
0.021055
0.0168568
0.0147955
0.0146489
0.0145222
0.014345
0.0128769
0.0131201
0.014912
0.0185828
0.0173434
0.0138545
0.0137635
0.0145657
0.0148403
0.0145979
0.0124738
0.0131321
0.0148615
0.0174681
0.013365
0.0116678
0.0123748
0.0137995
0.0147976
0.0147348
0.01235
0.0184043
0.0181515
0.0162021
0.0104716
0.00920299
0.0101728
0.0121216
0.0137832
0.0140889
0.0110412
0.0255437
0.0222143
0.0156727
0.00912594
0.00711071
0.0080777
0.0103325
0.0122167
0.0128779
0.00954284
0.0312676
0.0248887
0.0168136
0.0097617
0.00656449
0.00650678
0.00866802
0.0103549
0.0110157
0.00782181
0.0336897
0.0260267
0.0186518
0.0118538
0.00776636
0.00666053
0.00749354
0.00790092
0.00813163
0.00555592
0.0304958
0.022175
0.0161029
0.0121384
0.00948173
0.00825529
0.00756603
0.00619775
0.0057447
0.00411847
0.0226827
0.0151634
0.0126819
0.0114423
0.0109269
0.010258
0.00848144
0.00607887
0.00454569
0.00215235
0.0224257
0.0165719
0.0137347
0.0143282
0.015746
0.0140948
0.00984735
0.00617602
0.00407184
0.00132544
0.0347766
0.0274317
0.0293864
0.030028
0.0226436
0.017029
0.0136007
0.0112249
0.0136425
0.0213035
0.0274537
0.0250318
0.0290806
0.0260719
0.0178203
0.0150733
0.0136251
0.0118543
0.0135396
0.0191128
0.0207249
0.0228146
0.0272427
0.021007
0.0148808
0.0132525
0.0129594
0.0121137
0.014005
0.0188496
0.0219904
0.0239795
0.0244514
0.0165535
0.0119989
0.0109304
0.0113434
0.0111447
0.0132489
0.0176335
0.02728
0.0263092
0.0218125
0.0135103
0.00951909
0.00886965
0.00950278
0.00930828
0.0116559
0.0163965
0.0329598
0.0275287
0.0206318
0.0127706
0.00832841
0.00741459
0.00783799
0.0070846
0.00939627
0.014534
0.0336001
0.0267829
0.0208782
0.0145805
0.00972047
0.0076839
0.00653052
0.00406537
0.00629979
0.0117396
0.0273936
0.0222284
0.0180457
0.0150982
0.0122844
0.0100191
0.00692254
0.0029121
0.00420448
0.00981216
0.0188026
0.0153739
0.015301
0.0157103
0.0151549
0.0128994
0.00800544
0.00266905
0.00191295
0.00660587
0.0244419
0.0170216
0.0150122
0.0184062
0.0208213
0.0180282
0.010846
0.0036693
0.00252683
0.00800608
0.0682928
0.0443343
0.0376811
0.0378406
0.0350296
0.0303577
0.0205162
0.0109877
0.0344669
0.109265
0.0623073
0.042182
0.0381243
0.0372348
0.0324122
0.0279383
0.0195542
0.0110958
0.0341059
0.105196
0.0450181
0.0360034
0.0356924
0.0334176
0.0283094
0.0243729
0.017473
0.0100273
0.0318817
0.100983
0.0325924
0.0315237
0.0322438
0.028659
0.0241408
0.0209107
0.0149378
0.00783248
0.0291236
0.097642
0.0289928
0.0297279
0.0288566
0.0246691
0.0210566
0.0189507
0.0133531
0.00553652
0.0272132
0.0976183
0.0289482
0.0288859