/*--------------------------------*- C++ -*----------------------------------*\
  =========                 |
  \\      /  F ield         | OpenFOAM: The Open Source CFD Toolbox
   \\    /   O peration     | Website:  https://openfoam.org
    \\  /    A nd           | Version:  6
     \\/     M anipulation  |
\*---------------------------------------------------------------------------*/
FoamFile
{
    version     2.0;
    format      ascii;
    class       volVectorField;
    location    "1000";
    object      U;
}
// * * * * * * * * * * * * * * * * * * * * * * * * * * * * * * * * * * * * * //

dimensions      [0 1 -1 0 0 0 0];

internalField   nonuniform List<vector> 
7000
(
(0.000597865 0.000600606 0.997867)
(0.000754369 0.000601393 0.999406)
(0.000210975 0.000600764 0.998942)
(7.8558e-05 0.000600448 0.998942)
(1.58219e-05 0.000600046 0.998945)
(-4.69833e-05 0.000599554 0.998945)
(-0.000106677 0.000599008 0.998942)
(-0.000234333 0.000598509 0.998941)
(-0.000778554 0.000598448 0.999412)
(-0.000611627 0.000596868 0.997858)
(0.000598647 0.000759251 0.99941)
(0.000754253 0.000759169 1.00095)
(0.000210208 0.00075869 1.00049)
(7.77737e-05 0.000757992 1.00049)
(1.49496e-05 0.000757201 1.00049)
(-4.79645e-05 0.000756291 1.00049)
(-0.000107583 0.000755338 1.00048)
(-0.000235018 0.000754553 1.00048)
(-0.000779865 0.000753787 1.00095)
(-0.00061317 0.000752462 0.999399)
(0.000598046 0.000216097 0.998944)
(0.000753802 0.000215438 1.00048)
(0.000209743 0.000215022 1.00002)
(7.71239e-05 0.000214379 1.00002)
(1.41607e-05 0.000213584 1.00002)
(-4.88298e-05 0.000212696 1.00002)
(-0.000108419 0.000211801 1.00002)
(-0.000235786 0.000211023 1.00002)
(-0.000780591 0.000210287 1.00049)
(-0.0006132 0.000209602 0.998934)
(0.000597814 8.54244e-05 0.998944)
(0.000753233 8.48752e-05 1.00048)
(0.000209146 8.43855e-05 1.00002)
(7.63577e-05 8.36871e-05 1.00002)
(1.32717e-05 8.28264e-05 1.00002)
(-4.97614e-05 8.18764e-05 1.00002)
(-0.000109285 8.09317e-05 1.00002)
(-0.000236534 8.01178e-05 1.00002)
(-0.00078131 7.93933e-05 1.00049)
(-0.000613663 7.85164e-05 0.998935)
(0.000597571 2.42079e-05 0.998947)
(0.00075271 2.37278e-05 1.00049)
(0.000208529 2.32363e-05 1.00002)
(7.5565e-05 2.25633e-05 1.00002)
(1.23516e-05 2.17313e-05 1.00003)
(-5.07227e-05 2.08144e-05 1.00003)
(-0.000110175 1.99072e-05 1.00002)
(-0.000237295 1.91295e-05 1.00002)
(-0.000782094 1.84704e-05 1.00049)
(-0.000614122 1.76127e-05 0.998938)
(0.000597323 -3.77918e-05 0.998947)
(0.000752225 -3.82274e-05 1.00049)
(0.000207972 -3.86673e-05 1.00002)
(7.48518e-05 -3.92358e-05 1.00002)
(1.15232e-05 -3.99423e-05 1.00003)
(-5.1584e-05 -4.07182e-05 1.00003)
(-0.000110968 -4.14779e-05 1.00002)
(-0.000237958 -4.21231e-05 1.00002)
(-0.000782744 -4.2628e-05 1.00049)
(-0.000614477 -4.3278e-05 0.998938)
(0.000597093 -9.76667e-05 0.998945)
(0.000751825 -9.79432e-05 1.00048)
(0.00020753 -9.82925e-05 1.00002)
(7.42889e-05 -9.87122e-05 1.00002)
(1.08683e-05 -9.92373e-05 1.00002)
(-5.22582e-05 -9.98101e-05 1.00002)
(-0.00011158 -0.000100362 1.00002)
(-0.000238455 -0.000100821 1.00002)
(-0.000783198 -0.000101136 1.00049)
(-0.000614699 -0.00010162 0.998935)
(0.000596925 -0.000226266 0.998944)
(0.000751612 -0.000226294 1.00048)
(0.000207228 -0.00022657 1.00002)
(7.39051e-05 -0.000226851 1.00002)
(1.04235e-05 -0.000227199 1.00002)
(-5.27091e-05 -0.000227566 1.00002)
(-0.000111979 -0.000227903 1.00002)
(-0.000238759 -0.000228167 1.00002)
(-0.00078352 -0.000228286 1.00049)
(-0.000614812 -0.000228754 0.998935)
(0.000597206 -0.000769087 0.999412)
(0.000751435 -0.000769638 1.00095)
(0.000206975 -0.000769807 1.00049)
(7.36354e-05 -0.000769972 1.00049)
(1.01463e-05 -0.000770253 1.00049)
(-5.29474e-05 -0.000770526 1.00049)
(-0.000112151 -0.000770756 1.00049)
(-0.000238836 -0.000770984 1.00049)
(-0.000783663 -0.000771131 1.00096)
(-0.000615279 -0.000770763 0.999403)
(0.000596065 -0.000605915 0.997865)
(0.000750852 -0.000607029 0.999404)
(0.000206928 -0.000606744 0.99894)
(7.33741e-05 -0.000606883 0.998941)
(9.7941e-06 -0.000607049 0.998943)
(-5.32665e-05 -0.000607187 0.998943)
(-0.000112475 -0.000607283 0.99894)
(-0.000239277 -0.000607339 0.998939)
(-0.000783318 -0.000607812 0.999411)
(-0.000614146 -0.000606664 0.997857)
(0.00145593 0.00146365 0.994356)
(0.00170256 0.00146836 0.999185)
(0.00040273 0.00146434 0.997326)
(0.000227668 0.00146329 0.997316)
(3.65096e-05 0.00146132 0.997306)
(-0.000164784 0.00145892 0.997305)
(-0.000344246 0.00145622 0.997313)
(-0.000496569 0.0014531 0.997321)
(-0.00179195 0.00145387 0.999222)
(-0.00150534 0.00144443 0.994315)
(0.00146065 0.00171684 0.999199)
(0.0017026 0.00171704 1.00403)
(0.000399442 0.00171405 1.00217)
(0.000224077 0.00171121 1.00216)
(3.19127e-05 0.00170765 1.00215)
(-0.000170218 0.00170344 1.00214)
(-0.000350007 0.00169887 1.00214)
(-0.000501176 0.00169459 1.00215)
(-0.00180035 0.00169212 1.00405)
(-0.00151488 0.0016839 0.999119)
(0.00145677 0.00041994 0.997333)
(0.00169975 0.000417253 1.00216)
(0.00039751 0.000415527 1.0003)
(0.000221274 0.00041266 1.00029)
(2.85071e-05 0.000409173 1.00028)
(-0.000174004 0.000405236 1.00027)
(-0.000353705 0.00040121 1.00028)
(-0.00050446 0.000397667 1.00028)
(-0.00180312 0.000394634 1.00219)
(-0.00151439 0.000390086 0.99726)
(0.00145612 0.00025252 0.997323)
(0.00169752 0.000250191 1.00215)
(0.000394835 0.000248077 1.00029)
(0.000217759 0.000244879 1.00028)
(2.44581e-05 0.000240996 1.00027)
(-0.000178287 0.000236684 1.00026)
(-0.000357736 0.00023234 1.00027)
(-0.000507857 0.000228523 1.00027)
(-0.00180743 0.000225423 1.00218)
(-0.00151768 0.000219954 0.997241)
(0.00145492 6.76788e-05 0.997313)
(0.00169521 6.51581e-05 1.00214)
(0.000392137 6.30394e-05 1.00028)
(0.00021419 5.99937e-05 1.00027)
(2.03046e-05 5.62479e-05 1.00025)
(-0.000182674 5.21081e-05 1.00025)
(-0.000361881 4.79719e-05 1.00025)
(-0.000511346 4.43223e-05 1.00025)
(-0.00181168 4.14919e-05 1.00216)
(-0.00152039 3.6768e-05 0.997223)
(0.00145371 -0.000129617 0.997312)
(0.00169296 -0.000132145 1.00214)
(0.00038967 -0.000134102 1.00028)
(0.000210971 -0.000136711 1.00027)
(1.65711e-05 -0.000139938 1.00025)
(-0.000186569 -0.00014346 1.00025)
(-0.000365528 -0.000146922 1.00025)
(-0.000514352 -0.000149948 1.00025)
(-0.00181515 -0.000152113 1.00216)
(-0.00152255 -0.000155483 0.997216)
(0.0014526 -0.000308846 0.997321)
(0.00169099 -0.0003111 1.00215)
(0.000387641 -0.000312696 1.00029)
(0.000208365 -0.000314658 1.00027)
(1.35628e-05 -0.000317138 1.00026)
(-0.000189654 -0.000319821 1.00025)
(-0.000368368 -0.000322404 1.00026)
(-0.000516608 -0.000324646 1.00026)
(-0.00181755 -0.000326106 1.00217)
(-0.00152399 -0.000328065 0.997222)
(0.00145125 -0.000465661 0.99733)
(0.00168955 -0.000466675 1.00215)
(0.000386236 -0.000467982 1.00029)
(0.000206542 -0.000469337 1.00028)
(1.14186e-05 -0.000471058 1.00027)
(-0.000191825 -0.000472844 1.00026)
(-0.000370346 -0.000474469 1.00026)
(-0.000518169 -0.000475883 1.00026)
(-0.00181903 -0.000476562 1.00218)
(-0.00152431 -0.000478044 0.997229)
(0.00145368 -0.00176044 0.999215)
(0.00168963 -0.00176416 1.00404)
(0.00038506 -0.00176412 1.00218)
(0.000205275 -0.00176541 1.00217)
(1.01033e-05 -0.00176696 1.00216)
(-0.00019295 -0.00176843 1.00215)
(-0.000371243 -0.00176967 1.00215)
(-0.000518663 -0.00177066 1.00216)
(-0.0018206 -0.00177216 1.00407)
(-0.00152754 -0.00176973 0.999118)
(0.00144712 -0.00148753 0.994338)
(0.00168619 -0.00149414 0.999151)
(0.00038449 -0.00149176 0.997297)
(0.000203785 -0.00149299 0.997282)
(8.70668e-06 -0.00149387 0.997267)
(-0.000194012 -0.00149467 0.997261)
(-0.000371908 -0.00149532 0.997263)
(-0.000519568 -0.0014953 0.997264)
(-0.00181795 -0.00149846 0.999173)
(-0.00152125 -0.00149218 0.994234)
(0.00197557 0.00198885 0.990175)
(0.0021176 0.00199907 0.998788)
(0.000392455 0.00198977 0.995534)
(0.000358323 0.00198861 0.995511)
(4.89113e-05 0.00198485 0.995449)
(-0.000253628 0.0019804 0.995447)
(-0.00054505 0.0019755 0.995504)
(-0.000538826 0.00196873 0.995522)
(-0.00226068 0.00197182 0.998869)
(-0.00205902 0.00195263 0.990072)
(0.00198585 0.00214059 0.998819)
(0.00211893 0.00214219 1.00744)
(0.00038734 0.0021349 1.00417)
(0.000352758 0.0021303 1.00415)
(4.07164e-05 0.00212389 1.00408)
(-0.000263755 0.00211616 1.00406)
(-0.000556739 0.0021076 1.00411)
(-0.000548566 0.00209876 1.00411)
(-0.00227754 0.00209548 1.00746)
(-0.00207806 0.00207867 0.998606)
(0.00197681 0.000419352 0.995548)
(0.00211191 0.00041538 1.00416)
(0.000383915 0.000412301 1.0009)
(0.00034769 0.000407035 1.00087)
(3.46128e-05 0.000400779 1.00081)
(-0.000270669 0.000393543 1.00079)
(-0.000563665 0.000385856 1.00084)
(-0.000555129 0.000378862 1.00085)
(-0.00228137 0.000372469 1.0042)
(-0.00207552 0.000362566 0.995353)
(0.00197645 0.000398087 0.995526)
(0.00210843 0.000394926 1.00413)
(0.000378976 0.000391066 1.00088)
(0.000341239 0.000385217 1.00085)
(2.71356e-05 0.000378144 1.00078)
(-0.000278808 0.000370114 1.00077)
(-0.000571616 0.00036173 1.00081)
(-0.000562163 0.000354029 1.00081)
(-0.0022907 0.000347468 1.00417)
(-0.00208271 0.000335895 0.995306)
(0.00197419 9.86065e-05 0.995466)
(0.00210438 9.44257e-05 1.00407)
(0.000374169 9.0672e-05 1.00081)
(0.000334763 8.51541e-05 1.00078)
(1.94835e-05 7.83273e-05 1.00071)
(-0.000287117 7.0651e-05 1.0007)
(-0.000579785 6.27511e-05 1.00074)
(-0.000569445 5.54505e-05 1.00074)
(-0.00229923 4.94333e-05 1.00411)
(-0.00208775 4.03804e-05 0.995222)
(0.00197211 -0.000197235 0.995465)
(0.00210048 -0.000201643 1.00406)
(0.000369748 -0.000205066 1.00081)
(0.000328911 -0.000209797 1.00078)
(1.26306e-05 -0.000215683 1.00071)
(-0.000294399 -0.000222151 1.00069)
(-0.000586832 -0.00022863 1.00073)
(-0.00057557 -0.000234555 1.00073)
(-0.00230596 -0.000239144 1.0041)
(-0.00209172 -0.000245006 0.995205)
(0.00197039 -0.000487666 0.995524)
(0.00209709 -0.00049229 1.00412)
(0.000366093 -0.000494941 1.00086)
(0.000324173 -0.000498418 1.00083)
(7.14865e-06 -0.000502919 1.00076)
(-0.000300054 -0.000507785 1.00075)
(-0.000592171 -0.000512523 1.00079)
(-0.000580029 -0.000516895 1.00078)
(-0.00231038 -0.000520032 1.00416)
(-0.00209433 -0.000522296 0.995254)
(0.00196732 -0.000490472 0.995545)
(0.00209418 -0.000492726 1.00413)
(0.000363762 -0.000494872 1.00088)
(0.000320965 -0.000497108 1.00085)
(3.29262e-06 -0.000500178 1.00078)
(-0.000303989 -0.000503361 1.00076)
(-0.000595921 -0.000506325 1.0008)
(-0.000583186 -0.000509157 1.0008)
(-0.00231247 -0.000510765 1.00417)
(-0.00209393 -0.000512443 0.99527)
(0.00197394 -0.00220898 0.998858)
(0.00209658 -0.00221636 1.00745)
(0.00036186 -0.00221405 1.0042)
(0.000318929 -0.00221665 1.00417)
(1.03115e-06 -0.00221922 1.0041)
(-0.000306048 -0.00222167 1.00409)
(-0.000597756 -0.00222371 1.00413)
(-0.000584382 -0.0022249 1.00413)
(-0.00231752 -0.00222992 1.00751)
(-0.00210188 -0.0022236 0.998593)
(0.00196055 -0.00202748 0.990129)
(0.00208952 -0.0020408 0.9987)
(0.000360325 -0.00203427 0.995456)
(0.000315598 -0.00203711 0.995423)
(-1.37777e-06 -0.00203835 0.995348)
(-0.000307537 -0.00203962 0.99533)
(-0.000597762 -0.00204074 0.995369)
(-0.000585156 -0.00203977 0.995369)
(-0.00231097 -0.0020477 0.998737)
(-0.00208813 -0.00203383 0.989848)
(0.00231352 0.00233321 0.985007)
(0.00229183 0.00234951 0.997849)
(0.000322433 0.00233353 0.993331)
(0.000457614 0.00233239 0.993309)
(2.69271e-05 0.00232572 0.993189)
(-0.000312971 0.0023183 0.993187)
(-0.000720014 0.00231038 0.993301)
(-0.000524098 0.00229795 0.993317)
(-0.00249423 0.00230322 0.998)
(-0.00243718 0.0022708 0.984829)
(0.00232996 0.00232352 0.997903)
(0.00229429 0.00232641 1.01076)
(0.000315168 0.00231333 1.00621)
(0.000449594 0.00230651 1.00618)
(1.36277e-05 0.00229584 1.00604)
(-0.000329873 0.00228308 1.00602)
(-0.000740746 0.00226881 1.0061)
(-0.000542004 0.00225276 1.00608)
(-0.00252355 0.00224761 1.01077)
(-0.00246887 0.00221758 0.997491)
(0.00231445 0.000358495 0.993357)
(0.00228169 0.000353219 1.00619)
(0.000309859 0.000348496 1.00166)
(0.000441226 0.000340003 1.00163)
(3.67538e-06 0.000330085 1.0015)
(-0.000341232 0.000318273 1.00148)
(-0.000752347 0.000305264 1.00157)
(-0.000553763 0.000293085 1.00155)
(-0.00252993 0.000281502 1.00625)
(-0.00246486 0.000262512 0.992975)
(0.00231475 0.000512929 0.993335)
(0.00227686 0.000509125 1.00616)
(0.000301926 0.000502845 1.00164)
(0.000431027 0.000493724 1.0016)
(-8.37879e-06 0.000482573 1.00147)
(-0.000354759 0.000469578 1.00144)
(-0.000766062 0.000455568 1.00153)
(-0.000566141 0.000442173 1.00151)
(-0.00254713 0.000430878 1.00622)
(-0.00247815 0.000409634 0.992899)
(0.00231081 9.62549e-05 0.993216)
(0.0022704 9.00966e-05 1.00603)
(0.000294569 8.42965e-05 1.00151)
(0.00042095 7.5802e-05 1.00148)
(-2.05293e-05 6.51647e-05 1.00134)
(-0.000368295 5.29836e-05 1.00131)
(-0.000779804 4.01548e-05 1.00139)
(-0.000578758 2.7905e-05 1.00137)
(-0.00256159 1.77518e-05 1.00609)
(-0.00248634 2.42748e-06 0.99273)
(0.00230769 -0.00023334 0.993215)
(0.00226454 -0.000239904 1.00602)
(0.00028784 -0.000244929 1.0015)
(0.000411944 -0.00025214 1.00147)
(-3.11941e-05 -0.000261177 1.00132)
(-0.000379788 -0.000271159 1.00129)
(-0.000791151 -0.000281248 1.00137)
(-0.000588829 -0.000290628 1.00135)
(-0.00257254 -0.000298129 1.00607)
(-0.0024927 -0.00030709 0.992694)
(0.00230565 -0.000637471 0.993331)
(0.00225981 -0.000645193 1.00613)
(0.000282314 -0.000648733 1.00161)
(0.000404753 -0.000653911 1.00158)
(-3.9505e-05 -0.000660684 1.00143)
(-0.000388339 -0.000667938 1.0014)
(-0.00079921 -0.000674919 1.00148)
(-0.00059557 -0.000681315 1.00145)
(-0.0025793 -0.000686409 1.00618)
(-0.0024969 -0.000687802 0.99279)
(0.00230023 -0.000455967 0.993351)
(0.00225506 -0.000459887 1.00613)
(0.000279169 -0.000463001 1.00162)
(0.000400053 -0.000465973 1.00159)
(-4.5164e-05 -0.000470475 1.00144)
(-0.000394007 -0.000475042 1.00141)
(-0.000804479 -0.0004791 1.00149)
(-0.000600263 -0.000483255 1.00146)
(-0.00258104 -0.000485295 1.00619)
(-0.0024946 -0.000485519 0.992803)
(0.00231219 -0.00241761 0.997974)
(0.00226084 -0.00242895 1.01078)
(0.000276477 -0.00242337 1.00626)
(0.000397583 -0.00242757 1.00623)
(-4.81901e-05 -0.00243082 1.00609)
(-0.000396838 -0.00243406 1.00606)
(-0.000807225 -0.00243682 1.00614)
(-0.000601554 -0.00243728 1.00611)
(-0.00258958 -0.00244602 1.01086)
(-0.00250774 -0.002434 0.997443)
(0.00229104 -0.00238747 0.984921)
(0.0022497 -0.00240824 0.997682)
(0.000273508 -0.00239649 0.993184)
(0.00039175 -0.00240152 0.99314)
(-5.15755e-05 -0.00240266 0.992993)
(-0.000398515 -0.00240425 0.992957)
(-0.000805388 -0.00240605 0.993033)
(-0.000600828 -0.00240299 0.993011)
(-0.00257764 -0.00241636 0.997734)
(-0.00248509 -0.00239318 0.984367)
(0.00256498 0.0025919 0.979365)
(0.00239114 0.00261425 0.996672)
(0.000269625 0.00259073 0.990926)
(0.000535911 0.0025893 0.9909)
(-2.58344e-05 0.00257811 0.990741)
(-0.000351708 0.00256606 0.990741)
(-0.000885114 0.00255338 0.990899)
(-0.000533726 0.00253208 0.990924)
(-0.00266278 0.002537 0.996939)
(-0.00273804 0.00248541 0.97911)
(0.0025876 0.00243127 0.996755)
(0.00239385 0.00243471 1.01409)
(0.000259132 0.00241495 1.00829)
(0.000523974 0.00240481 1.00825)
(-4.69847e-05 0.00238758 1.00805)
(-0.00037907 0.002367 1.00801)
(-0.000920014 0.00234362 1.00811)
(-0.000565561 0.00231569 1.00807)
(-0.00271243 0.00230394 1.0141)
(-0.00278757 0.00225174 0.996058)
(0.00256488 0.000314052 0.990965)
(0.00237492 0.0003069 1.00825)
(0.000251339 0.00030009 1.00249)
(0.000510638 0.000286992 1.00245)
(-6.28496e-05 0.000271701 1.00226)
(-0.000397556 0.00025287 1.00223)
(-0.000939386 0.000231227 1.00234)
(-0.000586625 0.000210364 1.00231)
(-0.00272673 0.000189296 1.00835)
(-0.00278526 0.000153988 0.990315)
(0.00256591 0.000607318 0.990937)
(0.00236818 0.000602523 1.00821)
(0.00023919 0.000592751 1.00245)
(0.000495145 0.000579141 1.00241)
(-8.17343e-05 0.000562083 1.00222)
(-0.000419474 0.000541672 1.00218)
(-0.000962528 0.000518885 1.00229)
(-0.000608218 0.000496314 1.00225)
(-0.00275757 0.00047676 1.0083)
(-0.00280869 0.000439238 0.990179)
(0.00255944 6.44999e-05 0.990776)
(0.0023582 5.56567e-05 1.00803)
(0.00022833 4.70137e-05 1.00228)
(0.000479967 3.44204e-05 1.00223)
(-0.000100437 1.84138e-05 1.00204)
(-0.000440862 -2.5447e-07 1.00199)
(-0.000984826 -2.04116e-05 1.00209)
(-0.000629581 -3.99965e-05 1.00204)
(-0.00278189 -5.69482e-05 1.00811)
(-0.00282211 -8.22742e-05 0.989923)
(0.00255497 -0.000245987 0.990775)
(0.00234976 -0.000255178 1.00801)
(0.000218475 -0.00026233 1.00226)
(0.000466651 -0.000272856 1.00222)
(-0.000116399 -0.000286132 1.00202)
(-0.000458326 -0.00030089 1.00196)
(-0.00100226 -0.000315931 1.00206)
(-0.000645455 -0.000329856 1.002)
(-0.00279914 -0.000341503 1.00808)
(-0.00283201 -0.000354441 0.989858)
(0.00255286 -0.000772346 0.990932)
(0.00234355 -0.000783881 1.00816)
(0.000210433 -0.000788448 1.00241)
(0.000456252 -0.0007959 1.00236)
(-0.000128397 -0.000805559 1.00216)
(-0.000470611 -0.000815769 1.0021)
(-0.00101365 -0.000825375 1.0022)
(-0.000654845 -0.000833806 1.00214)
(-0.00280846 -0.000840804 1.00823)
(-0.00283794 -0.000839639 0.989984)
(0.00254446 -0.000442169 0.990958)
(0.00233644 -0.000448066 1.00816)
(0.000206315 -0.00045269 1.00242)
(0.000449638 -0.000456493 1.00237)
(-0.000136172 -0.000462747 1.00217)
(-0.000478127 -0.000468802 1.00211)
(-0.00102021 -0.00047381 1.00221)
(-0.000660528 -0.000478764 1.00215)
(-0.00280817 -0.000480045 1.00824)
(-0.00283229 -0.000476819 0.990006)
(0.00256214 -0.00255476 0.996867)
(0.0023456 -0.00257003 1.01411)
(0.000202414 -0.00256123 1.00835)
(0.000446935 -0.00256735 1.00831)
(-0.000139855 -0.00257093 1.00811)
(-0.000481601 -0.00257477 1.00806)
(-0.00102342 -0.00257799 1.00816)
(-0.00066061 -0.00257634 1.0081)
(-0.00281893 -0.00258809 1.01423)
(-0.00285004 -0.00256673 0.995942)
(0.00253271 -0.00266387 0.979228)
(0.00233024 -0.00269238 0.9964)
(0.000197749 -0.00267509 0.990683)
(0.000438116 -0.00268277 0.990621)
(-0.000144151 -0.00268327 0.990413)
(-0.000483048 -0.00268503 0.990353)
(-0.00101846 -0.00268744 0.990442)
(-0.000657333 -0.00268119 0.990398)
(-0.00279887 -0.00269997 0.996473)
(-0.00281575 -0.00266423 0.978285)
(0.00275275 0.0027871 0.973639)
(0.00244316 0.00281507 0.9955)
(0.000231327 0.00278314 0.988515)
(0.000595052 0.00278057 0.988466)
(-9.98689e-05 0.0027627 0.98829)
(-0.000379977 0.00274342 0.9883)
(-0.00104278 0.00272267 0.988493)
(-0.000565757 0.0026873 0.988559)
(-0.00279333 0.00268652 0.99595)
(-0.00298355 0.00260452 0.973339)
(0.00278112 0.00249059 0.99562)
(0.00244486 0.00249349 1.01752)
(0.000216045 0.002466 1.01045)
(0.000576712 0.00245075 1.01037)
(-0.000133159 0.00242372 1.01014)
(-0.000423803 0.00239098 1.01007)
(-0.00110045 0.00235262 1.01017)
(-0.000622078 0.00230447 1.01011)
(-0.00287879 0.00227651 1.01752)
(-0.00306107 0.00218356 0.994515)
(0.00275053 0.000282558 0.988568)
(0.00241875 0.000272769 1.01039)
(0.000204698 0.000263017 1.00338)
(0.000556141 0.000243455 1.00331)
(-0.000157991 0.000220199 1.00308)
(-0.000453801 0.000190511 1.00304)
(-0.00113334 0.000154878 1.00316)
(-0.000660269 0.000118283 1.00312)
(-0.00291294 7.9434e-05 1.01055)
(-0.00306785 1.19306e-05 0.987536)
(0.00275203 0.000682049 0.988513)
(0.0024091 0.000675553 1.01032)
(0.000186702 0.000660914 1.00331)
(0.00053304 0.000641027 1.00324)
(-0.000187231 0.000615258 1.00301)
(-0.000488914 0.000583603 1.00295)
(-0.00117253 0.000546997 1.00305)
(-0.000698861 0.000508482 1.003)
(-0.0029693 0.000473878 1.01046)
(-0.00310903 0.00040626 0.98728)
(0.0027421 1.18724e-05 0.988328)
(0.00239425 -6.51087e-07 1.0101)
(0.000170943 -1.31887e-05 1.0031)
(0.000510482 -3.15464e-05 1.00302)
(-0.00021563 -5.52604e-05 1.00278)
(-0.000522265 -8.34218e-05 1.00271)
(-0.00120859 -0.000114596 1.0028)
(-0.000735107 -0.000145947 1.00273)
(-0.0030116 -0.000174092 1.01021)
(-0.00313236 -0.000216941 0.986923)
(0.00273581 -0.000245724 0.988326)
(0.00238229 -0.000258184 1.01007)
(0.000156773 -0.000268326 1.00308)
(0.000491161 -0.000283351 1.003)
(-0.000239082 -0.000302444 1.00275)
(-0.000548287 -0.000323786 1.00267)
(-0.001235 -0.000345645 1.00275)
(-0.000759697 -0.000365812 1.00268)
(-0.00303831 -0.000382644 1.01018)
(-0.00314745 -0.000400687 0.986818)
(0.00273368 -0.000894926 0.988507)
(0.00237419 -0.000911023 1.01024)
(0.000145299 -0.000916994 1.00325)
(0.00047651 -0.000927551 1.00316)
(-0.000255945 -0.000940925 1.00291)
(-0.000565384 -0.000954821 1.00283)
(-0.00125036 -0.000967428 1.00291)
(-0.00077151 -0.000977136 1.00283)
(-0.00304914 -0.000985378 1.01035)
(-0.00315446 -0.000977122 0.98696)
(0.00272183 -0.00044709 0.988563)
(0.00236422 -0.000455413 1.01026)
(0.000139832 -0.00046212 1.00329)
(0.000467384 -0.000467066 1.0032)
(-0.000266205 -0.000475539 1.00295)
(-0.000574775 -0.000483217 1.00286)
(-0.00125715 -0.00048855 1.00294)
(-0.000776851 -0.000493152 1.00287)
(-0.0030428 -0.000491457 1.01038)
(-0.0031419 -0.000478487 0.987023)
(0.00274536 -0.00264839 0.995786)
(0.00237648 -0.0026675 1.01755)
(0.0001343 -0.0026558 1.01054)
(0.000464513 -0.00266407 1.01046)
(-0.000270535 -0.00266772 1.01022)
(-0.000578297 -0.00267169 1.01014)
(-0.00126001 -0.00267461 1.01023)
(-0.000773471 -0.00266858 1.01015)
(-0.00305117 -0.00267991 1.01772)
(-0.00316137 -0.00264219 0.99429)
(0.00270736 -0.00287949 0.973442)
(0.00235676 -0.00291572 0.995093)
(0.000127541 -0.0028928 0.988151)
(0.000452247 -0.0029034 0.988044)
(-0.000275448 -0.00290275 0.987788)
(-0.000578967 -0.00290419 0.987699)
(-0.00124979 -0.002907 0.987775)
(-0.000764117 -0.00289549 0.987724)
(-0.00301768 -0.00291796 0.995212)
(-0.0031117 -0.00286503 0.971959)
(0.00288402 0.00292503 0.967915)
(0.00244964 0.00295781 0.994359)
(0.000194218 0.00291646 0.986147)
(0.000634601 0.00291122 0.986064)
(-0.000186425 0.00288382 0.985892)
(-0.000400886 0.00285343 0.985923)
(-0.00118896 0.00281901 0.986155)
(-0.00060343 0.00276127 0.986295)
(-0.00288507 0.00274507 0.995099)
(-0.0031806 0.00260894 0.967679)
(0.00291735 0.00250144 0.99452)
(0.00244862 0.00250246 1.02103)
(0.000172016 0.00246573 1.01268)
(0.000606143 0.00244263 1.01256)
(-0.000238157 0.00240141 1.01228)
(-0.000470625 0.00235005 1.01219)
(-0.00128327 0.00228705 1.01227)
(-0.00070243 0.00220497 1.01219)
(-0.00303754 0.00214468 1.02101)
(-0.00330618 0.00197128 0.992855)
(0.00287817 0.00024865 0.986214)
(0.00241415 0.000235293 1.01259)
(0.0001554 0.000221189 1.00434)
(0.000575285 0.000192671 1.00423)
(-0.000276336 0.000157713 1.00398)
(-0.000518966 0.000111452 1.00391)
(-0.0013394 5.3082e-05 1.00402)
(-0.000770527 -1.07529e-05 1.004)
(-0.00311368 -8.20225e-05 1.01285)
(-0.00333855 -0.000215035 0.984631)
(0.00287947 0.000733845 0.986116)
(0.00240003 0.000724581 1.01248)
(0.000129392 0.000703305 1.00423)
(0.00054125 0.000674626 1.00411)
(-0.000321126 0.000636138 1.00385)
(-0.000574959 0.000587526 1.00376)
(-0.00140517 0.000528878 1.00385)
(-0.000840316 0.000464129 1.00378)
(-0.00321888 0.000401049 1.01269)
(-0.00341454 0.000275704 0.98415)
(0.00286502 -5.63217e-05 0.985918)
(0.00237865 -7.38111e-05 1.01223)
(0.000106781 -9.16144e-05 1.00399)
(0.000508116 -0.000118038 1.00386)
(-0.000363792 -0.000152725 1.00359)
(-0.000626596 -0.000194744 1.00349)
(-0.00146299 -0.000242579 1.00355)
(-0.000901814 -0.000291898 1.00346)
(-0.00329448 -0.000338898 1.0124)
(-0.00345864 -0.000412248 0.983645)
(0.00285631 -0.000239515 0.985918)
(0.00236196 -0.00025612 1.01219)
(8.66981e-05 -0.000270427 1.00397)
(0.000480459 -0.000291532 1.00383)
(-0.000397787 -0.000318588 1.00355)
(-0.000664865 -0.000348932 1.00343)
(-0.00150216 -0.000380022 1.00348)
(-0.000939001 -0.000407788 1.00338)
(-0.00333497 -0.000430884 1.01235)
(-0.00348195 -0.000451655 0.983481)
(0.00285399 -0.00100342 0.986112)
(0.00235123 -0.00102496 1.01236)
(7.06207e-05 -0.0010329 1.00414)
(0.000460184 -0.00104761 1.004)
(-0.000420998 -0.00106571 1.00371)
(-0.000687905 -0.00108403 1.0036)
(-0.00152142 -0.00109944 1.00364)
(-0.00095175 -0.00110854 1.00354)
(-0.00334216 -0.00111438 1.01253)
(-0.00348577 -0.00108721 0.983649)
(0.00283835 -0.000456626 0.986215)
(0.00233791 -0.000467995 1.01241)
(6.32696e-05 -0.000477236 1.00422)
(0.000447864 -0.000483723 1.00407)
(-0.00043398 -0.000494839 1.00378)
(-0.00069857 -0.000503905 1.00366)
(-0.0015264 -0.000508309 1.00371)
(-0.000952323 -0.000509254 1.00362)
(-0.00332075 -0.000499757 1.01261)
(-0.00346022 -0.000463502 0.983812)
(0.0028678 -0.00269974 0.994758)
(0.00235311 -0.0027227 1.02106)
(5.59208e-05 -0.00270836 1.0128)
(0.000444991 -0.0027188 1.01268)
(-0.000438629 -0.0027221 1.01239)
(-0.000701043 -0.00272539 1.01228)
(-0.00152618 -0.00272596 1.01234)
(-0.000941166 -0.00271153 1.01224)
(-0.00331829 -0.00271864 1.02131)
(-0.00347497 -0.00264916 0.99242)
(0.00282094 -0.00304125 0.967648)
(0.00232865 -0.00308508 0.993781)
(4.64802e-05 -0.00305654 0.98563)
(0.00042889 -0.00307007 0.985461)
(-0.000443824 -0.00306766 0.985166)
(-0.000699511 -0.00306823 0.985043)
(-0.00150763 -0.00307 0.985087)
(-0.000922063 -0.00305109 0.985036)
(-0.00326289 -0.00307532 0.993983)
(-0.00340315 -0.00299598 0.96543)
(0.00297189 0.0030176 0.962181)
(0.0024267 0.00305413 0.993213)
(0.000160706 0.00300232 0.983812)
(0.000661007 0.00299225 0.983698)
(-0.000274836 0.00295174 0.983552)
(-0.000412109 0.00290476 0.983625)
(-0.00131993 0.00284819 0.983913)
(-0.000639895 0.00275511 0.984169)
(-0.00292862 0.00270328 0.994399)
(-0.00332219 0.00246943 0.962197)
(0.00300908 0.00247762 0.993417)
(0.00242078 0.00247505 1.02453)
(0.000128697 0.00242735 1.01493)
(0.000617289 0.00239283 1.01476)
(-0.000353777 0.00233169 1.01445)
(-0.000521558 0.00225261 1.01433)
(-0.00147205 0.00215063 1.01437)
(-0.000814431 0.00201253 1.01427)
(-0.0032079 0.00188346 1.0245)
(-0.00354339 0.00154871 0.990932)
(0.00296066 0.000211583 0.98389)
(0.00237661 0.000193392 1.01482)
(0.000104621 0.000173102 1.00537)
(0.000572265 0.000132435 1.0052)
(-0.000411334 8.06262e-05 1.00494)
(-0.000598146 9.50729e-06 1.00487)
(-0.00156693 -8.45414e-05 1.00496)
(-0.000938854 -0.000196389 1.00493)
(-0.00338156 -0.000336002 1.01525)
(-0.00363907 -0.000612409 0.9815)
(0.00296071 0.000764259 0.983743)
(0.00235594 0.000750726 1.01465)
(6.78184e-05 0.000720635 1.0052)
(0.000522721 0.000679781 1.00503)
(-0.000479151 0.000623025 1.00475)
(-0.000686443 0.000549116 1.00464)
(-0.00167749 0.000456131 1.00469)
(-0.00107006 0.000345825 1.0046)
(-0.00359447 0.000224085 1.01502)
(-0.00378333 -2.33118e-05 0.980657)
(0.00294059 -0.000136137 0.983546)
(0.00232602 -0.000160204 1.01438)
(3.57409e-05 -0.000185044 1.00495)
(0.000474631 -0.000222589 1.00476)
(-0.00054252 -0.000272725 1.00446)
(-0.000765679 -0.000334772 1.00433)
(-0.00177041 -0.000407405 1.00434)
(-0.00117607 -0.000485042 1.00421)
(-0.00373895 -0.000565006 1.01469)
(-0.00386661 -0.000698586 0.979931)
(0.00292867 -0.000232532 0.983548)
(0.00230302 -0.000254441 1.01432)
(7.64324e-06 -0.000274444 1.00491)
(0.000435498 -0.000303709 1.00472)
(-0.000591203 -0.000341596 1.0044)
(-0.000821196 -0.000384147 1.00425)
(-0.00182744 -0.000427308 1.00424)
(-0.001231 -0.000463331 1.0041)
(-0.00380042 -0.00048966 1.01462)
(-0.00389863 -0.000505738 0.979709)
(0.00292575 -0.00110052 0.983747)
(0.00228858 -0.00112847 1.01449)
(-1.45156e-05 -0.00113921 1.00508)
(0.000407813 -0.00115939 1.00488)
(-0.000622648 -0.00118353 1.00456)
(-0.000851213 -0.00120702 1.00441)
(-0.00184893 -0.00122432 1.00439)
(-0.00123725 -0.00122655 1.00425)
(-0.00378494 -0.00121673 1.01482)
(-0.00388566 -0.00113453 0.97994)
(0.00290607 -0.00047083 0.983907)
(0.00227141 -0.000485998 1.01457)
(-2.44944e-05 -0.00049833 1.0052)
(0.000391472 -0.000506982 1.005)
(-0.000638502 -0.00052127 1.00468)
(-0.000861937 -0.000531388 1.00452)
(-0.00184654 -0.000532269 1.00451)
(-0.00122092 -0.000523267 1.00439)
(-0.00371714 -0.000491315 1.01495)
(-0.00382443 -0.000394053 0.980255)
(0.00294115 -0.00272359 0.99375)
(0.00228904 -0.00275033 1.02456)
(-3.39433e-05 -0.00273387 1.0151)
(0.000388612 -0.00274647 1.01493)
(-0.000643194 -0.00274918 1.01461)
(-0.00086129 -0.00275052 1.01446)
(-0.00183951 -0.00274593 1.01446)
(-0.00119272 -0.00271721 1.01433)
(-0.00368102 -0.00270771 1.02496)
(-0.00381839 -0.0025726 0.990194)
(0.00288526 -0.00316186 0.961839)
(0.00225949 -0.00321289 0.992425)
(-4.67455e-05 -0.00317904 0.983108)
(0.000368156 -0.00319534 0.982871)
(-0.000648108 -0.0031907 0.982544)
(-0.000856195 -0.0031893 0.982385)
(-0.0018084 -0.00318871 0.982382)
(-0.00115584 -0.00315826 0.982331)
(-0.00358109 -0.00317855 0.9928)
(-0.00370695 -0.00305237 0.958609)
(0.00303023 0.00307725 0.956455)
(0.00239301 0.00311627 0.992059)
(0.00013882 0.00305296 0.981515)
(0.000684958 0.00303535 0.981378)
(-0.000351521 0.00297741 0.981287)
(-0.00040313 0.00290686 0.981433)
(-0.00142465 0.0028166 0.981819)
(-0.000669418 0.00266859 0.982256)
(-0.00292982 0.00255535 0.993887)
(-0.00343364 0.00212769 0.95732)
(0.00306988 0.00243498 0.992303)
(0.00237947 0.00242684 1.02801)
(9.32373e-05 0.00236627 1.0172)
(0.000619308 0.00231595 1.01696)
(-0.000468941 0.00222783 1.01663)
(-0.00057077 0.0021094 1.01648)
(-0.00166527 0.00194802 1.01648)
(-0.000964558 0.00171965 1.01634)
(-0.0034493 0.00147303 1.02794)
(-0.0038045 0.000796625 0.988902)
(0.0030117 0.000175351 0.981599)
(0.00232426 0.000150651 1.01706)
(5.91014e-05 0.00012198 1.00644)
(0.0005554 6.5202e-05 1.00623)
(-0.000553536 -1.01813e-05 1.00597)
(-0.000689729 -0.000117378 1.00589)
(-0.00182336 -0.000266922 1.00597)
(-0.00118727 -0.000461112 1.00596)
(-0.00382261 -0.000717224 1.01777)
(-0.00405078 -0.00131933 0.978042)
(0.00300913 0.000777268 0.981403)
(0.00229447 0.000757494 1.01683)
(8.039e-06 0.000715997 1.00621)
(0.000484318 0.000658588 1.00599)
(-0.000654598 0.000576221 1.0057)
(-0.000827331 0.000465311 1.00559)
(-0.00200838 0.000318855 1.00559)
(-0.0014261 0.000132358 1.00549)
(-0.00424713 -8.68787e-05 1.01745)
(-0.00437105 -0.000601243 0.976357)
(0.00298208 -0.000224148 0.981216)
(0.00225364 -0.000256762 1.01653)
(-3.68661e-05 -0.000290846 1.00595)
(0.000415533 -0.000343447 1.00571)
(-0.000747492 -0.000414994 1.0054)
(-0.00094808 -0.000505635 1.00524)
(-0.0021565 -0.000615212 1.00519)
(-0.00160564 -0.000735363 1.00501)
(-0.00451288 -0.000863309 1.01709)
(-0.00455303 -0.00109577 0.975193)
(0.00296592 -0.000229192 0.981224)
(0.00222235 -0.000257871 1.01645)
(-7.56597e-05 -0.000285477 1.0059)