/*--------------------------------*- C++ -*----------------------------------*\
  =========                 |
  \\      /  F ield         | OpenFOAM: The Open Source CFD Toolbox
   \\    /   O peration     | Website:  https://openfoam.org
    \\  /    A nd           | Version:  6
     \\/     M anipulation  |
\*---------------------------------------------------------------------------*/
FoamFile
{
    version     2.0;
    format      ascii;
    class       surfaceScalarField;
    location    "0.074";
    object      phi;
}
// * * * * * * * * * * * * * * * * * * * * * * * * * * * * * * * * * * * * * //

dimensions      [0 3 -1 0 0 0 0];

internalField   nonuniform List<scalar> 
19500
(
1.15945e-09
2.79042e-09
1.67728e-05
6.66689e-09
3.19408e-09
3.43198e-05
1.47844e-08
2.14328e-09
4.4607e-05
2.213e-08
9.82478e-10
5.05573e-05
2.56736e-08
-1.40887e-10
5.33257e-05
2.37653e-08
-1.32236e-09
5.33442e-05
1.68979e-08
-2.70498e-09
5.06015e-05
7.95823e-09
-4.27951e-09
4.46491e-05
1.4441e-09
-5.61198e-09
3.43326e-05
-4.47319e-09
1.67578e-05
6.02926e-09
4.87714e-09
3.43335e-05
2.28811e-08
6.2883e-09
7.82661e-05
4.49923e-08
4.52866e-09
0.000106227
6.43264e-08
2.12748e-09
0.000122929
7.36437e-08
-3.81219e-10
0.000130792
6.89236e-08
-3.06723e-09
0.000130841
5.11778e-08
-6.09512e-09
0.000123046
2.71009e-08
-9.25427e-09
0.000106345
7.2573e-09
-1.12808e-08
7.83153e-05
-8.01372e-09
3.43126e-05
1.02804e-08
4.85304e-09
4.46368e-05
3.67178e-08
6.61979e-09
0.000106247
7.00325e-08
4.95802e-09
0.000147207
9.86263e-08
2.35811e-09
0.00017224
1.12299e-07
-4.98262e-10
0.000184152
1.05366e-07
-3.58764e-09
0.00018422
7.9154e-08
-6.98351e-09
0.000172405
4.30007e-08
-1.03175e-08
0.00014737
1.20974e-08
-1.20642e-08
0.000106313
-8.11147e-09
4.46046e-05
1.31699e-08
2.94233e-09
5.0593e-05
4.6191e-08
4.13258e-09
0.000122946
8.7171e-08
3.15864e-09
0.000172229
1.22015e-07
1.51071e-09
0.000202793
1.38546e-07
-3.50503e-10
0.000217444
1.30008e-07
-2.37382e-09
0.000217522
9.79706e-08
-4.56586e-09
0.00020298
5.35879e-08
-6.64371e-09
0.000172409
1.52586e-08
-7.59937e-09
0.000123009
-4.96334e-09
5.05451e-05
1.45875e-08
-7.3459e-14
5.33527e-05
5.09085e-08
-1.40319e-13
0.000130777
9.57468e-08
-1.58311e-13
0.00018409
1.33721e-07
-1.47972e-13
0.000217385
1.51655e-07
-1.35999e-13
0.000233406
1.42265e-07
-1.21846e-13
0.000233488
1.07266e-07
-9.69702e-14
0.00021758
5.87515e-08
-6.63023e-14
0.000184274
1.67577e-08
-3.91937e-14
0.000130833
-1.27713e-14
5.32939e-05
1.45875e-08
-2.9425e-09
5.33527e-05
5.09085e-08
-4.13285e-09
0.000130777
9.57468e-08
-3.15893e-09
0.00018409
1.33721e-07
-1.51098e-09
0.000217385
1.51655e-07
3.50251e-10
0.000233406
1.42265e-07
2.37359e-09
0.000233488
1.07266e-07
4.56566e-09
0.00021758
5.87515e-08
6.64356e-09
0.000184274
1.67577e-08
7.59927e-09
0.000130833
4.9633e-09
5.32939e-05
1.317e-08
-4.85329e-09
5.0593e-05
4.61911e-08
-6.62004e-09
0.000122946
8.71711e-08
-4.95823e-09
0.000172229
1.22015e-07
-2.35831e-09
0.000202793
1.38546e-07
4.98061e-10
0.000217444
1.30008e-07
3.58743e-09
0.000217522
9.79706e-08
6.98328e-09
0.00020298
5.35879e-08
1.03173e-08
0.000172409
1.52586e-08
1.20641e-08
0.000123009
8.1114e-09
5.05451e-05
1.02805e-08
-4.87759e-09
4.46368e-05
3.67179e-08
-6.28857e-09
0.000106247
7.00326e-08
-4.5288e-09
0.000147207
9.86264e-08
-2.1276e-09
0.00017224
1.12299e-07
3.81084e-10
0.000184152
1.05366e-07
3.06705e-09
0.00018422
7.9154e-08
6.09489e-09
0.000172405
4.30006e-08
9.254e-09
0.00014737
1.20974e-08
1.12805e-08
0.000106313
8.01361e-09
4.46046e-05
6.02967e-09
-2.79176e-09
3.43335e-05
2.28814e-08
-3.19443e-09
7.82661e-05
4.49924e-08
-2.14336e-09
0.000106227
6.43265e-08
-9.82524e-10
0.000122929
7.36437e-08
1.40832e-10
0.000130792
6.89236e-08
1.32227e-09
0.000130841
5.11777e-08
2.70485e-09
0.000123046
2.71008e-08
4.27935e-09
0.000106345
7.25731e-09
5.61182e-09
7.83153e-05
4.4731e-09
3.43126e-05
1.16084e-09
1.67728e-05
6.66734e-09
3.43198e-05
1.47846e-08
4.4607e-05
2.21301e-08
5.05573e-05
2.56736e-08
5.33257e-05
2.37652e-08
5.33442e-05
1.68978e-08
5.06015e-05
7.95815e-09
4.46491e-05
1.44412e-09
3.43326e-05
1.67578e-05
4.05836e-09
8.8967e-09
1.67599e-05
2.21397e-08
1.01598e-08
3.42916e-05
4.85927e-08
6.8111e-09
4.45738e-05
7.26975e-08
3.10585e-09
5.05301e-05
8.47675e-08
-5.06086e-10
5.33141e-05
7.92878e-08
-4.34264e-09
5.3354e-05
5.73924e-08
-8.86444e-09
5.06322e-05
2.79808e-08
-1.40504e-08
4.46925e-05
5.71516e-09
-1.85105e-08
3.43733e-05
-1.48166e-08
1.67783e-05
1.99683e-08
1.54991e-08
3.4307e-05
7.48612e-08
1.99569e-08
7.82014e-05
1.46725e-07
1.43643e-08
0.000106148
2.10061e-07
6.7248e-09
0.000122862
2.41679e-07
-1.30989e-09
0.000130761
2.28109e-07
-9.98446e-09
0.00013086
1.71535e-07
-1.98287e-08
0.000123114
9.26107e-08
-3.01738e-08
0.00010644
2.57354e-08
-3.693e-08
7.84006e-05
-2.63338e-08
3.43498e-05
3.37484e-08
1.53948e-08
4.46032e-05
1.19602e-07
2.09811e-08
0.00010616
2.27713e-07
1.57113e-08
0.000147098
3.21269e-07
7.45449e-09
0.000172146
3.67551e-07
-1.67178e-09
0.000184106
3.47497e-07
-1.16151e-08
0.000184242
2.63895e-07
-2.26122e-08
0.000172491
1.45594e-07
-3.34835e-08
0.000147492
4.20623e-08
-3.92915e-08
0.000106419
-2.65075e-08
4.46468e-05
4.30982e-08
9.32553e-09
5.0556e-05
1.50187e-07
1.30889e-08
0.000122847
2.83067e-07
1.00047e-08
0.000172101
3.96984e-07
4.77682e-09
0.000202681
4.52851e-07
-1.16187e-09
0.000217388
4.28006e-07
-7.66161e-09
0.000217543
3.25777e-07
-1.47439e-08
0.000203074
1.80682e-07
-2.15013e-08
0.000172543
5.26471e-08
-2.4675e-08
0.000123122
-1.61672e-08
5.05874e-05
4.76867e-08
-5.92391e-14
5.33143e-05
1.65416e-07
-1.2198e-13
0.000130672
3.10756e-07
-1.408e-13
0.000183954
4.3486e-07
-1.31532e-13
0.000217266
4.95421e-07
-1.19764e-13
0.000233344
4.68009e-07
-1.05482e-13
0.000233507
3.56299e-07
-8.1646e-14
0.000217677
1.9776e-07
-5.41447e-14
0.000184411
5.76565e-08
-3.12013e-14
0.000130949
-1.03124e-14
5.33354e-05
4.76867e-08
-9.32565e-09
5.33143e-05
1.65416e-07
-1.30891e-08
0.000130672
3.10756e-07
-1.0005e-08
0.000183954
4.3486e-07
-4.77705e-09
0.000217266
4.95421e-07
1.16165e-09
0.000233344
4.68009e-07
7.66141e-09
0.000233507
3.56299e-07
1.47437e-08
0.000217677
1.9776e-07
2.15012e-08
0.000184411
5.76565e-08
2.46749e-08
0.000130949
1.61672e-08
5.33354e-05
4.30982e-08
-1.53949e-08
5.0556e-05
1.50187e-07
-2.09812e-08
0.000122847
2.83067e-07
-1.57115e-08
0.000172101
3.96984e-07
-7.45466e-09
0.000202681
4.52851e-07
1.67161e-09
0.000217388
4.28006e-07
1.16149e-08
0.000217543
3.25777e-07
2.2612e-08
0.000203074
1.80682e-07
3.34833e-08
0.000172543
5.26471e-08
3.92914e-08
0.000123122
2.65074e-08
5.05874e-05
3.37484e-08
-1.54993e-08
4.46032e-05
1.19602e-07
-1.9957e-08
0.00010616
2.27713e-07
-1.43644e-08
0.000147098
3.21269e-07
-6.72488e-09
0.000172146
3.67551e-07
1.30979e-09
0.000184106
3.47497e-07
9.98432e-09
0.000184242
2.63895e-07
1.98285e-08
0.000172491
1.45594e-07
3.01736e-08
0.000147492
4.20623e-08
3.69297e-08
0.000106419
2.63337e-08
4.46468e-05
1.99685e-08
-8.89702e-09
3.4307e-05
7.48613e-08
-1.01599e-08
7.82014e-05
1.46725e-07
-6.81112e-09
0.000106148
2.10061e-07
-3.10587e-09
0.000122862
2.41679e-07
5.06045e-10
0.000130761
2.28108e-07
4.34256e-09
0.00013086
1.71535e-07
8.86432e-09
0.000123114
9.26106e-08
1.40503e-08
0.00010644
2.57354e-08
1.85104e-08
7.84006e-05
1.48166e-08
3.43498e-05
4.05874e-09
1.67599e-05
2.21399e-08
3.42916e-05
4.85928e-08
4.45738e-05
7.26975e-08
5.05301e-05
8.47674e-08
5.33141e-05
7.92877e-08
5.3354e-05
5.73923e-08
5.06322e-05
2.79807e-08
4.46925e-05
5.71516e-09
3.43733e-05
1.67783e-05
9.64079e-09
1.66452e-08
1.67336e-05
4.67722e-08
1.87951e-08
3.42357e-05
9.98662e-08
1.24537e-08
4.45082e-05
1.48675e-07
5.58818e-09
5.04757e-05
1.74738e-07
-1.09731e-09
5.32892e-05
1.66661e-07
-8.29008e-09
5.33704e-05
1.24904e-07
-1.69491e-08
5.06909e-05
6.50371e-08
-2.71562e-08
4.47795e-05
1.60456e-08
-3.64398e-08
3.44588e-05
-2.9624e-08
1.6824e-05
4.15848e-08
2.86706e-08
3.42533e-05
1.51266e-07
3.66078e-08
7.80739e-05
2.93539e-07
2.61316e-08
0.000105992
4.20469e-07
1.2105e-08
0.000122728
4.8786e-07
-2.61986e-09
0.000130695
4.67901e-07
-1.86892e-08
0.00013089
3.60711e-07
-3.72908e-08
0.000123241
2.02347e-07
-5.73935e-08
0.000106629
6.03021e-08
-7.13521e-08
7.85775e-05
-5.15838e-08
3.44321e-05
6.84165e-08
2.82763e-08
4.45351e-05
2.37864e-07
3.82762e-08
0.000105989
4.50209e-07
2.8485e-08
0.000146883
6.36445e-07
1.34241e-08
0.000171958
7.34287e-07
-3.1929e-09
0.000184009
7.04435e-07
-2.14696e-08
0.000184274
5.46583e-07
-4.20571e-08
0.000172654
3.11069e-07
-6.29657e-08
0.000147733
9.46831e-08
-7.49258e-08
0.000106639
-5.11857e-08
4.47411e-05
8.6386e-08
1.70616e-08
5.04808e-05
2.96387e-07
2.38052e-08
0.000122651
5.56155e-07
1.81042e-08
0.000171852
7.8195e-07
8.60599e-09
0.00020246
8.99447e-07
-2.16587e-09
0.000217269
8.61992e-07
-1.40587e-08
0.000217573
6.69344e-07
-2.72433e-08
0.000203252
3.81831e-07
-4.01563e-08
0.000172807
1.16505e-07
-4.66878e-08
0.000123359
-3.09547e-08
5.06836e-05
9.51547e-08
-4.4846e-14
5.32362e-05
3.25365e-07
-1.0181e-13
0.000130466
6.08865e-07
-1.19188e-13
0.000183689
8.54339e-07
-1.12827e-13
0.000217029
9.8139e-07
-1.03359e-13
0.000233215
9.39772e-07
-9.04026e-14
0.000233535
7.29449e-07
-6.79974e-14
0.00021786
4.15983e-07
-4.68899e-14
0.000184685
1.2674e-07
-2.91444e-14
0.000131191
-1.045e-14
5.34312e-05
9.51547e-08
-1.70617e-08
5.32362e-05
3.25365e-07
-2.38054e-08
0.000130466
6.08865e-07
-1.81044e-08
0.000183689
8.54339e-07
-8.60619e-09
0.000217029
9.8139e-07
2.16568e-09
0.000233215
9.39772e-07
1.40585e-08
0.000233535
7.29449e-07
2.72431e-08
0.00021786
4.15983e-07
4.01562e-08
0.000184685
1.2674e-07
4.66877e-08
0.000131191
3.09546e-08
5.34312e-05
8.6386e-08
-2.82764e-08
5.04808e-05
2.96387e-07
-3.82763e-08
0.000122651
5.56155e-07
-2.84852e-08
0.000171852
7.8195e-07
-1.34243e-08
0.00020246
8.99447e-07
3.19276e-09
0.000217269
8.61992e-07
2.14694e-08
0.000217573
6.69344e-07
4.20569e-08
0.000203252
3.81831e-07
6.29656e-08
0.000172807
1.16505e-07
7.49256e-08
0.000123359
5.11857e-08
5.06836e-05
6.84165e-08
-2.86707e-08
4.45351e-05
2.37864e-07
-3.66078e-08
0.000105989
4.50209e-07
-2.61316e-08
0.000146883
6.36445e-07
-1.2105e-08
0.000171958
7.34287e-07
2.61978e-09
0.000184009
7.04435e-07
1.8689e-08
0.000184274
5.46583e-07
3.72907e-08
0.000172654
3.11069e-07
5.73932e-08
0.000147733
9.46831e-08
7.13519e-08
0.000106639
5.15837e-08
4.47411e-05
4.15849e-08
-1.66452e-08
3.42533e-05
1.51266e-07
-1.8795e-08
7.80739e-05
2.93539e-07
-1.24537e-08
0.000105992
4.20469e-07
-5.58817e-09
0.000122728
4.8786e-07
1.09729e-09
0.000130695
4.67901e-07
8.29003e-09
0.00013089
3.60711e-07
1.6949e-08
0.000123241
2.02347e-07
2.71561e-08
0.000106629
6.03021e-08
3.64396e-08
7.85775e-05
2.9624e-08
3.44321e-05
9.64088e-09
1.67336e-05
4.67723e-08
3.42357e-05
9.98663e-08
4.45082e-05
1.48675e-07
5.04757e-05
1.74738e-07
5.32892e-05
1.66661e-07
5.33704e-05
1.24904e-07
5.06909e-05
6.50371e-08
4.47795e-05
1.60457e-08
3.44588e-05
1.6824e-05
2.00963e-08
2.71088e-08
1.66864e-05
8.7785e-08
3.01671e-08
3.41378e-05
1.82427e-07
1.96924e-08
4.43939e-05
2.70779e-07
8.6855e-09
5.03786e-05
3.22067e-07
-2.00053e-09
5.32399e-05
3.15156e-07
-1.36917e-08
5.3391e-05
2.46529e-07
-2.81942e-08
5.07877e-05
1.38198e-07
-4.59743e-08
4.49338e-05
4.03143e-08
-6.34244e-08
3.46201e-05
-5.2662e-08
1.6917e-05
7.68013e-08
4.60077e-08
3.41576e-05
2.70705e-07
5.81056e-08
7.78521e-05
5.20198e-07
4.10588e-08
0.000105721
7.47075e-07
1.88612e-08
0.000122491
8.77664e-07
-4.33445e-09
0.000130567
8.60437e-07
-2.99942e-08
0.000130924
6.85413e-07
-6.05404e-08
0.000123449
4.03411e-07
-9.4912e-08
0.00010696
1.30149e-07
-1.20868e-07
7.89082e-05
-8.91304e-08
3.45987e-05
1.22752e-07
4.4952e-08
4.44134e-05
4.18031e-07
6.03145e-08
0.000105692
7.86817e-07
4.45661e-08
0.000146511
1.11693e-06
2.09577e-08
0.000171626
1.30469e-06
-4.96782e-09
0.000183822
1.27744e-06
-3.38152e-08
0.000184305
1.02055e-06
-6.71554e-08
0.000172917
6.04972e-07
-1.02367e-07
0.000148156
1.96254e-07
-1.24487e-07
0.000107051
-8.66452e-08
4.49348e-05
1.53034e-07
2.69822e-08
5.03457e-05
5.16171e-07
3.73594e-08
0.000122311
9.64692e-07
2.82573e-08
0.00017142
1.36278e-06
1.3455e-08
0.00020207
1.5869e-06
-3.2555e-09
0.000217043
1.55095e-06
-2.1899e-08
0.000217597
1.238e-06
-4.30722e-08
0.000203541
7.33448e-07
-6.46121e-08
0.000173274
2.3722e-07
-7.66741e-08
0.000123808
-5.17548e-08
5.0886e-05
1.67705e-07
-3.39817e-14
5.30955e-05
5.64419e-07
-8.22458e-14
0.000130106
1.05257e-06
-9.70181e-14
0.000183229
1.48422e-06
-8.97305e-14
0.000216611
1.72586e-06
-7.85634e-14
0.00023297
1.68486e-06
-6.38493e-14
0.000233554
1.3435e-06
-4.23327e-14
0.000218159
7.94837e-07
-2.66239e-14
0.000185169
2.56254e-07
-2.02822e-14
0.000131653
-7.03603e-15
5.36357e-05
1.67705e-07
-2.69823e-08
5.30955e-05
5.64419e-07
-3.73595e-08
0.000130106
1.05257e-06
-2.82574e-08
0.000183229
1.48422e-06
-1.34552e-08
0.000216611
1.72586e-06
3.25536e-09
0.00023297
1.68486e-06
2.18989e-08
0.000233554
1.3435e-06
4.30722e-08
0.000218159
7.94837e-07
6.4612e-08
0.000185169
2.56254e-07
7.66741e-08
0.000131653
5.17548e-08
5.36357e-05
1.53034e-07
-4.49521e-08
5.03457e-05
5.16171e-07
-6.03146e-08
0.000122311
9.64692e-07
-4.45661e-08
0.00017142
1.36278e-06
-2.09578e-08
0.00020207
1.5869e-06
4.96772e-09
0.000217043
1.55095e-06
3.38151e-08
0.000217597
1.238e-06
6.71552e-08
0.000203541
7.33448e-07
1.02366e-07
0.000173274
2.3722e-07
1.24486e-07
0.000123808
8.66452e-08
5.0886e-05
1.22752e-07
-4.60077e-08
4.44134e-05
4.18031e-07
-5.81056e-08
0.000105692
7.86817e-07
-4.10587e-08
0.000146511
1.11693e-06
-1.88612e-08
0.000171626
1.30469e-06
4.33441e-09
0.000183822
1.27744e-06
2.99942e-08
0.000184305
1.02055e-06
6.05403e-08
0.000172917
6.04972e-07
9.49118e-08
0.000148156
1.96254e-07
1.20868e-07
0.000107051
8.91304e-08
4.49348e-05
7.68014e-08
-2.71088e-08
3.41576e-05
2.70705e-07
-3.0167e-08
7.78521e-05
5.20198e-07
-1.96924e-08
0.000105721
7.47075e-07
-8.68546e-09
0.000122491
8.77664e-07
2.00054e-09
0.000130567
8.60437e-07
1.36917e-08
0.000130924
6.85413e-07
2.81941e-08
0.000123449
4.03411e-07
4.59742e-08
0.00010696
1.30149e-07
6.34243e-08
7.89082e-05
5.26619e-08
3.45987e-05
2.00964e-08
1.66864e-05
8.7785e-08
3.41378e-05
1.82427e-07
4.43939e-05
2.70779e-07
5.03786e-05
3.22067e-07
5.32399e-05
3.15156e-07
5.3391e-05
2.46529e-07
5.07877e-05
1.38198e-07
4.49338e-05
4.03144e-08
3.46201e-05
1.6917e-05
3.80507e-08
4.12281e-08
1.66071e-05
1.53549e-07
4.51822e-08
3.39771e-05
3.12496e-07
2.90666e-08
4.42059e-05
4.64443e-07
1.26974e-08
5.0214e-05
5.61599e-07
-3.11045e-09
5.31458e-05
5.66811e-07
-2.07327e-08
5.34065e-05
4.65385e-07
-4.34033e-08
5.09326e-05
2.81635e-07
-7.25939e-08
4.51902e-05
9.47484e-08
-1.03941e-07
3.49109e-05
-8.84359e-08
1.71002e-05
1.32269e-07
6.88536e-08
3.39978e-05
4.53839e-07
8.59711e-08
7.74897e-05
8.66155e-07
6.02108e-08
0.000105278
1.25132e-06
2.7732e-08
0.000122091
1.4949e-06
-5.92958e-09
0.000130326
1.50638e-06
-4.36898e-08
0.000130935
1.24832e-06
-9.01723e-08
0.000123753
7.76616e-07
-1.45185e-07
0.000107504
2.72378e-07
-1.91072e-07
7.94996e-05
-1.44428e-07
3.49271e-05
2.06016e-07
6.65869e-08
4.42097e-05
6.88926e-07
8.85346e-08
0.000105206
1.29245e-06
6.50759e-08
0.000145902
1.84805e-06
3.09497e-08
0.000171067
2.19489e-06
-6.19591e-09
0.000183475
2.20559e-06
-4.79821e-08
0.000184299
1.82707e-06
-9.77612e-08
0.000173303
1.13769e-06
-1.52969e-07
0.000148853
3.96601e-07
-1.9171e-07
0.000107793
-1.36704e-07
4.53237e-05
2.53841e-07
3.97393e-08
5.01187e-05
8.43234e-07
5.45965e-08
0.000121756
1.5729e-06
4.11652e-08
0.000170714
2.23919e-06
1.99281e-08
0.000201414
2.65071e-06
-3.83337e-09
0.00021663
2.65685e-06
-3.05894e-08
0.000217574
2.19581e-06
-6.18416e-08
0.000203966
1.36315e-06
-9.51799e-08
0.000174049
4.71971e-07
-1.16224e-07
0.000124624
-8.03348e-08
5.13016e-05
2.7684e-07
-2.78919e-14
5.28584e-05
9.18537e-07
-7.01238e-14
0.000129519
1.71043e-06
-7.84412e-14
0.000182478
2.43095e-06
-6.59478e-14
0.00021591
2.87339e-06
-4.74408e-14
0.000232524
2.87591e-06
-2.24159e-14
0.000233521
2.37307e-06
6.43943e-15
0.0002186
1.46988e-06
1.40372e-14
0.000185977
5.06754e-07
7.84247e-15
0.0001325
4.99977e-15
5.40621e-05
2.7684e-07
-3.97394e-08
5.28584e-05
9.18537e-07
-5.45966e-08
0.000129519
1.71043e-06
-4.11653e-08
0.000182478
2.43095e-06
-1.99282e-08
0.00021591
2.87339e-06
3.83329e-09
0.000232524
2.87591e-06
3.05893e-08
0.000233521
2.37307e-06
6.18416e-08
0.0002186
1.46988e-06
9.518e-08
0.000185977
5.06754e-07
1.16224e-07
0.0001325
8.03348e-08
5.40621e-05
2.53841e-07
-6.6587e-08
5.01187e-05
8.43234e-07
-8.85346e-08
0.000121756
1.5729e-06
-6.5076e-08
0.000170714
2.23919e-06
-3.09497e-08
0.000201414
2.65071e-06
6.19586e-09
0.00021663
2.65685e-06
4.79821e-08
0.000217574
2.19581e-06
9.77612e-08
0.000203966
1.36315e-06
1.52969e-07
0.000174049
4.71972e-07
1.9171e-07
0.000124624
1.36704e-07
5.13016e-05
2.06016e-07
-6.88536e-08
4.42097e-05
6.88926e-07
-8.59711e-08
0.000105206
1.29245e-06
-6.02108e-08
0.000145902
1.84805e-06
-2.7732e-08
0.000171067
2.19489e-06
5.92958e-09
0.000183475
2.20559e-06
4.36898e-08
0.000184299
1.82707e-06
9.01722e-08
0.000173303
1.13769e-06
1.45185e-07
0.000148853
3.96602e-07
1.91072e-07
0.000107793
1.44428e-07
4.53237e-05
1.32269e-07
-4.12281e-08
3.39978e-05
4.53839e-07
-4.51821e-08
7.74897e-05
8.66155e-07
-2.90665e-08
0.000105278
1.25132e-06
-1.26973e-08
0.000122091
1.4949e-06
3.11051e-09
0.000130326
1.50638e-06
2.07327e-08
0.000130935
1.24832e-06
4.34033e-08
0.000123753
7.76616e-07
7.2594e-08
0.000107504
2.72379e-07
1.03941e-07
7.94996e-05
8.84359e-08
3.49271e-05
3.80507e-08
1.66071e-05
1.53549e-07
3.39771e-05
3.12496e-07
4.42059e-05
4.64443e-07
5.0214e-05
5.61599e-07
5.31458e-05
5.66811e-07
5.34065e-05
4.65385e-07
5.09326e-05
2.81635e-07
4.51902e-05
9.47485e-08
3.49109e-05
1.71002e-05
6.63252e-08
5.95825e-08
1.64812e-05
2.52761e-07
6.43673e-08
3.37263e-05
5.07434e-07
4.0946e-08
4.39103e-05
7.59004e-07
1.80322e-08
4.99444e-05
9.37843e-07
-3.85939e-09
5.29709e-05
9.82004e-07
-2.86733e-08
5.3391e-05
8.51794e-07
-6.19134e-08
5.11247e-05
5.59347e-07
-1.07266e-07
4.55899e-05
2.14897e-07
-1.61115e-07
3.54165e-05
-1.40285e-07
1.74554e-05
2.14544e-07
9.79182e-08
3.37449e-05
7.20864e-07
1.20988e-07
7.69268e-05
1.37171e-06
8.43151e-08
0.000104584
2.00145e-06
3.97346e-08
0.00012144
2.44316e-06
-5.75302e-09
0.000129887
2.54593e-06
-5.72519e-08
0.000130861
2.21166e-06
-1.22953e-07
0.000124149
1.46771e-06
-2.05462e-07
0.000108346
5.64498e-07
-2.82339e-07
8.0524e-05
-2.19273e-07
3.55706e-05
3.26995e-07
9.37246e-08
4.38869e-05
1.07782e-06
1.23618e-07
0.000104453
2.02174e-06
9.07916e-08
0.000144952
2.9225e-06
4.46425e-08
0.000170162
3.54572e-06
-4.73231e-09
0.000182851
3.67936e-06
-6.05323e-08
0.000184169
3.18589e-06
-1.29097e-07
0.000173803
2.10537e-06
-2.09606e-07
0.000149938
7.98547e-07
-2.73479e-07
0.000109091
-2.00625e-07
4.61036e-05
3.98847e-07
5.5613e-08
4.9758e-05
1.30889e-06
7.58985e-08
0.000120893
2.44365e-06
5.73205e-08
0.000169613
3.51809e-06
2.88678e-08
0.000200356
4.25351e-06
-2.40746e-09
0.000215892
4.39957e-06
-3.76949e-08
0.000217405
3.79609e-06
-8.00719e-08
0.00020452
2.49643e-06
-1.27838e-07
0.000175267
9.38372e-07
-1.62253e-07
0.00012607
-1.15424e-07
5.21547e-05
4.33169e-07
-2.39425e-14
5.24809e-05
1.42087e-06
-5.8656e-14
0.000128608
2.64912e-06
-5.99166e-14
0.000181307
3.80798e-06
-3.62462e-14
0.00021478
4.59667e-06
-4.27159e-16
0.000231733
4.7464e-06
4.54001e-14
0.000233334
4.08702e-06
9.0416e-14
0.000219179
2.68018e-06
1.1131e-13
0.000187256
1.00274e-06
8.10314e-14
0.000134015
3.98313e-14
5.49495e-05
4.33169e-07
-5.5613e-08
5.24809e-05
1.42087e-06
-7.58986e-08
0.000128608
2.64912e-06
-5.73206e-08
0.000181307
3.80798e-06
-2.88678e-08
0.00021478
4.59667e-06
2.40747e-09
0.000231733
4.7464e-06
3.7695e-08
0.000233334
4.08702e-06
8.0072e-08
0.000219179
2.68018e-06
1.27838e-07
0.000187256
1.00274e-06
1.62253e-07
0.000134015
1.15424e-07
5.49495e-05
3.98847e-07
-9.37246e-08
4.9758e-05
1.30889e-06
-1.23618e-07
0.000120893
2.44365e-06
-9.07916e-08
0.000169613
3.51809e-06
-4.46425e-08
0.000200356
4.25351e-06
4.73234e-09
0.000215892
4.39957e-06
6.05324e-08
0.000217405
3.79609e-06
1.29097e-07
0.00020452
2.49643e-06
2.09606e-07
0.000175267
9.38372e-07
2.73479e-07
0.00012607
2.00625e-07
5.21547e-05
3.26995e-07
-9.79182e-08
4.38869e-05
1.07782e-06
-1.20987e-07
0.000104453
2.02174e-06
-8.4315e-08
0.000144952
2.9225e-06
-3.97345e-08
0.000170162
3.54572e-06
5.7531e-09
0.000182851
3.67936e-06
5.7252e-08
0.000184169
3.18589e-06
1.22953e-07
0.000173803
2.10537e-06
2.05462e-07
0.000149938
7.98547e-07
2.82339e-07
0.000109091
2.19273e-07
4.61036e-05
2.14544e-07
-5.95825e-08
3.37449e-05
7.20864e-07
-6.43672e-08
7.69268e-05
1.37171e-06
-4.09459e-08
0.000104584
2.00145e-06
-1.80321e-08
0.00012144
2.44316e-06
3.8595e-09
0.000129887
2.54593e-06
2.86734e-08
0.000130861
2.21166e-06
6.19135e-08
0.000124149
1.46771e-06
1.07266e-07
0.000108346
5.64499e-07
1.61115e-07
8.0524e-05
1.40285e-07
3.55706e-05
6.63252e-08
1.64812e-05
2.52761e-07
3.37263e-05
5.07434e-07
4.39103e-05
7.59004e-07
4.99444e-05
9.37843e-07
5.29709e-05
9.82005e-07
5.3391e-05
8.51794e-07
5.11247e-05
5.59347e-07
4.55899e-05
2.14897e-07
3.54165e-05
1.74554e-05
1.07142e-07
8.20129e-08
1.6292e-05
3.91913e-07
8.75242e-08
3.3354e-05
7.81331e-07
5.53921e-08
4.34655e-05
1.18236e-06
2.52966e-08
4.95181e-05
1.50132e-06
-2.7826e-09
5.26547e-05
1.64211e-06
-3.47812e-08
5.3285e-05
1.51749e-06
-7.93785e-08
5.13287e-05
1.09072e-06
-1.44421e-07
4.61611e-05
4.78633e-07
-2.30622e-07
3.62592e-05
-2.02568e-07
1.81366e-05
3.27896e-07
1.3272e-07
3.33663e-05
1.08485e-06
1.62603e-07
7.60947e-05
2.06652e-06
1.13465e-07
0.000103544
3.05823e-06
5.62659e-08
0.000120417
3.83474e-06
-2.85681e-10
0.000129108
4.16158e-06
-6.38966e-08
0.000130563
3.8256e-06
-1.47654e-07
0.000124553
2.74048e-06
-2.60188e-07
0.000109547
1.17104e-06
-3.78583e-07
8.22414e-05
-3.00708e-07
3.68397e-05
4.90856e-07
1.25794e-07
4.3403e-05
1.60088e-06
1.64915e-07
0.000103341
3.0124e-06
1.21824e-07
0.000143532
4.41951e-06
6.36827e-08
0.000168747
5.50578e-06
3.60326e-09
0.000181761
5.94194e-06
-6.33354e-08
0.000183732
5.43104e-06
-1.47538e-07
0.000174314
3.85933e-06
-2.52914e-07
0.000151502
1.61936e-06
-3.48564e-07
0.000111301
-2.63157e-07
4.76854e-05
5.93621e-07
7.42328e-08
4.92159e-05
1.93073e-06
1.00844e-07
0.00011962
3.6188e-06
7.68029e-08
0.00016797
5.2887e-06
4.1369e-08
0.000198708
6.56426e-06
3.80257e-09
0.000214616
7.0571e-06
-3.77986e-08
0.000216886
6.42146e-06
-8.86571e-08
0.000205097
4.53564e-06
-1.49546e-07
0.000177049
1.8849e-06
-2.0024e-07
0.000128573
-1.46979e-07
5.39235e-05
6.42421e-07
-2.18482e-14
5.19127e-05
2.08959e-06
-5.13535e-14
0.000127261
3.91222e-06
-4.18553e-14
0.000179561
5.70899e-06
-4.37287e-15
0.000213025
7.07393e-06
5.20368e-14
0.000230372
7.59034e-06
1.26985e-13
0.000232779
6.89049e-06
2.08268e-13
0.00021979
4.85194e-06
2.51537e-13
0.000189145
2.00735e-06
2.0197e-13
0.00013666
1.11516e-13
5.68098e-05
6.42421e-07
-7.42329e-08
5.19127e-05
2.08959e-06
-1.00844e-07
0.000127261
3.91222e-06
-7.6803e-08
0.000179561
5.70899e-06
-4.1369e-08
0.000213025
7.07393e-06
-3.80246e-09
0.000230372
7.59034e-06
3.77989e-08
0.000232779
6.89049e-06
8.86575e-08
0.00021979
4.85194e-06
1.49546e-07
0.000189145
2.00735e-06
2.0024e-07
0.00013666
1.46979e-07
5.68098e-05
5.93621e-07
-1.25794e-07
4.92159e-05
1.93073e-06
-1.64915e-07
0.00011962
3.6188e-06
-1.21824e-07
0.00016797
5.2887e-06
-6.36827e-08
0.000198708
6.56426e-06
-3.60312e-09
0.000214616
7.0571e-06
6.33356e-08
0.000216886
6.42146e-06
1.47538e-07
0.000205097
4.53564e-06
2.52914e-07
0.000177049
1.8849e-06
3.48564e-07
0.000128573
2.63157e-07
5.39235e-05
4.90856e-07
-1.3272e-07
4.3403e-05
1.60088e-06
-1.62603e-07
0.000103341
3.0124e-06
-1.13465e-07
0.000143532
4.41951e-06
-5.62658e-08
0.000168747
5.50578e-06
2.85872e-10
0.000181761
5.94194e-06
6.38969e-08
0.000183732
5.43104e-06
1.47655e-07
0.000174314
3.85933e-06
2.60189e-07
0.000151502
1.61936e-06
3.78583e-07
0.000111301
3.00708e-07
4.76854e-05
3.27896e-07
-8.20129e-08
3.33663e-05
1.08485e-06
-8.75241e-08
7.60947e-05
2.06652e-06
-5.5392e-08
0.000103544
3.05823e-06
-2.52965e-08
0.000120417
3.83474e-06
2.7828e-09
0.000129108
4.16158e-06
3.47814e-08
0.000130563
3.8256e-06
7.93788e-08
0.000124553
2.74048e-06
1.44422e-07
0.000109547
1.17104e-06
2.30622e-07
8.22414e-05
2.02568e-07
3.68397e-05
1.07142e-07
1.6292e-05
3.91913e-07
3.3354e-05
7.81331e-07
4.34655e-05
1.18236e-06
4.95181e-05
1.50132e-06
5.26547e-05
1.64211e-06
5.3285e-05
1.51749e-06
5.13287e-05
1.09072e-06
4.61611e-05
4.78633e-07
3.62592e-05
1.81366e-05
1.60545e-07
1.0713e-07
1.60243e-05
5.70371e-07
1.13279e-07
3.28309e-05
1.13574e-06
7.19297e-08
4.28282e-05
1.74746e-06
3.52699e-08
4.88711e-05
2.29345e-06
2.78823e-09
5.21059e-05
2.64078e-06
-3.32746e-08
5.29709e-05
2.62759e-06
-8.50464e-08
5.14269e-05
2.09285e-06
-1.6692e-07
4.68628e-05
1.04651e-06
-2.90891e-07
3.75964e-05
-2.50308e-07
1.94334e-05
4.70357e-07
1.70901e-07
3.28321e-05
1.53959e-06
2.08177e-07
7.49306e-05
2.94679e-06
1.46628e-07
0.000102062
4.44144e-06
7.88726e-08
0.000118879
5.75223e-06
1.61152e-08
0.000127784
6.55284e-06
-5.10536e-08
0.00012978
6.4494e-06
-1.40429e-07
0.000124712
5.06552e-06
-2.70196e-07
0.000111034
2.42828e-06
-4.28411e-07
8.50162e-05
-3.44894e-07
3.93626e-05
6.93669e-07
1.60526e-07
4.27197e-05
2.24625e-06
2.09731e-07
0.000101786
4.25355e-06
1.57064e-07
0.000141514
6.35782e-06
8.97344e-08
0.000166632
8.17663e-06
2.50058e-08
0.000179933
9.25104e-06
-4.24655e-08
0.000182649
9.03394e-06
-1.26501e-07
0.000174517
7.01977e-06
-2.38875e-07
0.000153485
3.30146e-06
-3.58695e-07
0.000114949
-2.78183e-07
5.09202e-05
8.32898e-07
9.42542e-08
4.84493e-05
2.69293e-06
1.27787e-07
0.000117842
5.08201e-06
9.89175e-08
0.000165639
7.56746e-06
5.8481e-08
0.000196254
9.69375e-06
1.87322e-08
0.000212496
1.09194e-05
-2.20341e-08
0.00021564
1.06078e-05
-7.06724e-08
0.000205353
8.18869e-06
-1.32298e-07
0.000179362
3.81769e-06
-1.93177e-07
0.000132778
-1.46465e-07
5.76094e-05
8.98688e-07
-1.74023e-14
5.11082e-05
2.90688e-06
-3.67258e-14
0.000125381
5.48066e-06
-1.48056e-14
0.000177087
8.14899e-06
4.41949e-14
0.000210415
1.04199e-05
1.30851e-13
0.000228119
1.17125e-05
2.36913e-13
0.000231465
1.13494e-05
3.69468e-13
0.000220083
8.73429e-06
4.31845e-13
0.000191628
4.05694e-06
4.34904e-13
0.000141144
2.58659e-13
6.07203e-05
8.98688e-07
-9.42543e-08
5.11082e-05
2.90688e-06
-1.27787e-07
0.000125381
5.48066e-06
-9.89175e-08
0.000177087
8.14899e-06
-5.84809e-08
0.000210415
1.04199e-05
-1.8732e-08
0.000228119
1.17125e-05
2.20346e-08
0.000231465
1.13494e-05
7.06731e-08
0.000220083
8.73429e-06
1.32299e-07
0.000191628
4.05694e-06
1.93178e-07
0.000141144
1.46465e-07
6.07203e-05
8.32898e-07
-1.60526e-07
4.84493e-05
2.69293e-06
-2.09731e-07
0.000117842
5.08201e-06
-1.57064e-07
0.000165639
7.56746e-06
-8.97342e-08
0.000196254
9.69375e-06
-2.50055e-08
0.000212496
1.09194e-05
4.2466e-08
0.00021564
1.06078e-05
1.26502e-07
0.000205353
8.18869e-06
2.38876e-07
0.000179362
3.81769e-06
3.58696e-07
0.000132778
2.78184e-07
5.76094e-05
6.93669e-07
-1.70901e-07
4.27197e-05
2.24625e-06
-2.08176e-07
0.000101786
4.25355e-06
-1.46628e-07
0.000141514
6.35782e-06
-7.88723e-08
0.000166632
8.17663e-06
-1.61149e-08
0.000179933
9.25104e-06
5.10541e-08
0.000182649
9.03394e-06
1.4043e-07
0.000174517
7.01977e-06
2.70197e-07
0.000153485
3.30146e-06
4.28412e-07
0.000114949
3.44895e-07
5.09202e-05
4.70357e-07
-1.07129e-07
3.28321e-05
1.53959e-06
-1.13279e-07
7.49306e-05
2.94679e-06
-7.19295e-08
0.000102062
4.44144e-06
-3.52697e-08
0.000118879
5.75223e-06
-2.78792e-09
0.000127784
6.55284e-06
3.32751e-08
0.00012978
6.4494e-06
8.50469e-08
0.000124712
5.06552e-06
1.66921e-07
0.000111034
2.42828e-06
2.90892e-07
8.50162e-05
2.50308e-07
3.93626e-05
1.60545e-07
1.60243e-05
5.70371e-07
3.28309e-05
1.13574e-06
4.28282e-05
1.74746e-06
4.88711e-05
2.29345e-06
5.21059e-05
2.64078e-06
5.29709e-05
2.62759e-06
5.14269e-05
2.09285e-06
4.68628e-05
1.04651e-06
3.75964e-05
1.94334e-05
2.22103e-07
1.31862e-07
1.56704e-05
7.7318e-07
1.38645e-07
3.21412e-05
1.545e-06
8.92007e-08
4.19671e-05
2.42749e-06
4.85127e-08
4.79401e-05
3.31163e-06
1.62577e-08
5.12055e-05
4.04958e-06
-1.56736e-08
5.22487e-05
4.40521e-06
-6.12164e-08
5.11325e-05
4.00118e-06
-1.42679e-07
4.74095e-05
2.38003e-06
-2.92127e-07
3.95097e-05
-2.57064e-07
2.20705e-05
6.28399e-07
2.07661e-07
3.21279e-05
2.04289e-06
2.52284e-07
7.34025e-05
3.94092e-06
1.80906e-07
0.000100072
6.07078e-06
1.08237e-07
0.000116689
8.16274e-06
4.98468e-08
0.000125658
9.84583e-06
-1.39793e-09
0.000128083
1.05406e-05
-6.23018e-08
0.000124018
9.36082e-06
-1.57078e-07
0.000112228
5.3072e-06
-2.99232e-07
8.90769e-05
-2.31013e-07
4.46438e-05
9.15307e-07
1.93494e-07
4.18185e-05
2.95152e-06
2.52669e-07
9.97499e-05
5.63901e-06
1.93333e-07
0.000138814
8.61496e-06
1.23132e-07
0.000163641
1.14945e-05
6.55873e-08
0.000177038
1.37505e-05
1.93615e-08
0.000180372
1.45758e-05
-2.63318e-08
0.000173656
1.27768e-05
-8.67651e-08
0.000155214
7.11035e-06
-1.67556e-07
0.000120484
-1.18131e-07
5.79177e-05
1.09248e-06
1.13111e-07
4.74372e-05
3.52036e-06
1.53467e-07
0.000115514
6.70515e-06
1.21637e-07
0.000162526
1.02047e-05
8.02602e-08
0.000192797
1.35571e-05
4.59105e-08
0.000209163
1.61379e-05
1.98447e-08
0.000213059
1.70066e-05
-2.44761e-09
0.00020446
1.48049e-05
-2.7928e-08
0.000181505
8.17871e-06
-6.02789e-08
0.000139297
-3.84432e-08
6.57085e-05
1.17587e-06
-9.72092e-15
5.00455e-05
3.79162e-06
-1.67695e-14
0.000122919
7.21577e-06
2.2165e-14
0.000173784
1.09652e-05
1.0019e-13
0.000206746
1.45395e-05
2.04002e-13
0.000224591
1.72676e-05
3.33929e-13
0.000228756
1.81485e-05
4.78053e-13
0.000219199
1.57517e-05
5.90602e-13
0.000193996
8.67741e-06
6.91007e-13
0.000148158
4.01567e-13
6.93593e-05
1.17587e-06
-1.13111e-07
5.00455e-05
3.79162e-06
-1.53467e-07
0.000122919
7.21577e-06
-1.21637e-07
0.000173784
1.09652e-05
-8.026e-08
0.000206746
1.45395e-05
-4.59101e-08
0.000224591
1.72676e-05
-1.9844e-08
0.000228756
1.81485e-05
2.44862e-09
0.000219199
1.57517e-05
2.79293e-08
0.000193996
8.67741e-06
6.02802e-08
0.000148158
3.8444e-08
6.93593e-05
1.09248e-06
-1.93494e-07
4.74372e-05
3.52036e-06
-2.52669e-07
0.000115514
6.70515e-06
-1.93333e-07
0.000162526
1.02047e-05
-1.23132e-07
0.000192797
1.35571e-05
-6.55869e-08
0.000209163