/*--------------------------------*- C++ -*----------------------------------*\
  =========                 |
  \\      /  F ield         | OpenFOAM: The Open Source CFD Toolbox
   \\    /   O peration     | Website:  https://openfoam.org
    \\  /    A nd           | Version:  6
     \\/     M anipulation  |
\*---------------------------------------------------------------------------*/
FoamFile
{
    version     2.0;
    format      ascii;
    class       volVectorField;
    location    "0.074";
    object      U;
}
// * * * * * * * * * * * * * * * * * * * * * * * * * * * * * * * * * * * * * //

dimensions      [0 1 -1 0 0 0 0];

internalField   nonuniform List<vector> 
7000
(
(-3.78359e-06 1.14192e-05 0.167764)
(3.10745e-05 1.12812e-05 0.34328)
(0.000105291 6.7375e-06 0.446168)
(0.000190456 2.92348e-06 0.505652)
(0.000250728 -3.5754e-07 0.53329)
(0.000260583 -3.67435e-06 0.533412)
(0.000212867 -7.76977e-06 0.505924)
(0.000124857 -1.30361e-05 0.446366)
(3.87404e-05 -1.92756e-05 0.343211)
(-5.21745e-06 -1.77253e-05 0.167524)
(5.5106e-06 4.21314e-05 0.343414)
(0.000124819 5.2799e-05 0.782854)
(0.000335779 3.70627e-05 1.06251)
(0.00056322 1.72468e-05 1.22949)
(0.000721289 -2.68466e-06 1.30801)
(0.000748751 -2.38545e-05 1.30834)
(0.000627051 -4.82139e-05 1.23026)
(0.000394945 -7.48032e-05 1.06317)
(0.000151606 -9.3884e-05 0.782905)
(5.97243e-06 -6.8792e-05 0.343021)
(1.32497e-05 5.27703e-05 0.446469)
(0.000207166 7.12251e-05 1.06274)
(0.000530067 5.27598e-05 1.4724)
(0.000868797 2.50052e-05 1.72269)
(0.00110126 -4.98439e-06 1.84165)
(0.00114148 -3.73141e-05 1.84213)
(0.000962624 -7.31748e-05 1.72378)
(0.000617698 -0.000109117 1.47334)
(0.000246945 -0.000129179 1.06282)
(1.42086e-05 -8.78119e-05 0.445924)
(1.82103e-05 4.2079e-05 0.506042)
(0.000263522 5.91133e-05 1.22976)
(0.000663338 4.50945e-05 1.72267)
(0.00107768 2.15528e-05 2.02826)
(0.0013598 -4.93686e-06 2.17461)
(0.00140755 -3.37138e-05 2.17515)
(0.001189 -6.49622e-05 2.02951)
(0.000766981 -9.47257e-05 1.7237)
(0.000309838 -0.000108604 1.22976)
(1.90706e-05 -7.09293e-05 0.505327)
(2.04622e-05 1.58249e-05 0.533643)
(0.000291412 2.26347e-05 1.30809)
(0.00072994 1.74906e-05 1.84131)
(0.00118228 8.38588e-06 2.17421)
(0.00148911 -2.04889e-06 2.33424)
(0.00154021 -1.34219e-05 2.33481)
(0.00130127 -2.56481e-05 2.17551)
(0.000840311 -3.70163e-05 1.84233)
(0.000340092 -4.18365e-05 1.30799)
(2.10511e-05 -2.68345e-05 0.532818)
(2.04623e-05 -1.58264e-05 0.533643)
(0.000291412 -2.26375e-05 1.30809)
(0.000729941 -1.74938e-05 1.84131)
(0.00118228 -8.38887e-06 2.17421)
(0.00148911 2.04618e-06 2.33424)
(0.00154021 1.34195e-05 2.33481)
(0.00130127 2.56462e-05 2.17551)
(0.000840311 3.7015e-05 1.84233)
(0.000340092 4.18357e-05 1.30799)
(2.10511e-05 2.68343e-05 0.532818)
(1.82104e-05 -4.20809e-05 0.506042)
(0.000263523 -5.91158e-05 1.22976)
(0.000663339 -4.5097e-05 1.72267)
(0.00107768 -2.15552e-05 2.02826)
(0.0013598 4.93451e-06 2.17461)
(0.00140755 3.37115e-05 2.17515)
(0.001189 6.49601e-05 2.02951)
(0.00076698 9.47239e-05 1.7237)
(0.000309837 0.000108602 1.22976)
(1.90706e-05 7.09288e-05 0.505327)
(1.32502e-05 -5.27738e-05 0.446469)
(0.000207168 -7.12275e-05 1.06274)
(0.000530069 -5.27616e-05 1.4724)
(0.000868798 -2.50068e-05 1.72269)
(0.00110126 4.98269e-06 1.84165)
(0.00114148 3.73121e-05 1.84213)
(0.000962623 7.31723e-05 1.72378)
(0.000617698 0.000109114 1.47334)
(0.000246945 0.000129176 1.06282)
(1.42086e-05 8.78109e-05 0.445924)
(5.51354e-06 -4.2141e-05 0.343414)
(0.000124823 -5.28026e-05 0.782854)
(0.000335782 -3.70641e-05 1.06251)
(0.000563221 -1.72477e-05 1.22949)
(0.00072129 2.68364e-06 1.30801)
(0.000748751 2.3853e-05 1.30834)
(0.00062705 4.82118e-05 1.23026)
(0.000394944 7.48007e-05 1.06317)
(0.000151606 9.38816e-05 0.782905)
(5.9726e-06 6.87908e-05 0.343021)
(-3.77515e-06 -1.14272e-05 0.167764)
(3.10844e-05 -1.12835e-05 0.34328)
(0.000105294 -6.73751e-06 0.446168)
(0.000190457 -2.92343e-06 0.505652)
(0.000250728 3.57479e-07 0.53329)
(0.000260583 3.67408e-06 0.533412)
(0.000212866 7.76914e-06 0.505924)
(0.000124856 1.3035e-05 0.446366)
(3.87402e-05 1.92746e-05 0.343211)
(-5.21733e-06 1.77247e-05 0.167524)
(-1.08688e-05 3.63245e-05 0.167685)
(0.000105247 3.59055e-05 0.343107)
(0.00034714 2.14704e-05 0.445964)
(0.000624838 9.2466e-06 0.505487)
(0.000824618 -1.37975e-06 0.533222)
(0.000863813 -1.22552e-05 0.533477)
(0.000715713 -2.57562e-05 0.506116)
(0.000430728 -4.31339e-05 0.446631)
(0.000143226 -6.38726e-05 0.343455)
(-1.36852e-05 -5.84407e-05 0.167644)
(1.9825e-05 0.000134088 0.343252)
(0.000410952 0.000167764 0.782458)
(0.0010957 0.000117645 1.06203)
(0.00183594 5.45085e-05 1.22908)
(0.00235886 -9.45051e-06 1.30783)
(0.00246566 -7.80112e-05 1.30847)
(0.00208758 -0.000157464 1.23068)
(0.00133708 -0.000244832 1.06375)
(0.000529802 -0.00030863 0.783414)
(2.627e-05 -0.000227049 0.343237)
(4.50861e-05 0.000167524 0.446265)
(0.000677508 0.000225854 1.0622)
(0.0017236 0.000167241 1.47173)
(0.00282477 7.90297e-05 1.72211)
(0.00359276 -1.6876e-05 1.84138)
(0.00374794 -0.000121065 1.84228)
(0.00319128 -0.000237376 1.72432)
(0.00207653 -0.000354786 1.47408)
(0.000850368 -0.000421599 1.06345)
(5.46708e-05 -0.000287662 0.446166)
(6.12528e-05 0.000133394 0.505819)
(0.000859617 0.000187252 1.22915)
(0.00215368 0.000142841 1.72189)
(0.00349976 6.8141e-05 2.02758)
(0.00443091 -1.64052e-05 2.17427)
(0.00461471 -0.000108888 2.1753)
(0.00393342 -0.0002099 2.0301)
(0.00256974 -0.000306755 1.72451)
(0.00106038 -0.00035289 1.23043)
(7.12909e-05 -0.000231255 0.505567)
(6.86211e-05 5.014e-05 0.533413)
(0.000949739 7.16715e-05 1.30745)
(0.00236857 5.5394e-05 1.84048)
(0.00383767 2.65245e-05 2.17349)
(0.0048499 -6.75145e-06 2.33388)
(0.00504652 -4.32558e-05 2.33495)
(0.00430101 -8.27166e-05 2.17611)
(0.00281156 -0.000119643 1.84316)
(0.00116117 -0.000135655 1.30868)
(7.80929e-05 -8.72942e-05 0.53305)
(6.86211e-05 -5.01412e-05 0.533413)
(0.000949739 -7.16739e-05 1.30745)
(0.00236857 -5.53968e-05 1.84048)
(0.00383767 -2.65271e-05 2.17349)
(0.0048499 6.74907e-06 2.33388)
(0.00504652 4.32537e-05 2.33495)
(0.00430101 8.2715e-05 2.17611)
(0.00281156 0.000119641 1.84316)
(0.00116117 0.000135654 1.30868)
(7.80929e-05 8.7294e-05 0.53305)
(6.12529e-05 -0.000133396 0.505819)
(0.000859617 -0.000187254 1.22915)
(0.00215368 -0.000142843 1.72189)
(0.00349976 -6.81431e-05 2.02758)
(0.00443091 1.64031e-05 2.17427)
(0.00461471 0.000108886 2.1753)
(0.00393342 0.000209898 2.0301)
(0.00256974 0.000306753 1.72451)
(0.00106038 0.000352889 1.23043)
(7.12909e-05 0.000231255 0.505567)
(4.50865e-05 -0.000167526 0.446265)
(0.000677509 -0.000225855 1.0622)
(0.0017236 -0.000167242 1.47173)
(0.00282478 -7.90308e-05 1.72211)
(0.00359276 1.68746e-05 1.84138)
(0.00374794 0.000121064 1.84228)
(0.00319128 0.000237374 1.72432)
(0.00207653 0.000354784 1.47408)
(0.000850368 0.000421597 1.06345)
(5.46707e-05 0.000287661 0.446166)
(1.98264e-05 -0.000134091 0.343252)
(0.000410955 -0.000167765 0.782458)
(0.00109571 -0.000117646 1.06203)
(0.00183594 -5.4509e-05 1.22908)
(0.00235886 9.44981e-06 1.30783)
(0.00246566 7.801e-05 1.30847)
(0.00208758 0.000157463 1.23068)
(0.00133708 0.00024483 1.06375)
(0.000529801 0.000308628 0.783414)
(2.62699e-05 0.000227048 0.343237)
(-1.08662e-05 -3.63267e-05 0.167685)
(0.00010525 -3.59062e-05 0.343107)
(0.000347142 -2.14702e-05 0.445964)
(0.000624839 -9.24653e-06 0.505487)
(0.000824618 1.3797e-06 0.533222)
(0.000863812 1.22549e-05 0.533477)
(0.000715712 2.57555e-05 0.506116)
(0.000430727 4.31329e-05 0.446631)
(0.000143226 6.38715e-05 0.343455)
(-1.36852e-05 5.84401e-05 0.167644)
(-1.40043e-05 6.75848e-05 0.1675)
(0.000233221 6.66833e-05 0.34271)
(0.000720277 3.94004e-05 0.445498)
(0.00127668 1.65776e-05 0.505105)
(0.00168796 -3.39647e-06 0.533057)
(0.00179301 -2.41775e-05 0.533609)
(0.00152664 -5.04342e-05 0.506544)
(0.000965598 -8.46993e-05 0.447244)
(0.000362883 -0.000127234 0.344039)
(-1.07099e-05 -0.000115751 0.167946)
(4.94813e-05 0.000249376 0.342877)
(0.000844044 0.00030907 0.781554)
(0.00219888 0.000214624 1.06092)
(0.00366561 9.80982e-05 1.22814)
(0.00473121 -1.97468e-05 1.30739)
(0.00500805 -0.000147582 1.30873)
(0.0043308 -0.000298869 1.23161)
(0.00286724 -0.000470038 1.06508)
(0.00120787 -0.000602435 0.784623)
(8.38539e-05 -0.000449659 0.343776)
(9.9372e-05 0.000308648 0.445791)
(0.00136163 0.000412927 1.06099)
(0.00341249 0.000303618 1.47021)
(0.00557955 0.000142282 1.7208)
(0.00713409 -3.28e-05 1.84073)
(0.0075313 -0.000224911 1.84256)
(0.0065347 -0.000443484 1.72552)
(0.00437228 -0.000670285 1.47578)
(0.00187824 -0.000808256 1.06495)
(0.000146392 -0.000558964 0.446776)
(0.000130855 0.000244352 0.505296)
(0.00171081 0.000340823 1.22777)
(0.00423464 0.000258595 1.72012)
(0.00687246 0.000122756 2.02603)
(0.00874908 -3.07277e-05 2.17348)
(0.00921744 -0.00020012 2.17557)
(0.00799718 -0.000388408 2.0314)
(0.00536023 -0.000573787 1.72637)
(0.00230864 -0.000668957 1.23203)
(0.000182181 -0.000443878 0.506179)
(0.000145164 9.16039e-05 0.532871)
(0.00188262 0.000130184 1.30599)
(0.00464317 0.000100158 1.83859)
(0.00751623 4.78072e-05 2.17182)
(0.00955191 -1.2438e-05 2.333)
(0.0100523 -7.9084e-05 2.33521)
(0.00871659 -0.000152348 2.17745)
(0.00584076 -0.000222702 1.84508)
(0.00251333 -0.000255751 1.31031)
(0.000196851 -0.000166565 0.533653)
(0.000145164 -9.16048e-05 0.532871)
(0.00188262 -0.000130186 1.30599)
(0.00464317 -0.00010016 1.83859)
(0.00751623 -4.78095e-05 2.17182)
(0.00955191 1.2436e-05 2.333)
(0.0100523 7.90822e-05 2.33521)
(0.00871659 0.000152347 2.17745)
(0.00584076 0.000222701 1.84508)
(0.00251333 0.00025575 1.31031)
(0.000196851 0.000166564 0.533653)
(0.000130855 -0.000244352 0.505296)
(0.00171081 -0.000340825 1.22777)
(0.00423464 -0.000258597 1.72012)
(0.00687246 -0.000122758 2.02603)
(0.00874908 3.07259e-05 2.17348)
(0.00921744 0.000200118 2.17557)
(0.00799718 0.000388406 2.0314)
(0.00536023 0.000573786 1.72637)
(0.00230864 0.000668956 1.23203)
(0.000182181 0.000443877 0.506179)
(9.93722e-05 -0.000308649 0.445791)
(0.00136163 -0.000412927 1.06099)
(0.00341249 -0.000303619 1.47021)
(0.00557956 -0.000142283 1.7208)
(0.00713409 3.27989e-05 1.84073)
(0.0075313 0.00022491 1.84256)
(0.0065347 0.000443482 1.72552)
(0.00437228 0.000670283 1.47578)
(0.00187824 0.000808255 1.06495)
(0.000146392 0.000558963 0.446776)
(4.94816e-05 -0.000249377 0.342877)
(0.000844045 -0.00030907 0.781554)
(0.00219888 -0.000214624 1.06092)
(0.00366561 -9.80983e-05 1.22814)
(0.00473121 1.97463e-05 1.30739)
(0.00500805 0.000147581 1.30873)
(0.0043308 0.000298868 1.23161)
(0.00286724 0.000470036 1.06508)
(0.00120787 0.000602433 0.784623)
(8.38541e-05 0.000449658 0.343776)
(-1.40039e-05 -6.75847e-05 0.1675)
(0.000233222 -6.66829e-05 0.34271)
(0.000720277 -3.93999e-05 0.445498)
(0.00127668 -1.65773e-05 0.505105)
(0.00168796 3.3966e-06 0.533057)
(0.00179301 2.41775e-05 0.533609)
(0.00152664 5.04338e-05 0.506544)
(0.000965597 8.46985e-05 0.447244)
(0.000362883 0.000127233 0.344039)
(-1.07097e-05 0.000115751 0.167946)
(-9.29022e-06 0.000109264 0.167151)
(0.000457898 0.000107583 0.341979)
(0.00132759 6.25676e-05 0.444644)
(0.0023193 2.55708e-05 0.504392)
(0.00308113 -7.07634e-06 0.53272)
(0.00333606 -4.18043e-05 0.533805)
(0.00294059 -8.67907e-05 0.507299)
(0.00197248 -0.000146661 0.448388)
(0.000838575 -0.00022511 0.345188)
(2.38454e-05 -0.000202418 0.168583)
(0.000107058 0.000402993 0.34217)
(0.00153631 0.000493357 0.779897)
(0.00390652 0.000338425 1.0589)
(0.00648548 0.000152647 1.2264)
(0.00843463 -3.44536e-05 1.30651)
(0.00908735 -0.000240551 1.30908)
(0.0080845 -0.000491797 1.23324)
(0.00558523 -0.000787952 1.06754)
(0.00253046 -0.00103569 0.786978)
(0.00023089 -0.000789019 0.344904)
(0.000193901 0.000492683 0.444895)
(0.00241979 0.000652565 1.05877)
(0.00596814 0.000475828 1.46743)
(0.00974633 0.000221944 1.71835)
(0.0125663 -5.22788e-05 1.83943)
(0.0134922 -0.000356925 1.84293)
(0.0120136 -0.000712904 1.72758)
(0.00834268 -0.0010973 1.47892)
(0.00380678 -0.0013535 1.06787)
(0.000358456 -0.000954761 0.44807)
(0.000247796 0.000387073 0.504304)
(0.00300657 0.000535434 1.22523)
(0.00734544 0.000403854 1.71689)
(0.01192 0.000191881 2.02316)
(0.015306 -4.65186e-05 2.1719)
(0.0163931 -0.000312465 2.1759)
(0.0145782 -0.000615414 2.03366)
(0.0101179 -0.000925372 1.72982)
(0.00460728 -0.00110166 1.23519)
(0.000430056 -0.000744824 0.507508)
(0.000272201 0.000144595 0.53184)
(0.00329315 0.000203959 1.30331)
(0.00802503 0.000156171 1.83516)
(0.0129948 7.4819e-05 2.16874)
(0.0166581 -1.83777e-05 2.33129)
(0.0178183 -0.000122505 2.3355)
(0.0158289 -0.000239683 2.17978)
(0.010973 -0.000356521 1.84865)
(0.00498411 -0.000417747 1.31355)
(0.000459662 -0.000277081 0.534982)
(0.000272201 -0.000144596 0.53184)
(0.00329315 -0.000203961 1.30331)
(0.00802503 -0.000156173 1.83516)
(0.0129948 -7.48208e-05 2.16874)
(0.0166581 1.83761e-05 2.33129)
(0.0178183 0.000122504 2.3355)
(0.0158289 0.000239682 2.17978)
(0.010973 0.000356521 1.84865)
(0.00498411 0.000417747 1.31355)
(0.000459662 0.000277081 0.534982)
(0.000247796 -0.000387073 0.504304)
(0.00300657 -0.000535435 1.22523)
(0.00734544 -0.000403855 1.71689)
(0.01192 -0.000191882 2.02316)
(0.015306 4.65173e-05 2.1719)
(0.0163931 0.000312463 2.1759)
(0.0145782 0.000615412 2.03366)
(0.0101179 0.000925371 1.72982)
(0.00460728 0.00110166 1.23519)
(0.000430057 0.000744823 0.507508)
(0.000193901 -0.000492683 0.444895)
(0.0024198 -0.000652565 1.05877)
(0.00596814 -0.000475828 1.46743)
(0.00974633 -0.000221944 1.71835)
(0.0125663 5.22781e-05 1.83943)
(0.0134922 0.000356924 1.84293)
(0.0120136 0.000712902 1.72758)
(0.00834268 0.00109729 1.47892)
(0.00380678 0.0013535 1.06787)
(0.000358456 0.00095476 0.44807)
(0.000107058 -0.000402993 0.34217)
(0.00153631 -0.000493356 0.779897)
(0.00390652 -0.000338425 1.0589)
(0.00648548 -0.000152647 1.2264)
(0.00843463 3.44535e-05 1.30651)
(0.00908735 0.000240551 1.30908)
(0.0080845 0.000491796 1.23324)
(0.00558523 0.000787951 1.06754)
(0.00253046 0.00103569 0.786978)
(0.00023089 0.000789018 0.344904)
(-9.29008e-06 -0.000109263 0.167151)
(0.000457898 -0.000107583 0.341979)
(0.00132759 -6.2567e-05 0.444644)
(0.0023193 -2.55704e-05 0.504392)
(0.00308113 7.07653e-06 0.53272)
(0.00333606 4.18043e-05 0.533805)
(0.00294059 8.67903e-05 0.507299)
(0.00197248 0.000146661 0.448388)
(0.000838575 0.000225109 0.345188)
(2.38455e-05 0.000202418 0.168583)
(8.82234e-06 0.000164786 0.166543)
(0.000829478 0.000162039 0.340739)
(0.00228783 9.27531e-05 0.443198)
(0.00395855 3.69211e-05 0.503153)
(0.00530688 -1.28137e-05 0.532065)
(0.00588608 -6.71601e-05 0.534022)
(0.00540191 -0.000139778 0.508493)
(0.00386246 -0.000238832 0.450359)
(0.00184436 -0.000377087 0.347312)
(0.000141843 -0.000331026 0.169862)
(0.00020768 0.00060772 0.340947)
(0.00261226 0.00073445 0.7771)
(0.0065087 0.000498069 1.05549)
(0.0107941 0.000223727 1.22339)
(0.0141992 -5.05834e-05 1.30482)
(0.0156482 -0.000357771 1.3094)
(0.0144126 -0.000745894 1.23577)
(0.0104695 -0.00122738 1.07173)
(0.00513688 -0.00166912 0.791287)
(0.000586187 -0.00130351 0.347164)
(0.00034926 0.000733107 0.44334)
(0.00402549 0.000960931 1.05502)
(0.00979472 0.00069599 1.46275)
(0.0160184 0.000327186 1.71414)
(0.0209025 -6.77341e-05 1.83698)
(0.0229384 -0.000511822 1.84318)
(0.0210962 -0.00104743 1.7308)
(0.0153309 -0.0016553 1.48427)
(0.00750326 -0.00210656 1.07324)
(0.000845256 -0.00152418 0.450705)
(0.000435744 0.00057113 0.502577)
(0.0049494 0.000783369 1.22095)
(0.0119587 0.000588687 1.71146)
(0.019453 0.000284064 2.01821)
(0.0252849 -5.54852e-05 2.16895)
(0.0276669 -0.000437933 2.17605)
(0.025385 -0.000886247 2.03719)
(0.0183999 -0.0013675 1.73574)
(0.00895553 -0.0016762 1.24105)
(0.00098945 -0.00116163 0.51028)
(0.000474773 0.00021252 0.530038)
(0.00539724 0.000297514 1.29878)
(0.0130187 0.000227298 1.82938)
(0.0211388 0.000111016 2.16344)
(0.0274313 -2.10049e-05 2.3281)
(0.0299712 -0.000169761 2.33559)
(0.027458 -0.000341756 2.18343)
(0.0198643 -0.000521508 1.8548)
(0.00963336 -0.000628559 1.3196)
(0.00105027 -0.000427202 0.537799)
(0.000474773 -0.00021252 0.530038)
(0.00539724 -0.000297515 1.29878)
(0.0130187 -0.000227299 1.82938)
(0.0211388 -0.000111017 2.16344)
(0.0274313 2.10039e-05 2.3281)
(0.0299712 0.000169761 2.33559)
(0.027458 0.000341756 2.18343)
(0.0198643 0.000521508 1.8548)
(0.00963336 0.000628559 1.3196)
(0.00105027 0.000427202 0.537799)
(0.000435744 -0.000571131 0.502577)
(0.0049494 -0.00078337 1.22095)
(0.0119587 -0.000588688 1.71146)
(0.019453 -0.000284064 2.01821)
(0.0252849 5.54845e-05 2.16895)
(0.0276669 0.000437932 2.17605)
(0.025385 0.000886247 2.03719)
(0.0183999 0.0013675 1.73574)
(0.00895553 0.0016762 1.24105)
(0.00098945 0.00116163 0.51028)
(0.00034926 -0.000733107 0.44334)
(0.00402549 -0.000960931 1.05502)
(0.00979472 -0.00069599 1.46275)
(0.0160184 -0.000327186 1.71414)
(0.0209025 6.77338e-05 1.83698)
(0.0229384 0.000511821 1.84318)
(0.0210962 0.00104743 1.7308)
(0.0153309 0.0016553 1.48427)
(0.00750326 0.00210656 1.07324)
(0.000845256 0.00152418 0.450705)
(0.00020768 -0.000607719 0.340947)
(0.00261226 -0.000734449 0.7771)
(0.0065087 -0.000498068 1.05549)
(0.0107941 -0.000223726 1.22339)
(0.0141992 5.05838e-05 1.30482)
(0.0156482 0.000357771 1.3094)
(0.0144126 0.000745894 1.23577)
(0.0104695 0.00122738 1.07173)
(0.00513688 0.00166912 0.791287)
(0.000586187 0.00130351 0.347164)
(8.82239e-06 -0.000164785 0.166543)
(0.000829478 -0.000162038 0.340739)
(0.00228783 -9.27524e-05 0.443198)
(0.00395855 -3.69206e-05 0.503153)
(0.00530688 1.28141e-05 0.532065)
(0.00588608 6.71604e-05 0.534022)
(0.00540191 0.000139778 0.508493)
(0.00386246 0.000238831 0.450359)
(0.00184436 0.000377087 0.347312)
(0.000141843 0.000331026 0.169862)
(4.73999e-05 0.00023603 0.165547)
(0.00140036 0.000232162 0.338746)
(0.00372408 0.00013123 0.440866)
(0.00641959 5.16212e-05 0.501083)
(0.00872822 -1.98728e-05 0.530826)
(0.0099709 -0.000100284 0.534111)
(0.00958739 -0.000211609 0.510207)
(0.00735487 -0.000367918 0.453556)
(0.00393936 -0.000601724 0.351087)
(0.000483187 -0.000502562 0.172365)
(0.000367588 0.00087084 0.338949)
(0.00419259 0.00103989 0.772626)
(0.0102901 0.000699676 1.05001)
(0.0171137 0.000318949 1.21838)
(0.0228689 -5.65363e-05 1.30168)
(0.0259191 -0.000482529 1.30931)
(0.0248862 -0.00104219 1.23935)
(0.0191764 -0.00177952 1.07847)
(0.0102845 -0.00252894 0.798894)
(0.00144827 -0.00202648 0.351601)
(0.000586506 0.00103661 0.440795)
(0.00634086 0.00134596 1.04904)
(0.0152769 0.000972456 1.45524)
(0.0251036 0.000470724 1.70716)
(0.0332896 -5.76684e-05 1.83249)
(0.0375402 -0.000655683 1.8428)
(0.0359165 -0.00140111 1.73532)
(0.0275773 -0.00229784 1.49291)
(0.0146523 -0.00304798 1.0828)
(0.00199424 -0.00227082 0.455988)
(0.000718403 0.000800765 0.499738)
(0.00772483 0.00109027 1.2141)
(0.0185166 0.000820158 1.70276)
(0.030287 0.000411222 2.01003)
(0.0400095 -3.66302e-05 2.16361)
(0.0449678 -0.000542383 2.17542)
(0.0428803 -0.0011524 2.04218)
(0.0327871 -0.00184482 1.74537)
(0.0172864 -0.00235198 1.2516)
(0.00229986 -0.00167938 0.515974)
(0.000777777 0.000296799 0.52707)
(0.008391 0.000412857 1.29154)
(0.0200923 0.000316278 1.82012)
(0.0328132 0.000161224 2.15471)
(0.0432767 -1.16861e-05 2.32235)
(0.0485593 -0.000206675 2.33484)
(0.0462189 -0.000438116 2.18862)
(0.0352531 -0.00069353 1.86486)
(0.0185095 -0.000868599 1.33059)
(0.00243257 -0.000608394 0.543671)
(0.000777777 -0.000296799 0.52707)
(0.008391 -0.000412858 1.29154)
(0.0200923 -0.00031628 1.82012)
(0.0328132 -0.000161225 2.15471)
(0.0432767 1.16861e-05 2.32235)
(0.0485593 0.000206676 2.33484)
(0.0462189 0.000438118 2.18862)
(0.0352531 0.000693532 1.86486)
(0.0185095 0.000868601 1.33059)
(0.00243257 0.000608395 0.543671)
(0.000718403 -0.000800766 0.499738)
(0.00772483 -0.00109027 1.2141)
(0.0185166 -0.000820159 1.70276)
(0.030287 -0.000411222 2.01003)
(0.0400095 3.66303e-05 2.16361)
(0.0449678 0.000542384 2.17542)
(0.0428803 0.0011524 2.04218)
(0.0327871 0.00184482 1.74537)
(0.0172864 0.00235199 1.2516)
(0.00229986 0.00167938 0.515974)
(0.000586506 -0.00103661 0.440795)
(0.00634086 -0.00134596 1.04904)
(0.0152769 -0.000972456 1.45524)
(0.0251036 -0.000470724 1.70716)
(0.0332896 5.7669e-05 1.83249)
(0.0375402 0.000655684 1.8428)
(0.0359165 0.00140111 1.73532)
(0.0275773 0.00229785 1.49291)
(0.0146523 0.00304798 1.0828)
(0.00199424 0.00227082 0.455988)
(0.000367588 -0.000870839 0.338949)
(0.00419259 -0.00103989 0.772626)
(0.0102901 -0.000699675 1.05001)
(0.0171137 -0.000318948 1.21838)
(0.0228689 5.65375e-05 1.30168)
(0.0259191 0.000482531 1.30931)
(0.0248862 0.00104219 1.23935)
(0.0191764 0.00177952 1.07847)
(0.0102845 0.00252894 0.798894)
(0.00144827 0.00202648 0.351601)
(4.74e-05 -0.00023603 0.165547)
(0.00140036 -0.000232161 0.338746)
(0.00372408 -0.000131229 0.440866)
(0.00641959 -5.16205e-05 0.501083)
(0.00872822 1.98735e-05 0.530826)
(0.0099709 0.000100284 0.534111)
(0.00958739 0.00021161 0.510207)
(0.00735487 0.000367919 0.453556)
(0.00393936 0.000601725 0.351087)
(0.000483187 0.000502562 0.172365)
(0.000113631 0.000321931 0.164002)
(0.00220959 0.000317516 0.335698)
(0.00572864 0.000178447 0.437262)
(0.00989467 7.15814e-05 0.497736)
(0.0137154 -2.43585e-05 0.528539)
(0.0162354 -0.000134626 0.533689)
(0.0164804 -0.000292258 0.512326)
(0.0136912 -0.000518757 0.458379)
(0.00826604 -0.000878363 0.357507)
(0.00139454 -0.000636658 0.177064)
(0.000599489 0.0011889 0.33586)
(0.00635284 0.00140554 0.765812)
(0.015438 0.000944016 1.04157)
(0.0258526 0.000449104 1.21033)
(0.0352557 -2.53892e-05 1.29599)
(0.0413392 -0.000563501 1.30789)
(0.0417146 -0.0012973 1.24367)
(0.034482 -0.0023337 1.0886)
(0.0204782 -0.00351322 0.811842)
(0.00353672 -0.00287057 0.360045)
(0.000920552 0.00139742 0.436851)
(0.00945729 0.00180094 1.03992)
(0.0226479 0.00130639 1.44371)
(0.0375265 0.000669658 1.696)
(0.0507928 2.12233e-05 1.82447)
(0.0592092 -0.000704517 1.84055)
(0.0594244 -0.00163379 1.74078)
(0.0487908 -0.00282745 1.50599)
(0.0285868 -0.00396588 1.09926)
(0.00474541 -0.00304069 0.466282)
(0.00111179 0.00107081 0.495326)
(0.0114312 0.00145018 1.20367)
(0.0272739 0.00109941 1.68941)
(0.0450069 0.000588914 1.997)
(0.0606846 4.95284e-05 2.15417)
(0.0704753 -0.00054893 2.17265)
(0.0704413 -0.00128472 2.04827)
(0.0575303 -0.00217273 1.76013)
(0.0334186 -0.00292445 1.27005)
(0.00543374 -0.00215662 0.52732)
(0.00119774 0.000395407 0.52245)
(0.0123754 0.000547664 1.28051)
(0.0295097 0.000423598 1.80593)
(0.0486293 0.000231656 2.14082)
(0.0654618 2.53269e-05 2.31225)
(0.075885 -0.000202571 2.33182)
(0.0756861 -0.000477197 2.19502)
(0.0616423 -0.000798664 1.88042)
(0.0356583 -0.00105541 1.34998)
(0.00574162 -0.0007648 0.555523)
(0.00119774 -0.000395408 0.52245)
(0.0123754 -0.000547665 1.28051)
(0.0295097 -0.000423598 1.80593)
(0.0486293 -0.000231657 2.14082)
(0.0654618 -2.53259e-05 2.31225)
(0.075885 0.000202573 2.33182)
(0.0756861 0.000477201 2.19502)
(0.0616423 0.000798669 1.88042)
(0.0356583 0.00105542 1.34998)
(0.00574162 0.000764802 0.555523)
(0.00111179 -0.00107081 0.495326)
(0.0114312 -0.00145018 1.20367)
(0.0272739 -0.00109941 1.68941)
(0.0450069 -0.000588914 1.997)
(0.0606846 -4.95272e-05 2.15417)
(0.0704753 0.000548933 2.17265)
(0.0704413 0.00128472 2.04827)
(0.0575303 0.00217273 1.76013)
(0.0334186 0.00292446 1.27005)
(0.00543374 0.00215662 0.52732)
(0.000920552 -0.00139742 0.436851)
(0.00945729 -0.00180094 1.03992)
(0.0226479 -0.00130639 1.44371)
(0.0375265 -0.000669656 1.696)
(0.0507928 -2.12217e-05 1.82447)
(0.0592092 0.000704519 1.84055)
(0.0594244 0.00163379 1.74078)
(0.0487908 0.00282746 1.50599)
(0.0285868 0.00396588 1.09926)
(0.00474541 0.00304069 0.466282)
(0.000599489 -0.0011889 0.33586)
(0.00635284 -0.00140554 0.765812)
(0.015438 -0.000944014 1.04157)
(0.0258526 -0.000449102 1.21033)
(0.0352557 2.53915e-05 1.29599)
(0.0413392 0.000563504 1.30789)
(0.0417146 0.00129731 1.24367)
(0.034482 0.0023337 1.0886)
(0.0204782 0.00351322 0.811842)
(0.00353672 0.00287057 0.360045)
(0.000113631 -0.00032193 0.164002)
(0.00220959 -0.000317515 0.335698)
(0.00572864 -0.000178446 0.437262)
(0.00989467 -7.15804e-05 0.497736)
(0.0137154 2.43597e-05 0.528539)
(0.0162354 0.000134628 0.533689)
(0.0164804 0.00029226 0.512326)
(0.0136912 0.000518759 0.458379)
(0.00826604 0.000878366 0.357507)
(0.00139454 0.000636659 0.177064)
(0.000211367 0.000416748 0.16174)
(0.00325304 0.000413447 0.331274)
(0.00829376 0.00023339 0.431943)
(0.0144275 9.9898e-05 0.492522)
(0.0204922 -1.7597e-05 0.524457)
(0.0252957 -0.000152966 0.531937)
(0.0273478 -0.000351795 0.514241)
(0.0248997 -0.000641707 0.464999)
(0.0170817 -0.00108522 0.368121)
(0.00376481 -0.000353824 0.185882)
(0.000903442 0.00154115 0.331345)
(0.00904976 0.00180876 0.755954)
(0.0218728 0.00122253 1.02918)
(0.037021 0.000627112 1.19789)
(0.0517551 8.91465e-05 1.28605)
(0.063177 -0.000498377 1.30329)
(0.0676268 -0.00131808 1.24738)
(0.0608045 -0.00257607 1.10252)
(0.0406229 -0.00422557 0.833436)
(0.00874505 -0.00350159 0.376365)
(0.00134786 0.00179055 0.431079)
(0.0132933 0.00229654 1.02676)
(0.0317532 0.0016859 1.42681)
(0.0532302 0.000941926 1.67883)
(0.0738541 0.000235162 1.81063)
(0.0895474 -0.000509889 1.834)
(0.0951771 -0.00146245 1.74548)
(0.0847945 -0.00277661 1.52423)
(0.0557962 -0.00424682 1.12718)
(0.0115698 -0.00335146 0.486689)
(0.00161012 0.0013619 0.488856)
(0.0159607 0.00183944 1.1886)
(0.0380227 0.0014165 1.66986)
(0.0635015 0.000832212 1.97704)
(0.0877607 0.000259385 2.13804)
(0.105968 -0.000330586 2.165)
(0.112094 -0.00104081 2.05367)
(0.0992691 -0.00195026 1.78106)
(0.064775 -0.00286483 1.30186)
(0.013217 -0.00218645 0.55029)
(0.00172791 0.000501181 0.515664)
(0.01723 0.000693016 1.26457)
(0.0410364 0.000545445 1.78517)
(0.0684472 0.000328101 2.11956)
(0.0944377 0.000111807 2.29507)
(0.113805 -0.00010838 2.32369)
(0.120103 -0.00036544 2.2008)
(0.106054 -0.000682446 1.9027)
(0.0689425 -0.000985721 1.38371)
(0.0139744 -0.000741895 0.579777)
(0.00172791 -0.000501182 0.515664)
(0.01723 -0.000693017 1.26457)
(0.0410364 -0.000545445 1.78517)
(0.0684472 -0.0003281 2.11956)
(0.0944377 -0.000111804 2.29507)
(0.113805 0.000108385 2.32369)
(0.120103 0.000365447 2.2008)
(0.106054 0.000682456 1.9027)
(0.0689425 0.000985731 1.38371)
(0.0139744 0.0007419 0.579777)
(0.00161012 -0.0013619 0.488856)
(0.0159607 -0.00183944 1.1886)
(0.0380227 -0.0014165 1.66986)
(0.0635015 -0.00083221 1.97704)
(0.0877607 -0.000259382 2.13804)
(0.105968 0.000330591 2.165)
(0.112094 0.00104082 2.05367)
(0.0992691 0.00195027 1.78106)
(0.0647751 0.00286484 1.30186)
(0.013217 0.00218645 0.55029)
(0.00134786 -0.00179055 0.431079)
(0.0132933 -0.00229654 1.02676)
(0.0317532 -0.0016859 1.42681)
(0.0532302 -0.000941924 1.67883)
(0.0738541 -0.000235158 1.81063)
(0.0895474 0.000509894 1.834)
(0.0951771 0.00146246 1.74548)
(0.0847945 0.00277662 1.52423)
(0.0557962 0.00424683 1.12718)
(0.0115698 0.00335147 0.486689)
(0.000903442 -0.00154115 0.331345)
(0.00904976 -0.00180876 0.755954)
(0.0218728 -0.00122252 1.02918)
(0.037021 -0.000627109 1.19789)
(0.0517551 -8.91427e-05 1.28605)
(0.063177 0.000498382 1.30329)
(0.0676268 0.00131809 1.24738)
(0.0608046 0.00257608 1.10252)
(0.0406229 0.00422558 0.833436)
(0.00874505 0.0035016 0.376365)
(0.000211367 -0.000416748 0.16174)
(0.00325304 -0.000413446 0.331274)
(0.00829376 -0.000233389 0.431943)
(0.0144275 -9.98966e-05 0.492522)
(0.0204922 1.75989e-05 0.524457)
(0.0252957 0.000152969 0.531937)
(0.0273478 0.000351799 0.514241)
(0.0248997 0.000641712 0.464999)
(0.0170817 0.00108523 0.368121)
(0.00376481 0.000353827 0.185882)
(0.000335386 0.000508666 0.158631)
(0.00444073 0.000509369 0.325218)
(0.0112093 0.000292323 0.424492)
(0.0197221 0.000139309 0.484757)
(0.0288325 1.0639e-05 0.517503)
(0.0373511 -0.000137516 0.527338)
(0.0434728 -0.000378745 0.514285)
(0.0441906 -0.000794532 0.472735)
(0.0352708 -0.00129323 0.385751)
(0.0126027 0.000673782 0.206314)
(0.0012538 0.00188377 0.325152)
(0.0120234 0.00220201 0.742505)
(0.0290101 0.00151155 1.01191)
(0.0497808 0.000861185 1.17952)
(0.0716155 0.000345425 1.26945)
(0.0915573 -0.000132978 1.29218)
(0.105082 -0.000758975 1.24691)
(0.104796 -0.00180949 1.11895)
(0.0811861 -0.00349552 0.870019)
(0.0279619 -0.00288763 0.41634)
(0.00182955 0.00216622 0.423155)
(0.0174636 0.00277334 1.00881)
(0.0417301 0.00207722 1.40333)
(0.070965 0.00129293 1.65365)
(0.10129 0.00065346 1.78786)
(0.128491 0.000120895 1.81887)
(0.146178 -0.000447449 1.74499)
(0.144147 -0.00125275 1.54651)
(0.109946 -0.00239442 1.17575)
(0.0367401 -0.00186692 0.538413)
(0.00216684 0.00163681 0.47996)
(0.0208501 0.00221101 1.16808)
(0.0497244 0.00174246 1.64276)
(0.0842583 0.00114236 1.94788)
(0.119773 0.00064444 2.11172)
(0.151241 0.000261325 2.14772)
(0.171136 -7.79092e-05 2.05359)
(0.167672 -0.000480785 1.8074)
(0.126903 -0.00100806 1.35821)
(0.0419101 -0.000700667 0.609483)
(0.00231832 0.00060054 0.506325)
(0.0224547 0.000831288 1.24287)
(0.0535496 0.00067056 1.75641)
(0.0906291 0.000450416 2.08858)
(0.128605 0.000266251 2.26716)
(0.162049 0.000130404 2.30552)
(0.182905 2.341e-05 2.20109)
(0.17868 -8.83983e-05 1.93117)
(0.134798 -0.000231682 1.44396)
(0.0443295 -0.00014478 0.642661)
(0.00231832 -0.00060054 0.506325)
(0.0224547 -0.000831288 1.24287)
(0.0535496 -0.00067056 1.75641)
(0.0906291 -0.000450414 2.08858)
(0.128605 -0.000266247 2.26716)
(0.162049 -0.000130397 2.30552)
(0.182905 -2.34001e-05 2.20109)
(0.17868 8.84105e-05 1.93117)
(0.134798 0.000231695 1.44396)
(0.0443295 0.000144788 0.642661)
(0.00216684 -0.00163681 0.47996)
(0.0208501 -0.00221101 1.16808)
(0.0497244 -0.00174246 1.64276)
(0.0842583 -0.00114236 1.94788)
(0.119773 -0.000644436 2.11172)
(0.151241 -0.000261318 2.14772)
(0.171136 7.79193e-05 2.05359)
(0.167672 0.000480798 1.8074)
(0.126903 0.00100807 1.35821)
(0.0419101 0.000700676 0.609483)
(0.00182955 -0.00216622 0.423155)
(0.0174636 -0.00277334 1.00881)
(0.0417301 -0.00207722 1.40333)
(0.070965 -0.00129293 1.65365)
(0.10129 -0.000653455 1.78786)
(0.128491 -0.000120887 1.81887)
(0.146178 0.000447459 1.74499)
(0.144147 0.00125277 1.54651)
(0.109946 0.00239443 1.17575)
(0.0367401 0.00186693 0.538413)
(0.0012538 -0.00188377 0.325152)
(0.0120234 -0.00220201 0.742505)
(0.0290101 -0.00151154 1.01191)
(0.0497808 -0.000861181 1.17952)