/*--------------------------------*- C++ -*----------------------------------*\
  =========                 |
  \\      /  F ield         | OpenFOAM: The Open Source CFD Toolbox
   \\    /   O peration     | Website:  https://openfoam.org
    \\  /    A nd           | Version:  6
     \\/     M anipulation  |
\*---------------------------------------------------------------------------*/
FoamFile
{
    version     2.0;
    format      ascii;
    class       volScalarField;
    location    "0.41";
    object      T;
}
// * * * * * * * * * * * * * * * * * * * * * * * * * * * * * * * * * * * * * //

dimensions      [0 0 0 1 0 0 0];

internalField   nonuniform List<scalar> 
7000
(
105.117
105.116
105.113
105.108
105.102
105.096
105.09
105.084
105.08
105.077
105.117
105.116
105.113
105.108
105.102
105.096
105.09
105.084
105.08
105.077
105.117
105.116
105.113
105.108
105.102
105.096
105.09
105.084
105.08
105.077
105.117
105.116
105.113
105.108
105.102
105.096
105.09
105.084
105.08
105.077
105.117
105.116
105.113
105.108
105.102
105.096
105.09
105.084
105.08
105.077
105.117
105.116
105.113
105.108
105.102
105.096
105.09
105.084
105.08
105.077
105.117
105.116
105.113
105.108
105.102
105.096
105.09
105.084
105.08
105.077
105.117
105.116
105.113
105.108
105.102
105.096
105.09
105.084
105.08
105.077
105.117
105.116
105.113
105.108
105.102
105.096
105.09
105.084
105.08
105.077
105.117
105.116
105.113
105.108
105.102
105.096
105.09
105.084
105.08
105.077
95.4109
95.4057
95.3958
95.3815
95.3639
95.3441
95.3242
95.3062
95.2924
95.285
95.4108
95.4057
95.3958
95.3815
95.3638
95.3441
95.3241
95.3061
95.2924
95.2849
95.4108
95.4057
95.3957
95.3815
95.3638
95.3441
95.3241
95.3061
95.2924
95.2849
95.4108
95.4057
95.3957
95.3815
95.3638
95.3441
95.3241
95.3061
95.2924
95.2849
95.4108
95.4057
95.3957
95.3815
95.3638
95.3441
95.3241
95.3061
95.2924
95.2849
95.4108
95.4057
95.3957
95.3815
95.3638
95.3441
95.3241
95.3061
95.2924
95.2849
95.4108
95.4057
95.3957
95.3815
95.3638
95.3441
95.3241
95.3061
95.2924
95.2849
95.4108
95.4057
95.3957
95.3815
95.3638
95.3441
95.3241
95.3061
95.2924
95.2849
95.4108
95.4057
95.3957
95.3815
95.3638
95.3441
95.3241
95.3061
95.2924
95.2849
95.4108
95.4057
95.3958
95.3815
95.3638
95.3441
95.3242
95.3061
95.2924
95.285
85.8782
85.8692
85.8516
85.8263
85.7946
85.759
85.7225
85.6893
85.6637
85.6497
85.8782
85.8692
85.8516
85.8262
85.7946
85.7589
85.7225
85.6892
85.6636
85.6497
85.8782
85.8691
85.8515
85.8262
85.7945
85.7589
85.7224
85.6892
85.6636
85.6496
85.8781
85.8691
85.8515
85.8262
85.7945
85.7589
85.7224
85.6892
85.6636
85.6496
85.8781
85.8691
85.8515
85.8261
85.7945
85.7589
85.7224
85.6892
85.6636
85.6496
85.8781
85.8691
85.8515
85.8261
85.7945
85.7589
85.7224
85.6892
85.6636
85.6496
85.8781
85.8691
85.8515
85.8261
85.7945
85.7589
85.7224
85.6892
85.6636
85.6496
85.8781
85.8691
85.8515
85.8262
85.7945
85.7589
85.7224
85.6892
85.6636
85.6496
85.8782
85.8691
85.8515
85.8262
85.7946
85.7589
85.7225
85.6892
85.6636
85.6497
85.8782
85.8692
85.8516
85.8262
85.7946
85.7589
85.7225
85.6893
85.6637
85.6497
76.6289
76.6152
76.5885
76.5496
76.5007
76.4447
76.3866
76.3327
76.2906
76.2672
76.6288
76.6152
76.5884
76.5496
76.5006
76.4446
76.3865
76.3326
76.2905
76.2672
76.6288
76.6151
76.5884
76.5495
76.5005
76.4446
76.3865
76.3326
76.2905
76.2672
76.6287
76.6151
76.5883
76.5495
76.5005
76.4446
76.3864
76.3326
76.2904
76.2671
76.6287
76.6151
76.5883
76.5495
76.5005
76.4446
76.3864
76.3326
76.2904
76.2671
76.6287
76.6151
76.5883
76.5495
76.5005
76.4446
76.3864
76.3326
76.2904
76.2671
76.6287
76.6151
76.5883
76.5495
76.5005
76.4446
76.3864
76.3326
76.2904
76.2672
76.6287
76.6151
76.5884
76.5495
76.5005
76.4446
76.3865
76.3326
76.2905
76.2672
76.6288
76.6151
76.5884
76.5496
76.5006
76.4446
76.3865
76.3326
76.2905
76.2672
76.6288
76.6152
76.5884
76.5496
76.5006
76.4447
76.3866
76.3327
76.2905
76.2673
67.7625
67.7434
67.7055
67.6499
67.5788
67.4961
67.4082
67.3247
67.2578
67.2201
67.7625
67.7433
67.7054
67.6499
67.5787
67.496
67.4081
67.3246
67.2578
67.2201
67.7624
67.7432
67.7054
67.6498
67.5787
67.4959
67.4081
67.3246
67.2577
67.22
67.7624
67.7432
67.7053
67.6498
67.5786
67.4959
67.408
67.3246
67.2577
67.22
67.7623
67.7432
67.7053
67.6497
67.5786
67.4959
67.408
67.3245
67.2577
67.22
67.7623
67.7432
67.7053
67.6497
67.5786
67.4959
67.408
67.3245
67.2577
67.22
67.7624
67.7432
67.7053
67.6498
67.5786
67.4959
67.408
67.3246
67.2577
67.22
67.7624
67.7432
67.7053
67.6498
67.5787
67.4959
67.4081
67.3246
67.2577
67.22
67.7624
67.7432
67.7054
67.6498
67.5787
67.496
67.4081
67.3246
67.2578
67.2201
67.7624
67.7433
67.7054
67.6499
67.5788
67.496
67.4082
67.3247
67.2578
67.2201
59.3666
59.3408
59.2896
59.2134
59.1141
58.9958
58.8664
58.7392
58.6335
58.572
59.3665
59.3407
59.2895
59.2133
59.1141
58.9957
58.8663
58.7391
58.6334
58.5719
59.3664
59.3407
59.2894
59.2133
59.114
58.9957
58.8662
58.739
58.6334
58.5719
59.3664
59.3406
59.2894
59.2132
59.114
58.9956
58.8662
58.739
58.6333
58.5719
59.3664
59.3406
59.2894
59.2132
59.1139
58.9956
58.8662
58.739
58.6333
58.5718
59.3664
59.3406
59.2894
59.2132
59.1139
58.9956
58.8662
58.739
58.6333
58.5718
59.3664
59.3406
59.2894
59.2132
59.114
58.9956
58.8662
58.739
58.6333
58.5719
59.3664
59.3407
59.2894
59.2133
59.114
58.9957
58.8662
58.739
58.6334
58.5719
59.3664
59.3407
59.2895
59.2133
59.114
58.9957
58.8663
58.7391
58.6334
58.572
59.3665
59.3408
59.2895
59.2134
59.1141
58.9958
58.8664
58.7392
58.6335
58.572
51.5136
51.4803
51.4135
51.3128
51.1786
51.0138
50.8266
50.6338
50.4648
50.3611
51.5135
51.4802
51.4135
51.3127
51.1785
51.0137
50.8265
50.6337
50.4647
50.361
51.5134
51.4802
51.4134
51.3127
51.1784
51.0137
50.8265
50.6337
50.4647
50.361
51.5134
51.4801
51.4133
51.3126
51.1784
51.0136
50.8264
50.6336
50.4646
50.3609
51.5133
51.4801
51.4133
51.3126
51.1784
51.0136
50.8264
50.6336
50.4646
50.3609
51.5133
51.4801
51.4133
51.3126
51.1784
51.0136
50.8264
50.6336
50.4646
50.3609
51.5133
51.4801
51.4133
51.3126
51.1784
51.0136
50.8264
50.6336
50.4646
50.3609
51.5134
51.4801
51.4134
51.3126
51.1784
51.0137
50.8265
50.6337
50.4647
50.361
51.5134
51.4802
51.4134
51.3127
51.1785
51.0137
50.8265
50.6337
50.4647
50.361
51.5135
51.4803
51.4135
51.3128
51.1786
51.0138
50.8266
50.6338
50.4648
50.3611
44.2598
44.2185
44.1347
44.0063
43.8309
43.6081
43.3427
43.0517
42.7755
42.5897
44.2598
44.2184
44.1347
44.0062
43.8308
43.608
43.3426
43.0516
42.7754
42.5897
44.2597
44.2184
44.1346
44.0061
43.8308
43.608
43.3425
43.0515
42.7754
42.5896
44.2596
44.2183
44.1345
44.0061
43.8307
43.6079
43.3425
43.0515
42.7753
42.5896
44.2596
44.2183
44.1345
44.0061
43.8307
43.6079
43.3425
43.0515
42.7753
42.5896
44.2596
44.2183
44.1345
44.0061
43.8307
43.6079
43.3425
43.0515
42.7753
42.5896
44.2596
44.2183
44.1345
44.0061
43.8307
43.6079
43.3425
43.0515
42.7753
42.5896
44.2597
44.2184
44.1346
44.0061
43.8308
43.608
43.3426
43.0515
42.7754
42.5896
44.2597
44.2184
44.1346
44.0062
43.8308
43.608
43.3426
43.0516
42.7754
42.5897
44.2598
44.2185
44.1347
44.0063
43.8309
43.6081
43.3427
43.0517
42.7755
42.5898
37.6446
37.5954
37.4946
37.3376
37.1177
36.8278
36.463
36.0295
35.5676
35.2027
37.6446
37.5953
37.4945
37.3375
37.1177
36.8277
36.4629
36.0294
35.5675
35.2027
37.6445
37.5952
37.4945
37.3374
37.1176
36.8277
36.4628
36.0293
35.5675
35.2026
37.6444
37.5952
37.4944
37.3374
37.1176
36.8276
36.4628
36.0293
35.5674
35.2026
37.6444
37.5952
37.4944
37.3374
37.1175
36.8276
36.4627
36.0293
35.5674
35.2026
37.6444
37.5952
37.4944
37.3374
37.1175
36.8276
36.4627
36.0293
35.5674
35.2026
37.6444
37.5952
37.4944
37.3374
37.1176
36.8276
36.4628
36.0293
35.5674
35.2026
37.6445
37.5952
37.4944
37.3374
37.1176
36.8277
36.4628
36.0294
35.5675
35.2026
37.6445
37.5953
37.4945
37.3375
37.1177
36.8277
36.4629
36.0294
35.5676
35.2027
37.6446
37.5954
37.4946
37.3376
37.1178
36.8278
36.463
36.0295
35.5676
35.2028
31.6898
31.6338
31.5182
31.3356
31.0743
30.7173
30.2418
29.6213
28.8449
28.031
31.6897
31.6337
31.5181
31.3356
31.0742
30.7172
30.2417
29.6212
28.8448
28.031
31.6897
31.6336
31.518
31.3355
31.0742
30.7172
30.2417
29.6212
28.8448
28.0309
31.6896
31.6336
31.518
31.3354
31.0741
30.7171
30.2416
29.6211
28.8447
28.0309
31.6896
31.6335
31.518
31.3354
31.0741
30.7171
30.2416
29.6211
28.8447
28.0309
31.6896
31.6335
31.518
31.3354
31.0741
30.7171
30.2416
29.6211
28.8447
28.0309
31.6896
31.6336
31.518
31.3355
31.0741
30.7171
30.2417
29.6211
28.8447
28.0309
31.6896
31.6336
31.518
31.3355
31.0742
30.7172
30.2417
29.6212
28.8448
28.0309
31.6897
31.6337
31.5181
31.3356
31.0743
30.7173
30.2418
29.6212
28.8448
28.031
31.6898
31.6337
31.5182
31.3357
31.0743
30.7173
30.2419
29.6213
28.8449
28.0311
26.4001
26.3395
26.2139
26.0138
25.7232
25.3167
24.7519
23.9504
22.7373
20.621
26.4
26.3394
26.2138
26.0137
25.7231
25.3166
24.7518
23.9503
22.7372
20.6209
26.3999
26.3393
26.2137
26.0136
25.7231
25.3166
24.7518
23.9502
22.7372
20.6208
26.3999
26.3393
26.2137
26.0136
25.723
25.3165
24.7517
23.9502
22.7371
20.6208
26.3999
26.3392
26.2136
26.0136
25.723
25.3165
24.7517
23.9502
22.7371
20.6208
26.3999
26.3392
26.2136
26.0136
25.723
25.3165
24.7517
23.9502
22.7371
20.6208
26.3999
26.3393
26.2137
26.0136
25.723
25.3165
24.7517
23.9502
22.7371
20.6208
26.3999
26.3393
26.2137
26.0136
25.7231
25.3166
24.7518
23.9502
22.7372
20.6209
26.4
26.3394
26.2138
26.0137
25.7232
25.3166
24.7518
23.9503
22.7372
20.6209
26.4
26.3394
26.2139
26.0138
25.7232
25.3167
24.7519
23.9504
22.7373
20.621
21.7638
21.7016
21.5727
21.3671
21.068
20.649
20.068
19.2555
18.0941
16.403
21.7637
21.7016
21.5727
21.367
21.0679
20.6489
20.0679
19.2554
18.094
16.4029
21.7637
21.7015
21.5726
21.367
21.0679
20.6489
20.0679
19.2554
18.094
16.4029
21.7636
21.7015
21.5726
21.3669
21.0679
20.6488
20.0678
19.2553
18.0939
16.4028
21.7636
21.7014
21.5726
21.3669
21.0678
20.6488
20.0678
19.2553
18.0939
16.4028
21.7636
21.7014
21.5726
21.3669
21.0678
20.6488
20.0678
19.2553
18.0939
16.4028
21.7636
21.7015
21.5726
21.367
21.0679
20.6489
20.0678
19.2553
18.0939
16.4029
21.7637
21.7015
21.5726
21.367
21.0679
20.6489
20.0679
19.2554
18.094
16.4029
21.7637
21.7016
21.5727
21.3671
21.068
20.649
20.068
19.2554
18.0941
16.403
21.7638
21.7016
21.5728
21.3671
21.0681
20.6491
20.068
19.2555
18.0941
16.403
17.7546
17.6941
17.5692
17.3708
17.0849
16.6904
16.1577
15.4477
14.5167
13.3496
17.7545
17.6941
17.5691
17.3708
17.0848
16.6903
16.1576
15.4476
14.5167
13.3495
17.7544
17.694
17.569
17.3707
17.0848
16.6902
16.1576
15.4475
14.5166
13.3494
17.7544
17.694
17.569
17.3707
17.0847
16.6902
16.1575
15.4475
14.5166
13.3494
17.7544
17.694
17.569
17.3706
17.0847
16.6902
16.1575
15.4475
14.5166
13.3494
17.7544
17.694
17.569
17.3707
17.0847
16.6902
16.1575
15.4475
14.5166
13.3494
17.7544
17.694
17.569
17.3707
17.0847
16.6902
16.1575
15.4475
14.5166
13.3494
17.7544
17.694
17.5691
17.3707
17.0848
16.6903
16.1576
15.4476
14.5166
13.3494
17.7545
17.6941
17.5691
17.3708
17.0848
16.6903
16.1576
15.4476
14.5167
13.3495
17.7545
17.6942
17.5692
17.3709
17.0849
16.6904
16.1577
15.4477
14.5168
13.3496
14.3335
14.2777
14.1628
13.9823
13.7261
13.381
12.9318
12.3651
11.6799
10.9139
14.3334
14.2776
14.1627
13.9822
13.726
13.3809
12.9318
12.365
11.6799
10.9139
14.3334
14.2776
14.1627
13.9822
13.726
13.3809
12.9317
12.365
11.6798
10.9138
14.3334
14.2775
14.1627
13.9821
13.7259
13.3809
12.9317
12.3649
11.6798
10.9138
14.3333
14.2775
14.1626
13.9821
13.7259
13.3808
12.9317
12.3649
11.6798
10.9138
14.3334
14.2775
14.1626
13.9821
13.7259
13.3809
12.9317
12.3649
11.6798
10.9138
14.3334
14.2775
14.1627
13.9821
13.7259
13.3809
12.9317
12.3649
11.6798
10.9138
14.3334
14.2776
14.1627
13.9822
13.726
13.3809
12.9317
12.365
11.6799
10.9138
14.3334
14.2776
14.1628
13.9822
13.726
13.381
12.9318
12.365
11.6799
10.9139
14.3335
14.2777
14.1628
13.9823
13.7261
13.381
12.9319
12.3651
11.68
10.914
11.4523
11.4031
11.3026
11.1465
10.9295
10.6454
10.2902
9.86635
9.39149
8.91197
11.4523
11.4031
11.3025
11.1465
10.9294
10.6453
10.2901
9.86629
9.39143
8.9119
11.4522
11.403
11.3025
11.1464
10.9294
10.6453
10.2901
9.86625
9.39139
8.91186
11.4522
11.403
11.3024
11.1464
10.9293
10.6452
10.29
9.86622
9.39136
8.91183
11.4522
11.403
11.3024
11.1464
10.9293
10.6452
10.29
9.86621
9.39135
8.91182
11.4522
11.403
11.3024
11.1464
10.9293
10.6452
10.29
9.86621
9.39135
8.91182
11.4522
11.403
11.3024
11.1464
10.9294
10.6453
10.2901
9.86623
9.39137
8.91184
11.4523
11.403
11.3025
11.1465
10.9294
10.6453
10.2901
9.86627
9.39141
8.91188
11.4523
11.4031
11.3025
11.1465
10.9294
10.6453
10.2901
9.86632
9.39146
8.91193
11.4523
11.4031
11.3026
11.1466
10.9295
10.6454
10.2902
9.86639
9.39153
8.912
9.05674
9.01516
8.93097
8.80229
8.62725
8.4054
8.14009
7.84216
7.53519
7.26116
9.05669
9.01511
8.93091
8.80223
8.6272
8.40535
8.14003
7.8421
7.53514
7.2611
9.05665
9.01507
8.93088
8.8022
8.62716
8.40532
8.14
7.84207
7.5351
7.26106
9.05662
9.01504
8.93085
8.80217
8.62714
8.40529
8.13997
7.84204
7.53508
7.26103
9.05661
9.01503
8.93084
8.80216
8.62713
8.40528
8.13996
7.84203
7.53507
7.26102
9.05661
9.01504
8.93084
8.80217
8.62713
8.40529
8.13997
7.84204
7.53507
7.26103
9.05663
9.01505
8.93086
8.80218
8.62715
8.40531
8.13999
7.84206
7.53509
7.26104
9.05666
9.01508
8.93089
8.80222
8.62718
8.40534
8.14002
7.84209
7.53512
7.26108
9.0567
9.01512
8.93094
8.80226
8.62723
8.40538
8.14007
7.84214
7.53517
7.26112
9.05674
9.01518
8.93099
8.80232
8.62729
8.40545
8.14013
7.8422
7.53523
7.26119
7.08955
7.0558
6.98813
6.88644
6.75162
6.58701
6.40047
6.20715
6.03221
5.91174
7.0895
7.05576
6.98809
6.88639
6.75158
6.58697
6.40043
6.2071
6.03216
5.91169
7.08947
7.05572
6.98805
6.88636
6.75155
6.58694
6.40039
6.20707
6.03212
5.91166
7.08945
7.0557
6.98803
6.88634
6.75153
6.58692
6.40037
6.20705
6.0321
5.91163
7.08944
7.05569
6.98802
6.88633
6.75152
6.58691
6.40037
6.20704
6.03209
5.91162
7.08944
7.0557
6.98803
6.88634
6.75152
6.58691
6.40037
6.20704
6.0321
5.91163
7.08945
7.05571
6.98804
6.88635
6.75154
6.58693
6.40039
6.20706
6.03211
5.91164
7.08948
7.05574
6.98807
6.88638
6.75157
6.58696
6.40042
6.20709
6.03214
5.91167
7.08951
7.05577
6.98811
6.88642
6.75161
6.587
6.40046
6.20713
6.03218
5.91172
7.08955
7.05582
6.98816
6.88647
6.75166
6.58705
6.40051
6.20718
6.03224
5.91177
5.49367
5.46727
5.41488
5.33764
5.23825
5.12237
5.00056
4.89065
4.81983
4.82353
5.49363
5.46723
5.41484
5.3376
5.23821
5.12234
5.00052
4.89061
4.81979
4.82348
5.4936
5.4672
5.41482
5.33757
5.23818
5.12231
5.0005
4.89058
4.81976
4.82345
5.49359
5.46718
5.4148
5.33755
5.23816
5.12229
5.00048
4.89056
4.81974
4.82343
5.49358
5.46718
5.41479
5.33755
5.23816
5.12228
5.00047
4.89055
4.81973
4.82342
5.49358
5.46718
5.41479
5.33755
5.23816
5.12229
5.00048
4.89056
4.81973
4.82343
5.49359
5.46719
5.41481
5.33756
5.23818
5.1223
5.00049
4.89057
4.81975
4.82344
5.49361
5.46721
5.41483
5.33759
5.2382
5.12233
5.00052
4.8906
4.81978
4.82347
5.49364
5.46725
5.41486
5.33762
5.23824
5.12236
5.00055
4.89064
4.81981
4.82351
5.49368
5.46729
5.41491
5.33767
5.23828
5.12241
5.0006
4.89068
4.81986
4.82356
4.2143
4.19431
4.1551
4.09848
4.0281
3.95067
3.87798
3.82972
3.83784
3.95067
4.21427
4.19428
4.15507
4.09845
4.02806
3.95064
3.87794
3.82969
3.83781
3.95063
4.21424
4.19425
4.15505
4.09843
4.02804
3.95062
3.87792
3.82966
3.83778
3.9506
4.21423
4.19424
4.15503
4.09841
4.02803
3.9506
3.87791
3.82965
3.83777
3.95058
4.21422
4.19423
4.15503
4.09841
4.02802
3.9506
3.8779
3.82964
3.83776
3.95058
4.21422
4.19424
4.15503
4.09841
4.02803
3.9506
3.8779
3.82964
3.83777
3.95058
4.21423
4.19425
4.15504
4.09842
4.02804
3.95062
3.87792
3.82966
3.83778
3.95059
4.21425
4.19427
4.15506
4.09845
4.02806
3.95064
3.87794
3.82968
3.8378
3.95062
4.21428
4.19429
4.15509
4.09848
4.02809
3.95067
3.87797
3.82971
3.83783
3.95065
4.21431
4.19433
4.15513
4.09852
4.02813
3.95071
3.87801
3.82975
3.83788
3.9507
3.20055
3.18584
3.15733
3.11701
3.06865
3.01879
2.9784
2.96619
3.01672
3.2081
3.20052
3.18581
3.1573
3.11698
3.06863
3.01876
2.97838
2.96616
3.01669
3.20807
3.2005
3.18579
3.15728
3.11696
3.06861
3.01874
2.97836
2.96614
3.01667
3.20805
3.20049
3.18578
3.15727
3.11695
3.0686
3.01873
2.97835
2.96613
3.01666
3.20803
3.20048
3.18578
3.15726
3.11695
3.06859
3.01873
2.97834
2.96612
3.01665
3.20803
3.20049
3.18578
3.15727
3.11695
3.0686
3.01873
2.97834
2.96613
3.01666
3.20803
3.2005
3.18579
3.15728
3.11696
3.06861
3.01874
2.97836
2.96614
3.01667
3.20804
3.20051
3.18581
3.15729
3.11698
3.06862
3.01876
2.97837
2.96616
3.01669
3.20807
3.20053
3.18583
3.15732
3.117
3.06865
3.01879
2.9784
2.96618
3.01672
3.2081
3.20056
3.18586
3.15735
3.11704
3.06868
3.01882
2.97844
2.96622
3.01675
3.20814
15.8721
13.4707
12.5801
12.9142
14.4295
17.2373
21.599
27.9849
37.2394
51.0235
15.8721
13.4706
12.58
12.9141
14.4294
17.2371
21.5988
27.9848
37.2392
51.0232
15.872
13.4705
12.58
12.914
14.4293
17.237
21.5987
27.9846
37.239
51.0231
15.872
13.4705
12.5799
12.914
14.4293
17.237
21.5986
27.9845
37.2389
51.023
15.872
13.4704
12.5799
12.914
14.4292
17.2369
21.5986
27.9845
37.2389
51.0229
15.872
13.4704
12.5799
12.914
14.4292
17.2369
21.5986
27.9845
37.2389
51.0229
15.872
13.4705
12.5799
12.914
14.4293
17.237
21.5986
27.9845
37.2389
51.023
15.872
13.4705
12.58
12.914
14.4293
17.237
21.5987
27.9846
37.239
51.023
15.8721
13.4706
12.58
12.9141
14.4294
17.2371
21.5987
27.9847
37.2391
51.0232
15.8721
13.4706
12.5801
12.9141
14.4294
17.2371
21.5988
27.9848
37.2392
51.0233
14.085
12.5365
11.9656
12.3943
13.8689
16.5063
20.5107
26.1892
33.9457
44.1422
14.0849
12.5364
11.9655
12.3942
13.8688
16.5061
20.5106
26.189
33.9455
44.142
14.0848
12.5363
11.9654
12.3941
13.8687
16.506
20.5105
26.1889
33.9454
44.1419
14.0848
12.5363
11.9654
12.3941
13.8687
16.506
20.5104
26.1888
33.9453
44.1418
14.0848
12.5363
11.9654
12.394
13.8687
16.5059
20.5104
26.1888
33.9453
44.1417
14.0848
12.5363
11.9654
12.394
13.8687
16.5059
20.5104
26.1888
33.9452
44.1417
14.0848
12.5363
11.9654
12.3941
13.8687
16.506
20.5104
26.1888
33.9453
44.1418
14.0848
12.5363
11.9654
12.3941
13.8687
16.506
20.5105
26.1888
33.9454
44.1419
14.0849
12.5364
11.9655
12.3942
13.8688
16.5061
20.5105
26.1889
33.9455
44.142
14.085
12.5365
11.9656
12.3943
13.8689
16.5062
20.5107
26.1891
33.9456
44.1422
12.073
11.1887
10.9495
11.4771
12.8632
15.2138
18.6627
23.3585
29.4048
36.6893
12.073
11.1887
10.9494
11.477
12.8631
15.2137
18.6626
23.3583
29.4047
36.6891
12.0729
11.1886
10.9493
11.4769
12.863
15.2136
18.6625
23.3582
29.4045
36.689
12.0729
11.1886
10.9493
11.4769
12.863
15.2136
18.6624
23.3581
29.4044
36.6889
12.0729
11.1886
10.9493
11.4769
12.863
15.2135
18.6624
23.3581
29.4044
36.6889
12.0729
11.1886
10.9493
11.4769
12.8629
15.2135
18.6624
23.3581
29.4044
36.6889
12.0729
11.1886
10.9493
11.4769
12.863
15.2136
18.6624
23.3581
29.4044
36.6889
12.0729
11.1886
10.9493
11.4769
12.863
15.2136
18.6625
23.3582
29.4045
36.689
12.073
11.1887
10.9494
11.477
12.8631
15.2137
18.6626
23.3583
29.4046
36.6891
12.0731
11.1888
10.9495
11.4771
12.8632
15.2138
18.6627
23.3584
29.4048
36.6893
10.1885
9.73697
9.74178
10.3263
11.5835
13.5968
16.4418
20.1682
24.7489
29.9856
10.1884
9.73689
9.7417
10.3262
11.5834
13.5967
16.4417
20.1681
24.7487
29.9855
10.1884
9.73684
9.74164
10.3261
11.5834
13.5966
16.4416
20.168
24.7486
29.9853
10.1883
9.7368
9.7416
10.3261
11.5833
13.5965
16.4415
20.1679
24.7485
29.9853
10.1883
9.73678
9.74158
10.326
11.5833
13.5965
16.4415
20.1679
24.7485
29.9852
10.1883
9.73678
9.74158
10.326
11.5833
13.5965
16.4415
20.1679
24.7485
29.9852
10.1883
9.7368
9.74161
10.3261
11.5833
13.5965
16.4415
20.1679
24.7485
29.9853
10.1884
9.73684
9.74164
10.3261
11.5834
13.5966
16.4416
20.168
24.7486
29.9853
10.1884
9.7369
9.7417
10.3262
11.5834
13.5966
16.4417
20.1681
24.7487
29.9855
10.1885
9.73698
9.74178
10.3263
11.5835
13.5967
16.4418
20.1682
24.7489
29.9856
8.51776
8.33954
8.49951
9.09515
10.2021
11.8784
14.1607
17.0488
20.4761
24.2711
8.51769
8.33947
8.49944
9.09507
10.2021
11.8783
14.1606
17.0487
20.476
24.271
8.51765
8.33942
8.49938
9.09501
10.202
11.8783
14.1605
17.0486
20.4759
24.2709
8.51762
8.33938
8.49934
9.09497
10.2019
11.8782
14.1605
17.0485
20.4758
24.2708
8.5176
8.33937
8.49933
9.09495
10.2019
11.8782
14.1604
17.0485
20.4758
24.2708
8.51761
8.33937
8.49933
9.09495
10.2019
11.8782
14.1604
17.0485
20.4758
24.2708
8.51763
8.33939
8.49935
9.09497
10.2019
11.8782
14.1605
17.0485
20.4758
24.2708
8.51766
8.33943
8.49939
9.09501
10.202
11.8783
14.1605
17.0486
20.4759
24.2709
8.51771
8.33948
8.49944
9.09507
10.2021
11.8783
14.1606
17.0487
20.476
24.271
8.51778
8.33955
8.49952
9.09516
10.2021
11.8784
14.1607
17.0488
20.4761
24.2712
7.0832
7.08011
7.33175
7.90803
8.86383
10.2356
12.0358
14.2423
16.7853
19.5369
7.08314
7.08004
7.33168
7.90796
8.86374
10.2355
12.0357
14.2421
16.7852
19.5367
7.08309
7.08
7.33163
7.9079
8.86368
10.2355
12.0356
14.2421
16.7851
19.5366
7.08307
7.07997
7.3316
7.90786
8.86364
10.2354
12.0355
14.242
16.785
19.5366
7.08305
7.07995
7.33158
7.90785
8.86362
10.2354
12.0355
14.242
16.785
19.5365
7.08306
7.07996
7.33158
7.90785
8.86362
10.2354
12.0355
14.242
16.785
19.5365
7.08308
7.07997
7.3316
7.90787
8.86364
10.2354
12.0355
14.242
16.785
19.5366
7.08311
7.08001
7.33164
7.90791
8.86368
10.2355
12.0356
14.2421
16.7851
19.5367
7.08316
7.08006
7.33169
7.90797
8.86375
10.2355
12.0357
14.2422
16.7852
19.5368
7.08322
7.08013
7.33177
7.90804
8.86383
10.2356
12.0358
14.2423
16.7853
19.5369
5.88892
6.00626
6.31327
6.85813
7.67865
8.79547
10.2059
11.878
13.7466
15.7174
5.88887
6.00621
6.31321
6.85806
7.67857
8.79538
10.2058
11.8779
13.7465
15.7173
5.88883
6.00616
6.31316
6.858
7.67852
8.79532
10.2057
11.8778
13.7464
15.7172
5.8888
6.00614
6.31313
6.85797
7.67848
8.79528
10.2057
11.8778
13.7464
15.7172
5.88879
6.00612
6.31312
6.85796
7.67846
8.79526
10.2057
11.8777
13.7463
15.7171
5.8888
6.00613
6.31312
6.85796
7.67846
8.79526
10.2057
11.8778
13.7463
15.7171
5.88881
6.00615
6.31314
6.85798
7.67849
8.79529
10.2057
11.8778
13.7464
15.7172
5.88885
6.00618
6.31317
6.85802
7.67853
8.79533
10.2058
11.8778
13.7464
15.7172
5.88889
6.00623
6.31322
6.85807
7.67859
8.7954
10.2058
11.8779
13.7465
15.7173
5.88895
6.00629
6.31329
6.85814
7.67866
8.79548
10.2059
11.878
13.7466
15.7175
4.93354
5.14857
5.49635
6.01279
6.72567
7.64547
8.75943
10.0276
11.3834
12.7453
4.93349
5.14852
5.49629
6.01273
6.7256
7.64539
8.75934
10.0275
11.3833
12.7452
4.93346
5.14848
5.49625
6.01268
6.72555
7.64534
8.75928
10.0275
11.3832
12.7451
4.93344
5.14846
5.49622
6.01265
6.72552
7.6453
8.75924
10.0274
11.3831
12.745
4.93343
5.14845
5.49621
6.01264
6.7255
7.64528
8.75923
10.0274
11.3831
12.745
4.93343
5.14845
5.49621
6.01264
6.72551
7.64529
8.75923
10.0274
11.3831
12.745
4.93345
5.14847
5.49623
6.01266
6.72553
7.64531
8.75926
10.0274
11.3832
12.745
4.93348
5.1485
5.49626
6.01269
6.72557
7.64535
8.7593
10.0275
11.3832
12.7451
4.93352
5.14854
5.49631
6.01275
6.72562
7.64541
8.75937
10.0276
11.3833
12.7452
4.93357
5.1486
5.49637
6.01281
6.7257
7.6455
8.75946
10.0277
11.3834
12.7453
4.21896
4.53338
4.92035
5.42017
6.05986
6.84518
7.75596
8.74178
9.71965
10.5827
4.21892
4.53333
4.92029
5.42011
6.0598
6.84511
7.75588
8.74169
9.71956
10.5826
4.21888
4.5333
4.92026
5.42007
6.05975
6.84506
7.75583
8.74164
9.7195
10.5825
4.21887
4.53327
4.92023
5.42005
6.05972
6.84503
7.7558
8.7416
9.71946
10.5825
4.21886
4.53327
4.92022
5.42003
6.05971
6.84502
7.75578
8.74158
9.71944
10.5825
4.21886
4.53327
4.92023
5.42004
6.05971
6.84502
7.75578
8.74159
9.71945
10.5825
4.21888
4.53329
4.92024
5.42006
6.05973
6.84504
7.75581
8.74161
9.71948
10.5825
4.2189
4.53331
4.92028
5.42009
6.05977
6.84508
7.75585
8.74166
9.71953
10.5826
4.21894
4.53335
4.92032
5.42014
6.05982
6.84514
7.75592
8.74173
9.71961
10.5827
4.21899
4.53341
4.92038
5.4202
6.05989
6.84522
7.756
8.74183
9.71971
10.5828
3.77562
4.19689
4.61876
5.11406
5.71747
6.4343
7.23974
8.07257
8.82117
9.28965
3.77558
4.19686
4.61872
5.11402
5.71742
6.43424
7.23968
8.07251
8.82111
9.28958
3.77556
4.19683
4.61869
5.11398
5.71738
6.4342
7.23963
8.07246
8.82105
9.28952
3.77554
4.19681
4.61867
5.11396
5.71735
6.43417
7.2396
8.07242
8.82102
9.28949
3.77553
4.1968
4.61866
5.11395
5.71734
6.43416
7.23959
8.07241
8.821
9.28947
3.77554
4.1968
4.61866
5.11395
5.71735
6.43416
7.23959
8.07242
8.82101
9.28948
3.77555
4.19682
4.61868
5.11397
5.71737
6.43418
7.23962
8.07244
8.82104
9.28951
3.77558
4.19685
4.61871
5.114
5.7174
6.43422
7.23966
8.07249
8.82109
9.28956
3.77561
4.19689
4.61875
5.11405
5.71745
6.43428
7.23972
8.07256
8.82116
9.28963
3.77566
4.19694
4.61881
5.11411
5.71752
6.43436
7.2398
8.07264
8.82125
9.28973
73.1217
83.177
88.9996
92.8414
95.526
97.4365
98.7861
99.7059
100.278
100.553
73.1214
83.1767
88.9992
92.841
95.5256
97.4361
98.7858
99.7056
100.278
100.553
73.1212
83.1765
88.999
92.8408
95.5254
97.4359
98.7856
99.7053
100.278
100.553
73.1211
83.1764
88.9989
92.8407
95.5252
97.4358
98.7854
99.7052
100.278
100.553
73.121
83.1763
88.9988
92.8406
95.5252
97.4357
98.7854
99.7051
100.278
100.553
73.121
83.1763
88.9988
92.8406
95.5252
97.4357
98.7854
99.7052
100.278
100.553
73.1211
83.1764
88.9989
92.8407
95.5253
97.4358
98.7855
99.7053
100.278
100.553
73.1212
83.1765
88.999
92.8408
95.5254
97.436
98.7856
99.7054
100.278
100.553
73.1213
83.1767
88.9992
92.841
95.5257
97.4362
98.7859
99.7057
100.278
100.553
73.1215
83.1769
88.9995
92.8413
95.5259
97.4365
98.7862
99.706
100.279
100.553
56.2715
64.8707
70.6987
74.7227
77.5577
79.5706
80.9864
81.9474
82.5439
82.8296
56.2713
64.8705
70.6985
74.7224
77.5574
79.5703
80.9861
81.9471
82.5436
82.8294
56.2711
64.8703
70.6983
74.7222
77.5572
79.5701
80.9859
81.9469
82.5434
82.8292
56.271
64.8702
70.6981
74.7221
77.5571
79.57
80.9858
81.9468
82.5433
82.8291
56.2709
64.8701
70.6981
74.722
77.557
79.5699
80.9857
81.9467
82.5432
82.829
56.2709
64.8701
70.6981
74.722
77.557
79.5699
80.9857
81.9468
82.5433
82.8291
56.271
64.8702
70.6982
74.7221
77.5571
79.57
80.9858
81.9468
82.5433
82.8292
56.2711
64.8703
70.6983
74.7223
77.5572
79.5702
80.986
81.947
82.5435
82.8293
56.2712
64.8704
70.6985
74.7225
77.5575
79.5704
80.9862
81.9472
82.5438
82.8296
56.2715
64.8707
70.6987
74.7227
77.5577
79.5707
80.9865
81.9476
82.5441
82.8299
44.4898
51.0135
55.9897
59.6692
62.3594
64.3075
65.6922
66.6375
67.2259
67.5082
44.4896
51.0133
55.9895
59.669
62.3592
64.3073
65.692
66.6372
67.2257
67.508
44.4895
51.0131
55.9893
59.6688
62.359
64.3071
65.6918
66.637
67.2255
67.5079
44.4894
51.013
55.9892
59.6687
62.3589
64.307
65.6916
66.6369
67.2254
67.5078
44.4893
51.013
55.9891
59.6686
62.3588
64.3069
65.6916
66.6369
67.2254
67.5077
44.4893
51.013
55.9891
59.6686
62.3588
64.3069
65.6916
66.6369
67.2254
67.5078
44.4894
51.013
55.9892
59.6687
62.3589
64.307
65.6917
66.637
67.2255
67.5079
44.4895
51.0132
55.9893
59.6688
62.359
64.3071
65.6919
66.6371
67.2256
67.508
44.4896
51.0133
55.9895
59.669
62.3592
64.3074
65.6921
66.6374
67.2259
67.5083
44.4898
51.0135
55.9897
59.6693
62.3595
64.3076
65.6924
66.6376
67.2262
67.5086
35.3927
40.2376
44.2173
47.3333
49.7042
51.4675
52.743
53.6236
54.1757
54.4415
35.3925
40.2374
44.2171
47.3331
49.704
51.4673
52.7428
53.6233
54.1754
54.4414
35.3924
40.2372
44.2169
47.3329
49.7038
51.4671
52.7426
53.6232
54.1753
54.4412
35.3923
40.2371
44.2168
47.3328
49.7037
51.467
52.7425
53.6231
54.1752
54.4411
35.3923
40.2371
44.2168
47.3328
49.7037
51.467
52.7424
53.623
54.1751
54.4411
35.3923
40.2371
44.2168
47.3328
49.7037
51.467
52.7425
53.6231
54.1752
54.4411
35.3923
40.2372
44.2169
47.3329
49.7038
51.4671
52.7425
53.6231
54.1753
54.4412
35.3924
40.2373
44.217
47.333
49.7039
51.4672
52.7427
53.6233
54.1754
54.4414
35.3926
40.2374
44.2171
47.3332
49.7041
51.4674
52.7429
53.6235
54.1756
54.4416
35.3927
40.2376
44.2174
47.3334
49.7043
51.4676
52.7432
53.6238
54.1759
54.4419
28.1366
31.7155
34.7942
37.3111
39.2947
40.81
41.9279
42.7104
43.2055
43.4451
28.1365
31.7154
34.794
37.3109
39.2945
40.8098
41.9277
42.7102
43.2053
43.445
28.1363
31.7152
34.7939
37.3108
39.2944
40.8097
41.9275
42.71
43.2051
43.4449
28.1363
31.7151
34.7938
37.3107
39.2943
40.8096
41.9274
42.71
43.2051
43.4448
28.1362
31.7151
34.7938
37.3107
39.2942
40.8095
41.9274
42.7099
43.205
43.4448
28.1362
31.7151
34.7938
37.3107
39.2942
40.8096
41.9274
42.7099
43.2051
43.4448
28.1363
31.7152
34.7938
37.3107
39.2943
40.8096
41.9275
42.71
43.2051
43.4449
28.1364
31.7153
34.7939
37.3108
39.2944
40.8098
41.9276
42.7102
43.2053
43.445
28.1365
31.7154
34.7941
37.311
39.2946
40.8099
41.9278
42.7104
43.2055
43.4452
28.1367
31.7156
34.7943
37.3112
39.2948
40.8102
41.9281
42.7106
43.2057
43.4455
22.3177
24.9382
27.2624
29.2261
30.8207
32.0696
33.0092
33.6766
34.1032
34.3109
22.3176
24.938
27.2622
29.2259
30.8205
32.0695
33.0091
33.6765
34.103
34.3107
22.3174
24.9379
27.2621
29.2258
30.8204
32.0693
33.0089
33.6763
34.1029
34.3106
22.3174
24.9378
27.262
29.2257
30.8203
32.0692
33.0088
33.6763
34.1028
34.3106
22.3173
24.9378
27.262
29.2257
30.8203
32.0692
33.0088
33.6762
34.1028
34.3105
22.3174
24.9378
27.262
29.2257
30.8203
32.0692
33.0088
33.6763
34.1028
34.3106
22.3174
24.9379
27.2621
29.2257
30.8203
32.0693
33.0089
33.6763
34.1029
34.3106
22.3175
24.9379
27.2621
29.2258
30.8205
32.0694
33.009
33.6765
34.103
34.3108
22.3176
24.9381
27.2623
29.226
30.8206
32.0696
33.0092
33.6766
34.1032
34.3109
22.3178
24.9382
27.2625
29.2262
30.8208
32.0698
33.0094
33.6769
34.1034
34.3112
17.6852
19.5611
21.2668
22.7499
23.9877
24.9805
25.742
26.291
26.6454
26.8191
17.6851
19.5609
21.2666
22.7498
23.9876
24.9804
25.7419
26.2908
26.6453
26.819
17.685
19.5608
21.2665
22.7496
23.9875
24.9803
25.7417
26.2907
26.6452
26.8189
17.6849
19.5608
21.2664
22.7496
23.9874
24.9802
25.7417
26.2906
26.6451
26.8189
17.6849
19.5607
21.2664
22.7496
23.9874
24.9802
25.7417
26.2906
26.6451
26.8189
17.6849
19.5607
21.2664
22.7496
23.9874
24.9802
25.7417
26.2906
26.6451
26.8189
17.6849
19.5608
21.2665
22.7496
23.9874
24.9803
25.7417
26.2907
26.6452
26.8189
17.685
19.5609
21.2666
22.7497
23.9875
24.9804
25.7418
26.2908
26.6453
26.8191
17.6851
19.561
21.2667
22.7498
23.9877
24.9805
25.742
26.291
26.6455
26.8192
17.6852
19.5611
21.2668
22.75
23.9879
24.9807
25.7422
26.2912
26.6457
26.8194
14.0533
15.3244
16.522
17.6003
18.5279
19.2907
19.8876
20.3245
20.6096
20.7502
14.0531
15.3243
16.5218
17.6001