/*--------------------------------*- C++ -*----------------------------------*\
  =========                 |
  \\      /  F ield         | OpenFOAM: The Open Source CFD Toolbox
   \\    /   O peration     | Website:  https://openfoam.org
    \\  /    A nd           | Version:  6
     \\/     M anipulation  |
\*---------------------------------------------------------------------------*/
FoamFile
{
    version     2.0;
    format      ascii;
    class       volScalarField;
    location    "0.645";
    object      T;
}
// * * * * * * * * * * * * * * * * * * * * * * * * * * * * * * * * * * * * * //

dimensions      [0 0 0 1 0 0 0];

internalField   nonuniform List<scalar> 
7000
(
106.045
106.043
106.039
106.033
106.026
106.018
106.01
106.003
105.998
105.995
106.045
106.043
106.039
106.033
106.026
106.018
106.01
106.003
105.998
105.995
106.045
106.043
106.039
106.033
106.026
106.018
106.01
106.003
105.998
105.995
106.045
106.043
106.039
106.033
106.026
106.018
106.01
106.003
105.998
105.995
106.045
106.043
106.039
106.033
106.026
106.018
106.01
106.003
105.998
105.995
106.045
106.043
106.039
106.033
106.026
106.018
106.01
106.003
105.998
105.995
106.045
106.043
106.039
106.033
106.026
106.018
106.01
106.003
105.998
105.995
106.045
106.043
106.039
106.033
106.026
106.018
106.01
106.003
105.998
105.995
106.045
106.043
106.039
106.033
106.026
106.018
106.01
106.003
105.998
105.995
106.045
106.043
106.039
106.033
106.026
106.018
106.01
106.003
105.998
105.995
98.1657
98.1591
98.1462
98.1279
98.1056
98.0811
98.0567
98.035
98.0187
98.0099
98.1657
98.159
98.1462
98.1279
98.1056
98.0811
98.0567
98.035
98.0187
98.0099
98.1657
98.159
98.1461
98.1279
98.1056
98.0811
98.0567
98.035
98.0187
98.0099
98.1657
98.159
98.1461
98.1279
98.1056
98.0811
98.0567
98.035
98.0187
98.0099
98.1657
98.159
98.1461
98.1279
98.1056
98.0811
98.0567
98.035
98.0187
98.0099
98.1657
98.159
98.1461
98.1279
98.1056
98.0811
98.0567
98.035
98.0187
98.0099
98.1657
98.159
98.1461
98.1279
98.1056
98.0811
98.0567
98.035
98.0187
98.0099
98.1657
98.159
98.1461
98.1279
98.1056
98.0811
98.0567
98.035
98.0187
98.0099
98.1657
98.159
98.1461
98.1279
98.1056
98.0811
98.0567
98.035
98.0187
98.0099
98.1657
98.159
98.1461
98.1279
98.1056
98.0811
98.0567
98.035
98.0187
98.0099
90.3765
90.365
90.3426
90.3109
90.2719
90.2288
90.1854
90.1466
90.1171
90.1012
90.3765
90.3649
90.3426
90.3109
90.2719
90.2287
90.1854
90.1466
90.1171
90.1011
90.3764
90.3649
90.3426
90.3109
90.2719
90.2287
90.1854
90.1466
90.1171
90.1011
90.3764
90.3649
90.3426
90.3108
90.2718
90.2287
90.1854
90.1466
90.1171
90.1011
90.3764
90.3649
90.3426
90.3108
90.2718
90.2287
90.1854
90.1466
90.1171
90.1011
90.3764
90.3649
90.3426
90.3108
90.2718
90.2287
90.1854
90.1466
90.1171
90.1011
90.3764
90.3649
90.3426
90.3108
90.2718
90.2287
90.1854
90.1466
90.1171
90.1011
90.3764
90.3649
90.3426
90.3108
90.2718
90.2287
90.1854
90.1466
90.1171
90.1011
90.3764
90.3649
90.3426
90.3109
90.2719
90.2287
90.1854
90.1466
90.1171
90.1011
90.3764
90.3649
90.3426
90.3109
90.2719
90.2287
90.1854
90.1466
90.1171
90.1012
82.7359
82.719
82.686
82.6389
82.5804
82.5151
82.4486
82.3882
82.3417
82.3163
82.7359
82.7189
82.686
82.6388
82.5804
82.5151
82.4486
82.3882
82.3417
82.3162
82.7358
82.7189
82.686
82.6388
82.5804
82.515
82.4486
82.3882
82.3417
82.3162
82.7358
82.7189
82.6859
82.6388
82.5804
82.515
82.4486
82.3881
82.3416
82.3162
82.7358
82.7189
82.6859
82.6388
82.5804
82.515
82.4486
82.3881
82.3416
82.3162
82.7358
82.7189
82.6859
82.6388
82.5804
82.515
82.4486
82.3881
82.3416
82.3162
82.7358
82.7189
82.6859
82.6388
82.5804
82.515
82.4486
82.3881
82.3416
82.3162
82.7358
82.7189
82.6859
82.6388
82.5804
82.515
82.4486
82.3882
82.3417
82.3162
82.7358
82.7189
82.686
82.6388
82.5804
82.5151
82.4486
82.3882
82.3417
82.3162
82.7358
82.7189
82.686
82.6388
82.5804
82.5151
82.4486
82.3882
82.3417
82.3163
75.2999
75.2769
75.2318
75.1668
75.0852
74.9925
74.8965
74.8073
74.7371
74.6981
75.2999
75.2769
75.2318
75.1667
75.0852
74.9925
74.8964
74.8072
74.7371
74.6981
75.2998
75.2768
75.2318
75.1667
75.0852
74.9925
74.8964
74.8072
74.7371
74.698
75.2998
75.2768
75.2317
75.1667
75.0851
74.9925
74.8964
74.8072
74.7371
74.698
75.2998
75.2768
75.2317
75.1667
75.0851
74.9924
74.8964
74.8072
74.7371
74.698
75.2998
75.2768
75.2317
75.1667
75.0851
74.9924
74.8964
74.8072
74.7371
74.698
75.2998
75.2768
75.2317
75.1667
75.0851
74.9924
74.8964
74.8072
74.7371
74.698
75.2998
75.2768
75.2317
75.1667
75.0851
74.9925
74.8964
74.8072
74.7371
74.698
75.2998
75.2768
75.2318
75.1667
75.0852
74.9925
74.8964
74.8072
74.7371
74.6981
75.2999
75.2769
75.2318
75.1667
75.0852
74.9925
74.8964
74.8073
74.7371
74.6981
68.1212
68.0913
68.0326
67.9469
67.8377
67.7111
67.5763
67.4473
67.3424
67.2823
68.1211
68.0913
68.0325
67.9468
67.8377
67.711
67.5763
67.4472
67.3423
67.2822
68.1211
68.0912
68.0325
67.9468
67.8376
67.711
67.5762
67.4472
67.3423
67.2822
68.1211
68.0912
68.0325
67.9468
67.8376
67.711
67.5762
67.4472
67.3423
67.2822
68.121
68.0912
68.0325
67.9467
67.8376
67.711
67.5762
67.4471
67.3423
67.2822
68.121
68.0912
68.0325
67.9467
67.8376
67.711
67.5762
67.4471
67.3423
67.2822
68.121
68.0912
68.0325
67.9468
67.8376
67.711
67.5762
67.4472
67.3423
67.2822
68.1211
68.0912
68.0325
67.9468
67.8376
67.711
67.5762
67.4472
67.3423
67.2822
68.1211
68.0913
68.0325
67.9468
67.8377
67.711
67.5763
67.4472
67.3423
67.2822
68.1211
68.0913
68.0325
67.9468
67.8377
67.7111
67.5763
67.4472
67.3424
67.2823
61.2479
61.2108
61.1371
61.0282
60.887
60.7187
60.5332
60.3476
60.1889
60.0932
61.2478
61.2107
61.137
61.0282
60.8869
60.7186
60.5332
60.3476
60.1889
60.0932
61.2478
61.2107
61.137
61.0282
60.8869
60.7186
60.5331
60.3475
60.1889
60.0932
61.2478
61.2106
61.137
61.0281
60.8869
60.7186
60.5331
60.3475
60.1888
60.0931
61.2478
61.2106
61.137
61.0281
60.8868
60.7185
60.5331
60.3475
60.1888
60.0931
61.2478
61.2106
61.137
61.0281
60.8868
60.7185
60.5331
60.3475
60.1888
60.0931
61.2478
61.2106
61.137
61.0281
60.8869
60.7186
60.5331
60.3475
60.1888
60.0931
61.2478
61.2107
61.137
61.0281
60.8869
60.7186
60.5331
60.3475
60.1888
60.0932
61.2478
61.2107
61.137
61.0282
60.8869
60.7186
60.5331
60.3476
60.1889
60.0932
61.2478
61.2107
61.1371
61.0282
60.887
60.7187
60.5332
60.3476
60.1889
60.0932
54.7232
54.6787
54.5898
54.4566
54.2798
54.0625
53.8121
53.5459
53.2998
53.1373
54.7232
54.6787
54.5898
54.4565
54.2798
54.0625
53.812
53.5458
53.2997
53.1372
54.7231
54.6786
54.5897
54.4565
54.2797
54.0624
53.812
53.5458
53.2997
53.1372
54.7231
54.6786
54.5897
54.4564
54.2797
54.0624
53.812
53.5458
53.2996
53.1372
54.7231
54.6786
54.5897
54.4564
54.2797
54.0624
53.812
53.5458
53.2996
53.1372
54.7231
54.6786
54.5897
54.4564
54.2797
54.0624
53.812
53.5458
53.2996
53.1372
54.7231
54.6786
54.5897
54.4564
54.2797
54.0624
53.812
53.5458
53.2996
53.1372
54.7231
54.6786
54.5897
54.4565
54.2797
54.0624
53.812
53.5458
53.2997
53.1372
54.7231
54.6787
54.5897
54.4565
54.2798
54.0624
53.812
53.5458
53.2997
53.1372
54.7232
54.6787
54.5898
54.4565
54.2798
54.0625
53.8121
53.5459
53.2998
53.1373
48.584
48.5329
48.43
48.2736
48.0614
47.7911
47.4627
47.0845
46.6916
46.3862
48.5839
48.5329
48.4299
48.2735
48.0613
47.791
47.4626
47.0845
46.6915
46.3862
48.5839
48.5328
48.4299
48.2735
48.0613
47.791
47.4626
47.0844
46.6915
46.3861
48.5839
48.5328
48.4299
48.2734
48.0612
47.791
47.4625
47.0844
46.6914
46.3861
48.5839
48.5328
48.4299
48.2734
48.0612
47.7909
47.4625
47.0844
46.6914
46.3861
48.5839
48.5328
48.4299
48.2734
48.0612
47.7909
47.4625
47.0844
46.6914
46.3861
48.5839
48.5328
48.4299
48.2734
48.0612
47.791
47.4625
47.0844
46.6914
46.3861
48.5839
48.5328
48.4299
48.2735
48.0613
47.791
47.4625
47.0844
46.6915
46.3861
48.5839
48.5328
48.4299
48.2735
48.0613
47.791
47.4626
47.0845
46.6915
46.3862
48.5839
48.5329
48.43
48.2736
48.0613
47.7911
47.4626
47.0845
46.6916
46.3862
42.8599
42.8039
42.6904
42.5159
42.2743
41.9562
41.5474
41.0297
40.3946
39.734
42.8598
42.8038
42.6904
42.5158
42.2743
41.9562
41.5474
41.0296
40.3945
39.7339
42.8598
42.8038
42.6903
42.5158
42.2742
41.9561
41.5473
41.0295
40.3945
39.7339
42.8597
42.8038
42.6903
42.5158
42.2742
41.9561
41.5473
41.0295
40.3944
39.7338
42.8597
42.8038
42.6903
42.5157
42.2742
41.9561
41.5473
41.0295
40.3944
39.7338
42.8597
42.8038
42.6903
42.5157
42.2742
41.9561
41.5473
41.0295
40.3944
39.7338
42.8597
42.8038
42.6903
42.5158
42.2742
41.9561
41.5473
41.0295
40.3944
39.7338
42.8598
42.8038
42.6903
42.5158
42.2742
41.9561
41.5473
41.0295
40.3945
39.7339
42.8598
42.8038
42.6903
42.5158
42.2743
41.9562
41.5474
41.0296
40.3945
39.7339
42.8598
42.8039
42.6904
42.5159
42.2743
41.9562
41.5474
41.0296
40.3946
39.734
37.5721
37.5139
37.3956
37.2125
36.9561
36.611
36.1487
35.5101
34.5535
32.8634
37.572
37.5139
37.3956
37.2125
36.956
36.6109
36.1486
35.5101
34.5535
32.8633
37.572
37.5138
37.3955
37.2124
36.956
36.6109
36.1485
35.51
34.5534
32.8632
37.5719
37.5138
37.3955
37.2124
36.956
36.6109
36.1485
35.51
34.5534
32.8632
37.5719
37.5138
37.3955
37.2124
36.956
36.6108
36.1485
35.51
34.5534
32.8632
37.5719
37.5138
37.3955
37.2124
36.956
36.6108
36.1485
35.51
34.5534
32.8632
37.5719
37.5138
37.3955
37.2124
36.956
36.6109
36.1485
35.51
34.5534
32.8632
37.5719
37.5138
37.3955
37.2124
36.956
36.6109
36.1485
35.51
34.5534
32.8632
37.572
37.5138
37.3956
37.2125
36.956
36.6109
36.1486
35.5101
34.5534
32.8633
37.572
37.5139
37.3956
37.2125
36.9561
36.611
36.1486
35.5101
34.5535
32.8633
32.7324
32.6755
32.5598
32.381
32.1312
31.796
31.3501
30.7474
29.9048
28.6941
32.7324
32.6755
32.5598
32.381
32.1311
31.7959
31.3501
30.7474
29.9047
28.694
32.7323
32.6754
32.5597
32.3809
32.131
31.7959
31.35
30.7473
29.9047
28.6939
32.7323
32.6754
32.5597
32.3809
32.131
31.7958
31.35
30.7473
29.9046
28.6939
32.7323
32.6754
32.5597
32.3809
32.131
31.7958
31.35
30.7473
29.9046
28.6939
32.7323
32.6754
32.5597
32.3809
32.131
31.7958
31.35
30.7473
29.9046
28.6939
32.7323
32.6754
32.5597
32.3809
32.131
31.7958
31.35
30.7473
29.9046
28.6939
32.7323
32.6754
32.5597
32.3809
32.131
31.7959
31.35
30.7473
29.9046
28.6939
32.7324
32.6754
32.5598
32.381
32.1311
31.7959
31.3501
30.7474
29.9047
28.694
32.7324
32.6755
32.5598
32.381
32.1311
31.796
31.3501
30.7474
29.9048
28.6941
28.3432
28.2909
28.1853
28.0238
27.8019
27.5118
27.1418
26.6755
26.0983
25.4292
28.3431
28.2908
28.1852
28.0237
27.8018
27.5118
27.1418
26.6754
26.0982
25.4291
28.3431
28.2908
28.1852
28.0237
27.8017
27.5117
27.1417
26.6754
26.0982
25.429
28.343
28.2908
28.1852
28.0237
27.8017
27.5117
27.1417
26.6753
26.0982
25.429
28.343
28.2907
28.1851
28.0237
27.8017
27.5117
27.1417
26.6753
26.0981
25.429
28.343
28.2907
28.1851
28.0237
27.8017
27.5117
27.1417
26.6753
26.0981
25.429
28.343
28.2908
28.1852
28.0237
27.8017
27.5117
27.1417
26.6753
26.0982
25.429
28.343
28.2908
28.1852
28.0237
27.8017
27.5117
27.1417
26.6754
26.0982
25.429
28.3431
28.2908
28.1852
28.0237
27.8018
27.5118
27.1417
26.6754
26.0982
25.4291
28.3431
28.2909
28.1853
28.0238
27.8018
27.5118
27.1418
26.6755
26.0983
25.4291
24.397
24.3522
24.2628
24.1288
23.9504
23.7284
23.4652
23.1688
22.8629
22.6098
24.3969
24.3522
24.2628
24.1287
23.9503
23.7283
23.4651
23.1687
22.8629
22.6097
24.3969
24.3521
24.2627
24.1287
23.9503
23.7283
23.4651
23.1687
22.8628
22.6097
24.3969
24.3521
24.2627
24.1287
23.9503
23.7282
23.465
23.1687
22.8628
22.6096
24.3969
24.3521
24.2627
24.1287
23.9503
23.7282
23.465
23.1686
22.8627
22.6096
24.3969
24.3521
24.2627
24.1287
23.9503
23.7282
23.465
23.1686
22.8627
22.6096
24.3969
24.3521
24.2627
24.1287
23.9503
23.7282
23.465
23.1687
22.8628
22.6096
24.3969
24.3521
24.2627
24.1287
23.9503
23.7283
23.465
23.1687
22.8628
22.6097
24.3969
24.3522
24.2627
24.1287
23.9503
23.7283
23.4651
23.1687
22.8628
22.6097
24.397
24.3522
24.2628
24.1288
23.9504
23.7284
23.4652
23.1688
22.8629
22.6098
20.8785
20.843
20.7735
20.6728
20.5459
20.4012
20.2523
20.1223
20.0506
20.1034
20.8784
20.843
20.7735
20.6728
20.5459
20.4011
20.2522
20.1223
20.0506
20.1033
20.8784
20.8429
20.7734
20.6727
20.5458
20.4011
20.2522
20.1222
20.0505
20.1033
20.8783
20.8429
20.7734
20.6727
20.5458
20.401
20.2521
20.1222
20.0505
20.1032
20.8783
20.8429
20.7734
20.6727
20.5458
20.401
20.2521
20.1222
20.0504
20.1032
20.8783
20.8429
20.7734
20.6727
20.5458
20.401
20.2521
20.1222
20.0504
20.1032
20.8783
20.8429
20.7734
20.6727
20.5458
20.401
20.2521
20.1222
20.0505
20.1032
20.8784
20.8429
20.7734
20.6727
20.5458
20.4011
20.2522
20.1222
20.0505
20.1033
20.8784
20.843
20.7735
20.6728
20.5459
20.4011
20.2522
20.1223
20.0506
20.1033
20.8784
20.843
20.7735
20.6728
20.5459
20.4012
20.2523
20.1223
20.0506
20.1034
17.7655
17.7401
17.6916
17.6256
17.551
17.4821
17.4405
17.4582
17.5802
17.866
17.7655
17.74
17.6916
17.6255
17.5509
17.482
17.4405
17.4582
17.5801
17.8659
17.7654
17.74
17.6915
17.6255
17.5509
17.482
17.4404
17.4581
17.5801
17.8659
17.7654
17.7399
17.6915
17.6255
17.5509
17.482
17.4404
17.4581
17.58
17.8658
17.7654
17.7399
17.6915
17.6255
17.5508
17.4819
17.4404
17.4581
17.58
17.8658
17.7654
17.7399
17.6915
17.6255
17.5508
17.4819
17.4404
17.4581
17.58
17.8658
17.7654
17.7399
17.6915
17.6255
17.5509
17.482
17.4404
17.4581
17.58
17.8658
17.7654
17.74
17.6915
17.6255
17.5509
17.482
17.4404
17.4581
17.5801
17.8659
17.7655
17.74
17.6916
17.6255
17.5509
17.482
17.4405
17.4582
17.5801
17.8659
17.7655
17.74
17.6916
17.6256
17.551
17.4821
17.4405
17.4582
17.5802
17.866
15.0315
15.0156
14.987
14.9531
14.9257
14.9236
14.9741
15.1154
15.3975
15.8765
15.0315
15.0155
14.987
14.953
14.9257
14.9236
14.974
15.1154
15.3975
15.8765
15.0314
15.0155
14.9869
14.953
14.9256
14.9235
14.974
15.1153
15.3974
15.8764
15.0314
15.0154
14.9869
14.953
14.9256
14.9235
14.9739
15.1153
15.3974
15.8764
15.0314
15.0154
14.9869
14.9529
14.9256
14.9235
14.9739
15.1153
15.3974
15.8764
15.0314
15.0154
14.9869
14.9529
14.9256
14.9235
14.9739
15.1153
15.3974
15.8764
15.0314
15.0154
14.9869
14.953
14.9256
14.9235
14.9739
15.1153
15.3974
15.8764
15.0314
15.0155
14.9869
14.953
14.9256
14.9235
14.974
15.1153
15.3974
15.8764
15.0315
15.0155
14.987
14.953
14.9257
14.9236
14.974
15.1154
15.3975
15.8765
15.0315
15.0155
14.987
14.9531
14.9257
14.9236
14.9741
15.1154
15.3975
15.8765
12.647
12.6392
12.6275
12.6201
12.6307
12.6806
12.8012
13.0377
13.4506
14.1089
12.647
12.6392
12.6275
12.62
12.6307
12.6805
12.8012
13.0376
13.4505
14.1088
12.647
12.6392
12.6274
12.62
12.6306
12.6805
12.8011
13.0376
13.4505
14.1088
12.6469
12.6391
12.6274
12.62
12.6306
12.6805
12.8011
13.0376
13.4504
14.1087
12.6469
12.6391
12.6274
12.62
12.6306
12.6805
12.8011
13.0375
13.4504
14.1087
12.6469
12.6391
12.6274
12.62
12.6306
12.6805
12.8011
13.0376
13.4504
14.1087
12.6469
12.6391
12.6274
12.62
12.6306
12.6805
12.8011
13.0376
13.4504
14.1088
12.647
12.6392
12.6274
12.62
12.6306
12.6805
12.8012
13.0376
13.4505
14.1088
12.647
12.6392
12.6275
12.62
12.6307
12.6806
12.8012
13.0376
13.4505
14.1088
12.647
12.6392
12.6275
12.6201
12.6307
12.6806
12.8012
13.0377
13.4506
14.1089
10.5816
10.5801
10.5809
10.5925
10.6288
10.7114
10.8734
11.1654
11.6672
12.4999
10.5816
10.58
10.5809
10.5925
10.6288
10.7114
10.8733
11.1654
11.6672
12.4999
10.5815
10.58
10.5808
10.5924
10.6287
10.7113
10.8733
11.1653
11.6672
12.4998
10.5815
10.58
10.5808
10.5924
10.6287
10.7113
10.8733
11.1653
11.6671
12.4998
10.5815
10.58
10.5808
10.5924
10.6287
10.7113
10.8732
11.1653
11.6671
12.4998
10.5815
10.58
10.5808
10.5924
10.6287
10.7113
10.8732
11.1653
11.6671
12.4998
10.5815
10.58
10.5808
10.5924
10.6287
10.7113
10.8733
11.1653
11.6671
12.4998
10.5815
10.58
10.5809
10.5924
10.6287
10.7114
10.8733
11.1653
11.6672
12.4998
10.5816
10.58
10.5809
10.5925
10.6288
10.7114
10.8733
11.1654
11.6672
12.4999
10.5816
10.5801
10.5809
10.5925
10.6288
10.7114
10.8734
11.1654
11.6673
12.4999
8.80514
8.80772
8.81651
8.83902
8.88767
8.98138
9.14898
9.43706
9.93367
10.8548
8.8051
8.80769
8.81647
8.83898
8.88763
8.98134
9.14894
9.43701
9.93362
10.8548
8.80507
8.80766
8.81644
8.83896
8.8876
8.98131
9.14891
9.43698
9.93359
10.8548
8.80506
8.80764
8.81642
8.83894
8.88758
8.98129
9.14889
9.43696
9.93357
10.8547
8.80505
8.80763
8.81641
8.83893
8.88757
8.98128
9.14888
9.43695
9.93356
10.8547
8.80505
8.80763
8.81641
8.83893
8.88757
8.98129
9.14888
9.43695
9.93356
10.8547
8.80506
8.80764
8.81643
8.83894
8.88759
8.9813
9.14889
9.43697
9.93357
10.8547
8.80507
8.80766
8.81645
8.83896
8.88761
8.98132
9.14892
9.43699
9.9336
10.8548
8.8051
8.80769
8.81647
8.83899
8.88764
8.98136
9.14895
9.43703
9.93364
10.8548
8.80513
8.80772
8.81651
8.83904
8.88768
8.9814
9.149
9.43708
9.93369
10.8549
28.9606
27.4787
27.6617
29.264
32.2653
36.7895
43.1047
51.6873
63.3971
79.9491
28.9605
27.4786
27.6616
29.2639
32.2652
36.7894
43.1046
51.6871
63.3969
79.949
28.9605
27.4785
27.6615
29.2638
32.2651
36.7893
43.1045
51.687
63.3968
79.9489
28.9604
27.4785
27.6614
29.2638
32.2651
36.7892
43.1044
51.687
63.3967
79.9488
28.9604
27.4784
27.6614
29.2637
32.265
36.7892
43.1044
51.6869
63.3967
79.9487
28.9604
27.4784
27.6614
29.2637
32.265
36.7892
43.1044
51.6869
63.3967
79.9487
28.9604
27.4785
27.6614
29.2638
32.265
36.7892
43.1044
51.6869
63.3967
79.9488
28.9604
27.4785
27.6614
29.2638
32.2651
36.7892
43.1045
51.687
63.3968
79.9488
28.9605
27.4785
27.6615
29.2639
32.2652
36.7893
43.1045
51.6871
63.3968
79.9489
28.9606
27.4786
27.6616
29.2639
32.2652
36.7894
43.1046
51.6872
63.3969
79.949
27.0851
26.4103
26.8896
28.5647
31.4966
35.8094
41.7076
49.4909
59.5475
72.2005
27.085
26.4102
26.8895
28.5646
31.4965
35.8093
41.7074
49.4907
59.5473
72.2004
27.085
26.4102
26.8894
28.5645
31.4964
35.8092
41.7073
49.4906
59.5472
72.2003
27.0849
26.4101
26.8893
28.5644
31.4963
35.8091
41.7073
49.4906
59.5471
72.2002
27.0849
26.4101
26.8893
28.5644
31.4963
35.8091
41.7072
49.4905
59.5471
72.2001
27.0849
26.4101
26.8893
28.5644
31.4963
35.8091
41.7072
49.4905
59.5471
72.2001
27.0849
26.4101
26.8893
28.5644
31.4963
35.8091
41.7072
49.4905
59.5471
72.2002
27.085
26.4102
26.8894
28.5644
31.4964
35.8091
41.7073
49.4906
59.5472
72.2002
27.085
26.4102
26.8894
28.5645
31.4964
35.8092
41.7074
49.4907
59.5473
72.2003
27.0851
26.4103
26.8895
28.5646
31.4965
35.8093
41.7075
49.4908
59.5474
72.2005
24.8249
24.784
25.5664
27.3045
30.0967
34.0496
39.2888
45.9441
54.0841
63.5321
24.8249
24.7839
25.5663
27.3044
30.0966
34.0495
39.2887
45.944
54.0839
63.5319
24.8248
24.7838
25.5662
27.3043
30.0965
34.0494
39.2886
45.9439
54.0838
63.5318
24.8248
24.7838
25.5662
27.3042
30.0964
34.0493
39.2885
45.9438
54.0837
63.5317
24.8247
24.7838
25.5662
27.3042
30.0964
34.0493
39.2885
45.9438
54.0837
63.5317
24.8247
24.7838
25.5662
27.3042
30.0964
34.0493
39.2885
45.9437
54.0837
63.5317
24.8248
24.7838
25.5662
27.3042
30.0964
34.0493
39.2885
45.9438
54.0837
63.5317
24.8248
24.7838
25.5662
27.3043
30.0965
34.0493
39.2886
45.9438
54.0838
63.5318
24.8248
24.7839
25.5663
27.3043
30.0965
34.0494
39.2887
45.9439
54.0839
63.5319
24.8249
24.784
25.5664
27.3044
30.0966
34.0495
39.2888
45.944
54.084
63.532
22.5506
22.9266
23.9266
25.6787
28.2768
31.7985
36.3051
41.8204
48.277
55.4166
22.5505
22.9265
23.9265
25.6786
28.2767
31.7984
36.305
41.8203
48.2768
55.4164
22.5504
22.9265
23.9264
25.6785
28.2766
31.7983
36.3049
41.8202
48.2767
55.4163
22.5504
22.9264
23.9264
25.6784
28.2766
31.7983
36.3048
41.8201
48.2767
55.4162
22.5504
22.9264
23.9263
25.6784
28.2766
31.7982
36.3048
41.8201
48.2766
55.4162
22.5504
22.9264
23.9263
25.6784
28.2766
31.7982
36.3048
41.8201
48.2766
55.4162
22.5504
22.9264
23.9264
25.6784
28.2766
31.7983
36.3048
41.8201
48.2767
55.4162
22.5504
22.9264
23.9264
25.6785
28.2766
31.7983
36.3049
41.8202
48.2767
55.4163
22.5505
22.9265
23.9265
25.6785
28.2767
31.7984
36.3049
41.8203
48.2768
55.4164
22.5506
22.9266
23.9266
25.6786
28.2768
31.7985
36.3051
41.8204
48.277
55.4165
20.3844
21.0301
22.1645
23.8846
26.2617
29.343
33.1463
37.6427
42.7269
48.1786
20.3844
21.03
22.1644
23.8845
26.2616
29.3429
33.1462
37.6426
42.7268
48.1785
20.3843
21.0299
22.1643
23.8844
26.2615
29.3428
33.1461
37.6425
42.7267
48.1784
20.3843
21.0299
22.1643
23.8844
26.2614
29.3428
33.146
37.6424
42.7266
48.1783
20.3842
21.0299
22.1642
23.8843
26.2614
29.3427
33.146
37.6424
42.7266
48.1783
20.3842
21.0299
22.1642
23.8843
26.2614
29.3427
33.146
37.6424
42.7266
48.1783
20.3843
21.0299
22.1643
23.8844
26.2614
29.3428
33.146
37.6424
42.7266
48.1783
20.3843
21.0299
22.1643
23.8844
26.2615
29.3428
33.1461
37.6425
42.7267
48.1784
20.3843
21.03
22.1644
23.8845
26.2616
29.3429
33.1462
37.6426
42.7268
48.1785
20.3844
21.0301
22.1645
23.8846
26.2617
29.343
33.1463
37.6427
42.7269
48.1786
18.3871
19.2186
20.4344
22.098
24.2554
26.9284
30.1074
33.7402
37.7208
41.8835
18.387
19.2186
20.4343
22.0979
24.2553
26.9283
30.1073
33.7401
37.7207
41.8834
18.3869
19.2185
20.4343
22.0978
24.2552
26.9283
30.1072
33.74
37.7206
41.8833
18.3869
19.2185
20.4342
22.0978
24.2551
26.9282
30.1072
33.74
37.7205
41.8832
18.3869
19.2184
20.4342
22.0978
24.2551
26.9282
30.1072
33.7399
37.7205
41.8832
18.3869
19.2184
20.4342
22.0978
24.2551
26.9282
30.1072
33.7399
37.7205
41.8832
18.3869
19.2185
20.4342
22.0978
24.2551
26.9282
30.1072
33.74
37.7205
41.8833
18.3869
19.2185
20.4343
22.0978
24.2552
26.9282
30.1072
33.74
37.7206
41.8833
18.387
19.2186
20.4343
22.0979
24.2552
26.9283
30.1073
33.7401
37.7207
41.8834
18.3871
19.2186
20.4344
22.098
24.2553
26.9284
30.1074
33.7402
37.7208
41.8836
16.5989
17.5833
18.8605
20.4673
22.4299
24.752
27.4059
30.3267
33.4129
36.5395
16.5989
17.5832
18.8604
20.4672
22.4298
24.7519
27.4058
30.3266
33.4128
36.5394
16.5988
17.5831
18.8604
20.4671
22.4297
24.7518
27.4057
30.3265
33.4127
36.5393
16.5988
17.5831
18.8603
20.4671
22.4297
24.7518
27.4056
30.3264
33.4126
36.5392
16.5987
17.5831
18.8603
20.467
22.4296
24.7517
27.4056
30.3264
33.4126
36.5392
16.5987
17.5831
18.8603
20.467
22.4296
24.7517
27.4056
30.3264
33.4126
36.5392
16.5988
17.5831
18.8603
20.4671
22.4297
24.7518
27.4056
30.3264
33.4126
36.5392
16.5988
17.5831
18.8604
20.4671
22.4297
24.7518
27.4057
30.3265
33.4127
36.5393
16.5989
17.5832
18.8604
20.4672
22.4298
24.7519
27.4058
30.3266
33.4128
36.5394
16.5989
17.5833
18.8605
20.4673
22.4299
24.752
27.4059
30.3267
33.4129
36.5395
15.0522
16.2001
17.5464
19.1154
20.9253
22.9694
25.2068
27.5585
29.9135
32.1552
15.0521
16.2
17.5463
19.1153
20.9252
22.9693
25.2067
27.5584
29.9134
32.1551
15.052
16.2
17.5463
19.1152
20.9251
22.9692
25.2066
27.5583
29.9133
32.155
15.052
16.1999
17.5462
19.1152
20.9251
22.9692
25.2066
27.5583
29.9132
32.155
15.052
16.1999
17.5462
19.1152
20.9251
22.9692
25.2065
27.5582
29.9132
32.155
15.052
16.1999
17.5462
19.1152
20.9251
22.9692
25.2065
27.5582
29.9132
32.155
15.052
16.2
17.5462
19.1152
20.9251
22.9692
25.2066
27.5583
29.9133
32.155
15.0521
16.2
17.5463
19.1152
20.9251
22.9693
25.2066
27.5583
29.9133
32.1551
15.0521
16.2
17.5463
19.1153
20.9252
22.9693
25.2067
27.5584
29.9134
32.1552
15.0522
16.2001
17.5464
19.1154
20.9253
22.9694
25.2068
27.5585
29.9135
32.1553
13.786
15.1486
16.5852
18.1438
19.8525
21.703
23.6436
25.5744
27.3469
28.7843
13.7859
15.1485
16.5851
18.1437
19.8524
21.7029
23.6435
25.5743
27.3468
28.7842
13.7859
15.1484
16.5851
18.1437
19.8524
21.7029
23.6434
25.5742
27.3467
28.7841
13.7858
15.1484
16.5851
18.1436
19.8523
21.7028
23.6433
25.5741
27.3466
28.7841
13.7858
15.1484
16.585
18.1436
19.8523
21.7028
23.6433
25.5741
27.3466
28.7841
13.7858
15.1484
16.585
18.1436
19.8523
21.7028
23.6433
25.5741
27.3466
28.7841
13.7858
15.1484
16.5851
18.1436
19.8523
21.7028
23.6434
25.5741
27.3467
28.7841
13.7859
15.1485
16.5851
18.1437
19.8524
21.7029
23.6434
25.5742
27.3467
28.7842
13.7859
15.1485
16.5852
18.1437
19.8525
21.703
23.6435
25.5743
27.3468
28.7843
13.786
15.1486
16.5852
18.1438
19.8526
21.7031
23.6436
25.5744
27.3469
28.7844
12.9099
14.5393
16.0665
17.6329
19.2933
21.0438
22.8257
24.5174
25.9106
26.6478
12.9098
14.5392
16.0665
17.6328
19.2932
21.0437
22.8257
24.5173
25.9105
26.6477
12.9098
14.5392
16.0664
17.6327
19.2931
21.0437
22.8256
24.5173
25.9105
26.6476
12.9097
14.5391
16.0664
17.6327
19.2931
21.0436
22.8256
24.5172
25.9104
26.6476
12.9097
14.5391
16.0664
17.6327
19.2931
21.0436
22.8255
24.5172
25.9104
26.6476
12.9097
14.5391
16.0664
17.6327
19.2931
21.0436
22.8255
24.5172
25.9104
26.6476
12.9097
14.5391
16.0664
17.6327
19.2931
21.0436
22.8256
24.5173
25.9104
26.6476
12.9098
14.5392
16.0664
17.6328
19.2932
21.0437
22.8256
24.5173
25.9105
26.6477
12.9098
14.5392
16.0665
17.6328
19.2932
21.0438
22.8257
24.5174
25.9106
26.6478
12.9099
14.5393
16.0666
17.6329
19.2933
21.0439
22.8258
24.5175
25.9107
26.6479
105.305
117.268
124.528
129.562
133.252
136
138.022
139.448
140.36
140.804
105.305
117.267
124.528
129.562
133.252
136
138.022
139.448
140.36
140.804
105.305
117.267
124.528
129.561
133.252
136
138.022
139.448
140.359
140.804
105.305
117.267
124.528
129.561
133.252
136
138.022
139.448
140.359
140.804
105.305
117.267
124.528
129.561
133.252
136
138.021
139.448
140.359
140.804
105.305
117.267
124.528
129.561
133.252
136
138.021
139.448
140.359
140.804
105.305
117.267
124.528
129.561
133.252
136
138.022
139.448
140.359
140.804
105.305
117.267
124.528
129.561
133.252
136
138.022
139.448
140.36
140.804
105.305
117.267
124.528
129.561
133.252
136
138.022
139.448
140.36
140.804
105.305
117.268
124.528
129.562
133.252
136
138.022
139.448
140.36
140.805
86.815
97.4053
104.841
110.194
114.135
117.057
119.195
120.697
121.654
122.12
86.8148
97.4051
104.841
110.194
114.135
117.057
119.195
120.697
121.654
122.12
86.8147
97.405
104.841
110.194
114.135
117.057
119.195
120.697
121.654
122.12
86.8146
97.4049
104.841
110.194
114.135
117.057
119.195
120.697
121.654
122.12
86.8146
97.4048
104.841
110.194
114.135
117.057
119.195
120.697
121.654
122.12
86.8146
97.4048
104.841
110.194
114.135
117.057
119.195
120.697
121.654
122.12
86.8146
97.4049
104.841
110.194
114.135
117.057
119.195
120.697
121.654
122.12
86.8147
97.4049
104.841
110.194
114.135
117.057
119.195
120.697
121.654
122.12
86.8148
97.4051
104.841
110.194
114.135
117.057
119.195
120.697
121.654
122.12
86.8149
97.4052
104.841
110.194
114.135
117.057
119.195
120.697
121.654
122.12
73.4465
81.8402
88.4167
93.4518
97.2785
100.161
102.288
103.788
104.745
105.212
73.4463
81.84
88.4166
93.4516
97.2783
100.161
102.288
103.788
104.745
105.212
73.4462
81.8399
88.4164
93.4514
97.2782
100.161
102.288
103.788
104.745
105.212
73.4461
81.8398
88.4163
93.4514
97.2781
100.161
102.288
103.787
104.745
105.212
73.4461
81.8397
88.4163
93.4513
97.278
100.161
102.288
103.787
104.745
105.212
73.4461
81.8397
88.4163
93.4513
97.278
100.161
102.288
103.787
104.745
105.212
73.4461
81.8398
88.4163
93.4514
97.2781
100.161
102.288
103.788
104.745
105.212
73.4462
81.8399
88.4164
93.4515
97.2782
100.161
102.288
103.788
104.745
105.212
73.4463
81.84
88.4165
93.4516
97.2783
100.161
102.288
103.788
104.745
105.212
73.4464
81.8401
88.4167
93.4518
97.2785
100.161
102.288
103.788
104.745
105.212
62.6695
69.2084
74.6895
79.1069
82.5838
85.2634
87.2695
88.6972
89.6137
90.0618
62.6693
69.2083
74.6893
79.1068
82.5837
85.2632
87.2693
88.697
89.6136
90.0617
62.6692
69.2081
74.6892
79.1066
82.5835
85.2631
87.2692
88.6969
89.6135
90.0616
62.6691
69.2081
74.6891
79.1066
82.5835
85.263
87.2691
88.6968
89.6134
90.0615
62.6691
69.208
74.6891
79.1065
82.5834
85.263
87.2691
88.6968
89.6134
90.0615
62.6691
69.208
74.6891
79.1065
82.5834
85.263
87.2691
88.6968
89.6134
90.0615
62.6691
69.2081
74.6891
79.1066
82.5835
85.263
87.2691
88.6968
89.6134
90.0615
62.6692
69.2081
74.6892
79.1067
82.5836
85.2631
87.2692
88.6969
89.6135
90.0616
62.6693
69.2083
74.6893
79.1068
82.5837
85.2633
87.2694
88.6971
89.6137
90.0618
62.6695
69.2084
74.6895
79.107
82.5839
85.2635
87.2695
88.6973
89.6139
90.062
53.645
58.7161
63.1456
66.8558
69.8683
72.2449
74.0544
75.3574
76.2002
76.614
53.6448
58.716
63.1454
66.8556
69.8681
72.2447
74.0543
75.3572
76.2001
76.6139
53.6447
58.7159
63.1453
66.8555
69.868
72.2446
74.0541
75.3571
76.2
76.6138
53.6446
58.7158
63.1452
66.8554
69.8679
72.2445
74.0541
75.357
76.1999
76.6137
53.6446
58.7158
63.1452
66.8554
69.8679
72.2445
74.054
75.357
76.1999
76.6137
53.6446
58.7158
63.1452
66.8554
69.8679
72.2445
74.0541
75.357
76.1999
76.6137
53.6446
58.7158
63.1453
66.8554
69.8679
72.2446
74.0541
75.357
76.1999
76.6138
53.6447
58.7159
63.1453
66.8555
69.868
72.2447
74.0542
75.3571
76.2
76.6139
53.6448
58.716
63.1455
66.8556
69.8681
72.2448
74.0543
75.3573
76.2002
76.614
53.645
58.7161
63.1456
66.8558
69.8683
72.245
74.0545
75.3575
76.2004
76.6142
46.0162
49.9055
53.3964
56.409
58.9225
60.9504
62.5215
63.6672
64.4148
64.7837
46.0161
49.9054
53.3962
56.4089
58.9223
60.9502
62.5213
63.6671
64.4147
64.7836
46.016
49.9053
53.3961
56.4088
58.9222
60.9501
62.5212
63.667
64.4146
64.7835
46.0159
49.9052
53.396
56.4087
58.9221
60.95
62.5211
63.6669
64.4145
64.7834
46.0159
49.9051
53.396
56.4086
58.9221
60.95
62.5211
63.6669
64.4145
64.7834
46.0159
49.9052
53.396
56.4087
58.9221
60.95
62.5211
63.6669
64.4145
64.7834
46.0159
49.9052
53.396
56.4087
58.9221
60.95
62.5212
63.6669
64.4146
64.7835
46.016
49.9053
53.3961
56.4088
58.9222
60.9501
62.5212
63.667
64.4147
64.7836
46.0161
49.9054
53.3962
56.4089
58.9224
60.9503
62.5214
63.6672
64.4148
64.7837
46.0163
49.9055
53.3964
56.4091
58.9225
60.9504
62.5215
63.6673
64.415
64.7839
39.5895
42.4862
45.1496
47.5138
49.5393
51.2108
52.5292
53.5038
54.1456
54.464
39.5893
42.4861
45.1494
47.5136
49.5391
51.2106
52.5291
53.5036
54.1455
54.4639
39.5893
42.486
45.1493
47.5135
49.539
51.2105
52.529
53.5035
54.1454
54.4638
39.5892
42.4859
45.1493
47.5135
49.5389
51.2104
52.5289
53.5035
54.1453
54.4638
39.5892
42.4859
45.1493
47.5134
49.5389
51.2104
52.5289
53.5034
54.1453
54.4637
39.5892
42.4859
45.1493
47.5134
49.5389
51.2104
52.5289
53.5034
54.1453
54.4638
39.5892
42.4859
45.1493
47.5135
49.539
51.2105
52.5289
53.5035
54.1454
54.4638
39.5893
42.486
45.1494
47.5136
49.5391
51.2106
52.529
53.5036
54.1454
54.4639
39.5894
42.4861
45.1495
47.5137
49.5392
51.2107
52.5291
53.5037
54.1456
54.464
39.5895
42.4862
45.1496
47.5138
49.5393
51.2108
52.5293
53.5039
54.1457
54.4642
34.2298
36.2423
38.17
39.9493
41.5236
42.8563
43.9285
44.7325
45.2673
45.5341
34.2297
36.2421
38.1699
39.9491
41.5234
42.8562
43.9283
44.7323
45.2672
45.534
34.2296