/*--------------------------------*- C++ -*----------------------------------*\
  =========                 |
  \\      /  F ield         | OpenFOAM: The Open Source CFD Toolbox
   \\    /   O peration     | Website:  https://openfoam.org
    \\  /    A nd           | Version:  6
     \\/     M anipulation  |
\*---------------------------------------------------------------------------*/
FoamFile
{
    version     2.0;
    format      ascii;
    class       surfaceScalarField;
    location    "900";
    object      phi;
}
// * * * * * * * * * * * * * * * * * * * * * * * * * * * * * * * * * * * * * //

dimensions      [0 3 -1 0 0 0 0];

internalField   nonuniform List<scalar> 
19500
(
1.54115e-07
1.56612e-07
9.96889e-05
1.56807e-08
1.56684e-07
9.99814e-05
9.1458e-09
1.56717e-07
9.98495e-05
3.14485e-09
1.56701e-07
9.9849e-05
-3.56798e-09
1.5669e-07
9.98497e-05
-9.96624e-09
1.56661e-07
9.98494e-05
-1.49278e-08
1.56616e-07
9.98481e-05
-1.96079e-08
1.5658e-07
9.98478e-05
-1.61322e-07
1.56478e-07
9.9985e-05
1.56268e-07
9.96822e-05
1.54199e-07
1.71498e-08
9.99849e-05
1.56044e-08
1.70618e-08
0.000100278
9.13079e-09
1.70491e-08
0.000100146
3.12027e-09
1.70448e-08
0.000100145
-3.60235e-09
1.70417e-08
0.000100146
-1.00122e-08
1.70407e-08
0.000100146
-1.49787e-08
1.70405e-08
0.000100144
-1.95926e-08
1.70411e-08
0.000100144
-1.61542e-07
1.70489e-08
0.000100281
1.71212e-08
9.99774e-05
1.54242e-07
1.16303e-08
9.98509e-05
1.55914e-08
1.16138e-08
0.000100144
9.12936e-09
1.1622e-08
0.000100012
3.12992e-09
1.16445e-08
0.000100011
-3.59491e-09
1.16783e-08
0.000100012
-1.00088e-08
1.17202e-08
0.000100011
-1.49674e-08
1.17657e-08
0.00010001
-1.95887e-08
1.18135e-08
0.00010001
-1.61594e-07
1.18666e-08
0.000100147
1.19243e-08
9.98434e-05
1.54252e-07
6.28788e-09
9.98508e-05
1.55951e-08
6.27417e-09
0.000100144
9.15237e-09
6.30616e-09
0.000100011
3.16638e-09
6.35414e-09
0.000100011
-3.5506e-09
6.4194e-09
0.000100012
-9.96148e-09
6.49741e-09
0.000100011
-1.49177e-08
6.58335e-09
0.00010001
-1.95542e-08
6.67456e-09
0.00010001
-1.61516e-07
6.77315e-09
0.000100147
6.90355e-09
9.98433e-05
1.54288e-07
-7.22923e-11
9.98518e-05
1.56098e-08
-7.94749e-11
0.000100145
9.19773e-09
-3.68652e-11
0.000100012
3.2316e-09
3.13565e-11
0.000100012
-3.47129e-09
1.23491e-10
0.000100013
-9.87379e-09
2.34913e-10
0.000100012
-1.48252e-08
3.60386e-10
0.000100011
-1.94771e-08
4.97178e-10
0.000100011
-1.61362e-07
6.54408e-10
0.000100148
8.58383e-10
9.98445e-05
1.5433e-07
-6.44179e-09
9.98518e-05
1.56366e-08
-6.44476e-09
0.000100145
9.26307e-09
-6.39738e-09
0.000100012
3.32195e-09
-6.31837e-09
0.000100012
-3.36042e-09
-6.21196e-09
0.000100013
-9.74859e-09
-6.08273e-09
0.000100012
-1.46908e-08
-5.93442e-09
0.000100011
-1.93584e-08
-5.769e-09
0.000100011
-1.61111e-07
-5.57549e-09
0.000100148
-5.31348e-09
9.98448e-05
1.54373e-07
-1.18004e-08
9.98508e-05
1.56714e-08
-1.18025e-08
0.000100144
9.33992e-09
-1.17479e-08
0.000100011
3.42592e-09
-1.16697e-08
0.000100011
-3.23258e-09
-1.15663e-08
0.000100012
-9.60155e-09
-1.14409e-08
0.000100012
-1.45304e-08
-1.12957e-08
0.00010001
-1.9212e-08
-1.1131e-08
0.00010001
-1.60787e-07
-1.09379e-08
0.000100147
-1.06446e-08
9.98444e-05
1.54428e-07
-1.74733e-08
9.98511e-05
1.57053e-08
-1.74174e-08
0.000100144
9.41534e-09
-1.73805e-08
0.000100012
3.52666e-09
-1.7332e-08
0.000100011
-3.10727e-09
-1.7264e-08
0.000100012
-9.45465e-09
-1.71778e-08
0.000100012
-1.43677e-08
-1.70715e-08
0.000100011
-1.9055e-08
-1.69391e-08
0.00010001
-1.60451e-07
-1.67681e-08
0.000100147
-1.66503e-08
9.98454e-05
1.54423e-07
-1.56997e-07
9.9985e-05
1.57417e-08
-1.57093e-07
0.000100278
9.48512e-09
-1.57077e-07
0.000100146
3.61565e-09
-1.56974e-07
0.000100145
-2.9884e-09
-1.56841e-07
0.000100146
-9.30982e-09
-1.56656e-07
0.000100146
-1.42066e-08
-1.56418e-07
0.000100144
-1.88866e-08
-1.56153e-07
0.000100144
-1.60161e-07
-1.55903e-07
0.00010028
-1.55625e-07
9.99785e-05
1.54343e-07
9.96885e-05
1.58343e-08
9.99813e-05
9.54461e-09
9.98491e-05
3.70644e-09
9.98487e-05
-2.86274e-09
9.98496e-05
-9.13871e-09
9.98494e-05
-1.39903e-08
9.98483e-05
-1.8816e-08
9.98485e-05
-1.59889e-07
9.99849e-05
9.96842e-05
2.17566e-07
2.28232e-07
9.92419e-05
6.55681e-08
2.28766e-07
9.99033e-05
3.61524e-08
2.28906e-07
9.96487e-05
9.51998e-09
2.29404e-07
9.96449e-05
-1.08649e-08
2.29934e-07
9.9639e-05
-3.03062e-08
2.30471e-07
9.96373e-05
-5.41336e-08
2.30965e-07
9.96399e-05
-7.90537e-08
2.31334e-07
9.96404e-05
-2.35852e-07
2.31845e-07
9.99089e-05
2.31631e-07
9.92141e-05
2.18036e-07
7.53868e-08
9.99184e-05
6.59575e-08
7.58354e-08
0.000100582
3.66204e-08
7.61503e-08
0.000100327
1.00333e-08
7.65965e-08
0.000100323
-1.03281e-08
7.71725e-08
0.000100318
-2.98042e-08
7.78139e-08
0.000100317
-5.37589e-08
7.84597e-08
0.00010032
-7.88127e-08
7.90638e-08
0.00010032
-2.35968e-07
7.95311e-08
0.00010059
7.98441e-08
9.98925e-05
2.18177e-07
4.96965e-08
9.96572e-05
6.62584e-08
5.02652e-08
0.00010032
3.70933e-08
5.07608e-08
0.000100065
1.06121e-08
5.14136e-08
0.000100062
-9.69914e-09
5.22356e-08
0.000100056
-2.91821e-08
5.31574e-08
0.000100054
-5.32032e-08
5.40923e-08
0.000100057
-7.83313e-08
5.49535e-08
0.000100058
-2.3531e-07
5.56019e-08
0.000100327
5.62214e-08
9.9631e-05
2.18711e-07
2.58363e-08
9.96548e-05
6.67095e-08
2.64915e-08
0.000100318
3.77438e-08
2.71011e-08
0.000100063
1.14368e-08
2.79242e-08
0.00010006
-8.77114e-09
2.89491e-08
0.000100054
-2.82392e-08
3.00994e-08
0.000100053
-5.23377e-08
3.12686e-08
0.000100056
-7.76209e-08
3.23395e-08
0.000100056
-2.34603e-07
3.31769e-08
0.000100325
3.41277e-08
9.96301e-05
2.19314e-07
6.83299e-09
9.96505e-05
6.72917e-08
7.54654e-09
0.000100315
3.85612e-08
8.20445e-09
0.000100059
1.24599e-08
9.11303e-09
0.000100056
-7.62016e-09
1.02423e-08
0.00010005
-2.70667e-08
1.15106e-08
0.000100049
-5.1265e-08
1.28023e-08
0.000100053
-7.67507e-08
1.3989e-08
0.000100053
-2.33559e-07
1.49359e-08
0.000100322
1.61219e-08
9.96282e-05
2.19962e-07
-1.28442e-08
9.96506e-05
6.79355e-08
-1.21406e-08
0.000100316
3.94651e-08
-1.15019e-08
0.00010006
1.35886e-08
-1.05984e-08
0.000100057
-6.34876e-09
-9.47984e-09
0.000100051
-2.5768e-08
-8.2238e-09
0.000100051
-5.00708e-08
-6.94359e-09
0.000100054
-7.57829e-08
-5.77541e-09
0.000100055
-2.32283e-07
-4.81781e-09
0.000100323
-3.51187e-09
9.96316e-05
2.20587e-07
-3.86298e-08
9.96552e-05
6.85774e-08
-3.80416e-08
0.000100321
4.03644e-08
-3.74781e-08
0.000100065
1.47073e-08
-3.66629e-08
0.000100062
-5.08854e-09
-3.56654e-08
0.000100057
-2.44791e-08
-3.45498e-08
0.000100056
-4.88911e-08
-3.34204e-08
0.00010006
-7.48283e-08
-3.24018e-08
0.000100062
-2.30882e-07
-3.1495e-08
0.000100329
-3.02683e-08
9.96396e-05
2.21101e-07
-6.7011e-08
9.96577e-05
6.91716e-08
-6.65829e-08
0.000100324
4.11775e-08
-6.60957e-08
0.000100068
1.57063e-08
-6.54347e-08
0.000100065
-3.96934e-09
-6.46434e-08
0.00010006
-2.33454e-08
-6.37687e-08
0.00010006
-4.78655e-08
-6.28929e-08
0.000100064
-7.39593e-08
-6.2066e-08
0.000100065
-2.29548e-07
-6.14277e-08
0.000100332
-6.0433e-08
9.96453e-05
2.21752e-07
-2.20462e-07
9.99161e-05
6.96425e-08
-2.20196e-07
0.000100583
4.1788e-08
-2.19468e-07
0.000100326
1.64735e-08
-2.18756e-07
0.000100323
-3.0978e-09
-2.17791e-07
0.000100318
-2.24502e-08
-2.16669e-07
0.000100317
-4.69928e-08
-2.15449e-07
0.00010032
-7.33152e-08
-2.14266e-07
0.000100321
-2.28755e-07
-2.13549e-07
0.000100587
-2.12294e-07
9.9901e-05
2.21916e-07
9.92458e-05
7.00725e-08
9.99125e-05
4.24787e-08
9.96568e-05
1.74093e-08
9.96545e-05
-2.01339e-09
9.96506e-05
-2.12817e-08
9.96515e-05
-4.58752e-08
9.96568e-05
-7.2359e-08
9.966e-05
-2.27443e-07
9.99258e-05
9.92441e-05
2.42183e-07
2.58447e-07
9.87398e-05
8.23511e-08
2.59247e-07
9.98025e-05
4.62444e-08
2.59047e-07
9.94243e-05
9.95957e-09
2.59821e-07
9.94201e-05
-1.97721e-08
2.60503e-07
9.94069e-05
-4.78088e-08
2.61211e-07
9.9403e-05
-7.91231e-08
2.61852e-07
9.94083e-05
-1.07273e-07
2.62169e-07
9.94053e-05
-2.73368e-07
2.63247e-07
9.98107e-05
2.62416e-07
9.86775e-05
2.42913e-07
9.89588e-08
9.98336e-05
8.31139e-08
9.98371e-08
0.000100899
4.69025e-08
1.00278e-07
0.00010052
1.06438e-08
1.00989e-07
0.000100517
-1.91168e-08
1.01933e-07
0.000100505
-4.72725e-08
1.02976e-07
0.000100502
-7.87925e-08
1.04009e-07
0.000100508
-1.07344e-07
1.04987e-07
0.000100505
-2.74062e-07
1.05847e-07
0.000100913
1.05951e-07
9.97742e-05
2.42713e-07
6.92361e-08
9.94429e-05
8.35309e-08
7.0111e-08
0.000100508
4.76818e-08
7.09358e-08
0.000100129
1.15862e-08
7.20149e-08
0.000100125
-1.80805e-08
7.33936e-08
0.000100113
-4.62366e-08
7.49426e-08
0.00010011
-7.78765e-08
7.65156e-08
0.000100115
-1.06462e-07
7.79809e-08
0.000100112
-2.7274e-07
7.91059e-08
0.000100519
8.00104e-08
9.93835e-05
2.43569e-07
3.77649e-08
9.94415e-05
8.42617e-08
3.87719e-08
0.000100508
4.87545e-08
3.97884e-08
0.000100128
1.29522e-08
4.11739e-08
0.000100125
-1.6534e-08
4.29257e-08
0.000100113
-4.46523e-08
4.4911e-08
0.00010011
-7.64102e-08
4.69489e-08
0.000100116
-1.05251e-07
4.88416e-08
0.000100113
-2.71755e-07
5.03553e-08
0.000100519
5.19494e-08
9.93857e-05
2.44418e-07
1.05748e-08
9.94322e-05
8.52475e-08
1.16531e-08
0.0001005
5.01464e-08
1.27765e-08
0.00010012
1.46989e-08
1.43369e-08
0.000100117
-1.45549e-08
1.63052e-08
0.000100105
-4.26115e-08
1.85482e-08
0.000100103
-7.45212e-08
2.08669e-08
0.00010011
-1.03709e-07
2.30213e-08
0.000100108
-2.69965e-07
2.4779e-08
0.000100513
2.69508e-08
9.93825e-05
2.45381e-07
-1.76358e-08
9.94325e-05
8.63473e-08
-1.65902e-08
0.000100502
5.17113e-08
-1.54719e-08
0.000100122
1.66698e-08
-1.38898e-08
0.000100119
-1.23076e-08
-1.19033e-08
0.000100108
-4.02766e-08
-9.63385e-09
0.000100106
-7.23489e-08
-7.28534e-09
0.000100113
-1.01904e-07
-5.104e-09
0.000100112
-2.67679e-07
-3.2797e-09
0.000100516
-8.17462e-10
9.9391e-05
2.46355e-07
-5.20728e-08
9.94425e-05
8.74504e-08
-5.11978e-08
0.000100514
5.32872e-08
-5.0208e-08
0.000100133
1.86582e-08
-4.87632e-08
0.000100131
-1.00343e-08
-4.69737e-08
0.00010012
-3.79115e-08
-4.49327e-08
0.000100119
-7.01399e-08
-4.28264e-08
0.000100127
-1.00038e-07
-4.08608e-08
0.000100127
-2.65198e-07
-3.92224e-08
0.000100529
-3.67753e-08
9.94099e-05
2.47048e-07
-8.60313e-08
9.9444e-05
8.84987e-08
-8.56065e-08
0.000100516
5.47342e-08
-8.46828e-08
0.000100135
2.04564e-08
-8.35042e-08
0.000100133
-7.99598e-09
-8.20872e-08
0.000100123
-3.58065e-08
-8.04775e-08
0.000100122
-6.81613e-08
-7.87996e-08
0.000100132
-9.84401e-08
-7.73043e-08
0.000100132
-2.62582e-07
-7.60948e-08
0.000100532
-7.3857e-08
9.94195e-05
2.48435e-07
-2.48325e-07
9.98294e-05
8.9403e-08
-2.48098e-07
0.000100904
5.58334e-08
-2.46562e-07
0.000100521
2.18584e-08
-2.45511e-07
0.000100519
-6.3953e-09
-2.439e-07
0.000100507
-3.41283e-08
-2.42001e-07
0.000100506
-6.66006e-08
-2.39996e-07
0.000100514
-9.72068e-08
-2.37774e-07
0.000100512
-2.61322e-07
-2.36764e-07
0.000100911
-2.34521e-07
9.97993e-05
2.48527e-07
9.87486e-05
8.98797e-08
9.98227e-05
5.69368e-08
9.94428e-05
2.34054e-08
9.94422e-05
-4.49986e-09
9.94343e-05
-3.20487e-08
9.94366e-05
-6.44677e-08
9.94489e-05
-9.51326e-08
9.94526e-05
-2.5905e-07
9.98519e-05
9.875e-05
2.54781e-07
2.76848e-07
9.82066e-05
8.80194e-08
2.7791e-07
9.96897e-05
4.55951e-08
2.77327e-07
9.91879e-05
4.45514e-09
2.7837e-07
9.91813e-05
-3.06034e-08
2.79084e-07
9.91615e-05
-6.3097e-08
2.79867e-07
9.91543e-05
-9.66877e-08
2.80598e-07
9.91601e-05
-1.27141e-07
2.80627e-07
9.91541e-05
-3.02275e-07
2.82165e-07
9.97024e-05
2.80134e-07
9.80943e-05
2.55799e-07
1.11674e-07
9.97414e-05
8.91187e-08
1.12946e-07
0.000101229
4.63601e-08
1.13471e-07
0.000100725
5.21999e-09
1.14421e-07
0.000100721
-3.00032e-08
1.15724e-07
0.000100702
-6.27734e-08
1.1716e-07
0.000100696
-9.66665e-08
1.18573e-07
0.000100703
-1.27848e-07
1.19928e-07
0.000100696
-3.04079e-07
1.21219e-07
0.000101249
1.2092e-07
9.96285e-05
2.55217e-07
7.8488e-08
9.92195e-05
8.96052e-08
7.96133e-08
0.000100705
4.74337e-08
8.07714e-08
0.000100202
6.52676e-09
8.22763e-08
0.000100197
-2.85237e-08
8.42445e-08
0.000100178
-6.12544e-08
8.64793e-08
0.000100172
-9.53159e-08
8.878e-08
0.000100178
-1.26537e-07
9.09391e-08
0.000100172
-3.02107e-07
9.27173e-08
0.000100722
9.38629e-08
9.91076e-05
2.56424e-07
4.45531e-08
9.92178e-05
9.0602e-08
4.58864e-08
0.000100706
4.89253e-08
4.73385e-08
0.000100202
8.45145e-09
4.93193e-08
0.000100197
-2.63122e-08
5.18861e-08
0.000100179
-5.89505e-08
5.48485e-08
0.000100173
-9.31638e-08
5.79515e-08
0.00010018
-1.24732e-07
6.08848e-08
0.000100174
-3.00887e-07
6.33971e-08
0.000100724
6.5848e-08
9.9112e-05
2.5747e-07
1.35293e-08
9.92046e-05
9.20086e-08
1.49167e-08
0.000100695
5.09353e-08
1.65788e-08
0.000100191
1.10084e-08
1.88552e-08
0.000100186
-2.33646e-08
2.17956e-08
0.000100169
-5.58474e-08
2.52189e-08
0.000100164
-9.02321e-08
2.88377e-08
0.000100172
-1.2228e-07
3.2295e-08
0.000100168
-2.97992e-07
3.52622e-08
0.000100716
3.89288e-08
9.91106e-05
2.58772e-07
-1.87974e-08
9.92052e-05
9.35979e-08
-1.7492e-08
0.000100699
5.32334e-08
-1.57854e-08
0.000100193
1.39564e-08
-1.34411e-08
0.00010019
-1.99335e-08
-1.04328e-08
0.000100173
-5.21976e-08
-6.91968e-09
0.00010017
-8.67267e-08
-3.18727e-09
0.00010018
-1.19293e-07
3.79788e-10
0.000100176
-2.94166e-07
3.44446e-09
0.000100722
7.84889e-09
9.91272e-05
2.6019e-07
-5.65695e-08
9.92194e-05
9.52047e-08
-5.54589e-08
0.000100716
5.55744e-08
-5.39376e-08
0.00010021
1.69723e-08
-5.17799e-08
0.000100207
-1.64099e-08
-4.90504e-08
0.000100191
-4.8433e-08
-4.58645e-08
0.000100189
-8.30882e-08
-4.24827e-08
0.000100201
-1.16165e-07
-3.93115e-08
0.000100199
-2.89897e-07
-3.6434e-08
0.000100742
-3.21466e-08
9.91594e-05
2.61042e-07
-9.52723e-08
9.92212e-05
9.67486e-08
-9.48803e-08
0.00010072
5.77383e-08
-9.33935e-08
0.000100213
1.9713e-08
-9.16205e-08
0.000100211
-1.32391e-08
-8.94527e-08
0.000100196
-4.5066e-08
-8.69321e-08
0.000100195
-7.98876e-08
-8.4285e-08
0.000100208
-1.13369e-07
-8.17775e-08
0.000100208
-2.85368e-07
-7.98138e-08
0.000100747
-7.60666e-08
9.91771e-05
2.63295e-07
-2.65136e-07
9.97356e-05
9.82149e-08
-2.65055e-07
0.000101239
5.94703e-08
-2.62587e-07
0.000100729
2.19498e-08
-2.61136e-07
0.000100725
-1.06861e-08
-2.5864e-07
0.000100709
-4.24235e-08
-2.5576e-07
0.000100706
-7.72678e-08
-2.52645e-07
0.000100717
-1.11375e-07
-2.49092e-07
0.000100713
-2.83288e-07
-2.4758e-07
0.00010125
-2.43357e-07
9.9683e-05
2.63211e-07
9.822e-05
9.87232e-08
9.9722e-05
6.1036e-08
9.92177e-05
2.41922e-08
9.92178e-05
-7.81457e-09
9.92075e-05
-3.90536e-08
9.9212e-05
-7.38574e-08
9.92309e-05
-1.08067e-07
9.92371e-05
-2.79139e-07
9.97752e-05
9.82273e-05
2.62289e-07
2.90958e-07
9.76516e-05
9.05378e-08
2.92259e-07
9.95674e-05
4.12255e-08
2.91344e-07
9.89441e-05
-4.5235e-09
2.92647e-07
9.89328e-05
-4.42542e-08
2.93289e-07
9.89064e-05
-8.04042e-08
2.94034e-07
9.88951e-05
-1.15496e-07
2.9469e-07
9.88994e-05
-1.48256e-07
2.94023e-07
9.88914e-05
-3.31128e-07
2.9568e-07
9.95884e-05
2.91226e-07
9.74709e-05
2.63607e-07
1.2245e-07
9.96446e-05
9.1941e-08
1.24089e-07
0.000101568
4.20512e-08
1.24767e-07
0.00010094
-3.74181e-09
1.26013e-07
0.000100932
-4.38687e-08
1.27743e-07
0.000100906
-8.05885e-08
1.29649e-07
0.000100896
-1.16196e-07
1.31532e-07
0.0001009
-1.50024e-07
1.33226e-07
0.000100889
-3.35136e-07
1.35112e-07
0.000101593
1.33887e-07
9.94496e-05
2.62699e-07
8.57486e-08
9.89919e-05
9.25556e-08
8.71236e-08
0.000100911
4.34922e-08
8.87211e-08
0.000100286
-1.98707e-09
9.07627e-08
0.000100276
-4.1838e-08
9.34924e-08
0.000100251
-7.84707e-08
9.66364e-08
0.00010024
-1.14382e-07
9.99236e-08
0.000100245
-1.48144e-07
1.03036e-07
0.000100235
-3.32965e-07
1.05734e-07
0.000100935
1.07066e-07
9.88005e-05
2.64309e-07
5.02224e-08
9.89876e-05
9.38933e-08
5.19317e-08
0.00010091
4.55109e-08
5.39644e-08
0.000100284
6.47588e-10
5.67191e-08
0.000100275
-3.87617e-08
6.03878e-08
0.00010025
-7.5216e-08
6.47112e-08
0.000100241
-1.11274e-07
6.93628e-08
0.000100246
-1.45559e-07
7.38487e-08
0.000100237
-3.31525e-07
7.79267e-08
0.000100937
8.17143e-08
9.88047e-05
2.65579e-07
1.66167e-08
9.89715e-05
9.58407e-08
1.83595e-08
0.000100897
4.83334e-08
2.07537e-08
0.00010027
4.301e-09
2.39856e-08
0.000100262
-3.44607e-08
2.8275e-08
0.000100239
-7.05691e-08
3.33914e-08
0.000100231
-1.0676e-07
3.89802e-08
0.000100238
-1.41695e-07
4.44232e-08
0.000100231
-3.26892e-07
4.94015e-08
0.000100928
5.56608e-08
9.88087e-05
2.67316e-07
-1.85884e-08
9.89721e-05
9.80796e-08
-1.69893e-08
0.000100902
5.16188e-08
-1.44741e-08
0.000100274
8.60316e-09
-1.11e-08
0.000100267
-2.93263e-08
-6.6545e-09
0.000100245
-6.49354e-08
-1.32938e-09
0.00010024
-1.01212e-07
4.50741e-09
0.00010025
-1.36777e-07
1.0223e-08
0.000100245
-3.20387e-07
1.5432e-08
0.000100939
2.31142e-08
9.88383e-05
2.69337e-07
-5.88803e-08
9.89897e-05
1.00374e-07
-5.74604e-08
0.000100925
5.50112e-08
-5.52136e-08
0.000100296
1.30697e-08
-5.20987e-08
0.000100289
-2.39715e-08
-4.80499e-08
0.00010027
-5.90385e-08
-4.32129e-08
0.000100266
-9.53703e-08
-3.79503e-08
0.00010028
-1.31515e-07
-3.2783e-08
0.000100278
-3.13086e-07
-2.80917e-08
0.000100967
-2.06594e-08
9.88891e-05
2.70429e-07
-1.02341e-07
9.89938e-05
1.02564e-07
-1.01936e-07
0.000100932
5.81365e-08
-9.9741e-08
0.000100302
1.71182e-08
-9.71793e-08
0.000100297
-1.91741e-08
-9.3956e-08
0.000100278
-5.38153e-08
-9.01372e-08
0.000100277
-9.01757e-08
-8.59803e-08
0.000100293
-1.26954e-07
-8.20551e-08
0.000100294
-3.0528e-07
-7.89241e-08
0.000100976
-7.2031e-08
9.89231e-05
2.73615e-07
-2.77731e-07
9.96371e-05
1.04736e-07
-2.77746e-07
0.000101584
6.07393e-08
-2.74202e-07
0.000100947
2.05303e-08
-2.72156e-07
0.000100941
-1.52486e-08
-2.68395e-07
0.00010092
-4.96379e-08
-2.64027e-07
0.000100915
-8.60884e-08
-2.59384e-07
0.000100927
-1.23753e-07
-2.53799e-07
0.000100923
-3.00792e-07
-2.50691e-07
0.000101599
-2.43519e-07
9.95527e-05
2.73405e-07
9.76689e-05
1.05419e-07
9.96122e-05
6.29812e-08
9.8986e-05
2.37713e-08
9.8985e-05
-1.08874e-08
9.8974e-05
-4.44579e-08
9.89818e-05
-8.08001e-08
9.9008e-05
-1.18039e-07
9.90211e-05
-2.93921e-07
9.96996e-05
9.76895e-05
2.6392e-07
3.00391e-07
9.70851e-05
8.9328e-08
3.01852e-07
9.9438e-05
3.38013e-08
3.0062e-07
9.86968e-05
-1.69001e-08
3.0212e-07
9.86793e-05
-6.19139e-08
3.02552e-07
9.8647e-05
-1.02152e-07
3.03023e-07
9.86307e-05
-1.38677e-07
3.03166e-07
9.86312e-05
-1.71778e-07
3.01087e-07
9.86223e-05
-3.6174e-07
3.01892e-07
9.94749e-05
2.92301e-07
9.68157e-05
2.65504e-07
1.31286e-07
9.95461e-05
9.10003e-08
1.33272e-07
0.000101908
3.46208e-08
1.34194e-07
0.000101161
-1.62364e-08
1.35813e-07
0.000101147
-6.20328e-08
1.38061e-07
0.000101115
-1.03397e-07
1.40536e-07
0.000101098
-1.40857e-07
1.4292e-07
0.000101097
-1.75797e-07
1.45046e-07
0.000101079
-3.70451e-07
1.47055e-07
0.000101941
1.43962e-07
9.92264e-05
2.64303e-07
9.26249e-08
9.87644e-05
9.18185e-08
9.42706e-08
0.00010112
3.6529e-08
9.64658e-08
0.000100377
-1.39175e-08
9.92182e-08
0.000100362
-5.93308e-08
1.02977e-07
0.00010033
-1.00621e-07
1.07373e-07
0.000100314
-1.38462e-07
1.12103e-07
0.000100313
-1.73829e-07
1.16504e-07
0.000100298
-3.69e-07
1.20421e-07
0.000101155
1.21587e-07
9.84522e-05
2.66362e-07
5.61665e-08
9.87561e-05
9.36111e-08
5.83214e-08
0.000101117
3.92455e-08
6.11641e-08
0.000100372
-1.03339e-08
6.49827e-08
0.000100358
-5.50777e-08
7.02145e-08
0.000100327
-9.60032e-08
7.6541e-08
0.000100312
-1.34098e-07
8.35807e-08
0.000100312
-1.7018e-07
9.05022e-08
0.000100298
-3.67835e-07
9.70867e-08
0.000101156
1.03382e-07
9.84535e-05
2.67939e-07
2.03212e-08
9.87381e-05
9.62841e-08
2.25129e-08
0.000101104
4.31903e-08
2.5928e-08
0.000100358
-5.12205e-09
3.05027e-08
0.000100344
-4.87749e-08
3.67642e-08
0.000100315
-8.89851e-08
4.44516e-08
0.000100303
-1.27081e-07
5.3139e-08
0.000100307
-1.63929e-07
6.19301e-08
0.000100296
-3.60458e-07
7.03956e-08
0.00010115
8.17442e-08
9.84684e-05
2.70261e-07
-1.74815e-08
9.87388e-05
9.94205e-08
-1.5483e-08
0.00010111
4.78727e-08
-1.18447e-08
0.000100363
1.15898e-09
-7.00571e-09
0.000100351
-4.10521e-08
-4.30846e-10
0.000100325
-8.02433e-08
7.66546e-09
0.000100316
-1.18089e-07
1.6869e-08
0.000100324
-1.55632e-07
2.62345e-08
0.000100318
-3.48992e-07
3.53072e-08
0.000101166
4.96376e-08
9.85202e-05
2.73092e-07
-5.97886e-08
9.87584e-05
1.02692e-07
-5.79448e-08
0.000101137
5.27826e-08
-5.46781e-08
0.000100388
7.78361e-09
-5.019e-08
0.000100378
-3.28789e-08
-4.41716e-08
0.000100354
-7.09449e-08
-3.68039e-08
0.000100349
-1.08441e-07
-2.84939e-08
0.000100363
-1.46548e-07
-2.01913e-08
0.000100363
-3.35511e-07
-1.19766e-08
0.000101202
2.07059e-09
9.86006e-05
2.74574e-07
-1.06735e-07
9.8766e-05
1.05772e-07
-1.06168e-07
0.000101149
5.72851e-08
-1.0301e-07
0.000100399
1.3769e-08
-9.93168e-08
0.00010039
-2.55864e-08
-9.45019e-08
0.000100369
-6.27322e-08
-8.87045e-08
0.000100367
-1.00048e-07
-8.23211e-08
0.000100385
-1.38664e-07
-7.62214e-08
0.000100389
-3.21284e-07
-7.0386e-08
0.000101217
-5.9119e-08
9.86619e-05
2.78913e-07
-2.85204e-07
9.95368e-05
1.08908e-07
-2.85278e-07
0.000101933
6.11511e-08
-2.8043e-07
0.000101173
1.89196e-08
-2.77458e-07
0.000101162
-1.95665e-08
-2.71892e-07
0.000101136
-5.63012e-08
-2.65424e-07
0.000101129
-9.36295e-08
-2.58418e-07
0.000101141
-1.32838e-07
-2.49841e-07
0.000101137
-3.12931e-07
-2.44616e-07
0.000101952
-2.31753e-07
9.9413e-05
2.78609e-07
9.71051e-05
1.09954e-07
9.94958e-05
6.44057e-08
9.87515e-05
2.36713e-08
9.87488e-05
-1.30653e-08
9.87395e-05
-4.8377e-08
9.87523e-05
-8.52083e-08
9.87872e-05
-1.24541e-07
9.88101e-05
-3.00733e-07
9.96319e-05
9.71575e-05
2.59891e-07
3.05507e-07
9.65174e-05
8.37252e-08
3.0703e-07
9.93048e-05
2.22403e-08
3.05487e-07
9.84505e-05
-3.3846e-08
3.07047e-07
9.8426e-05
-8.47343e-08
3.07031e-07
9.83887e-05
-1.29714e-07
3.0674e-07
9.8367e-05
-1.67384e-07
3.05535e-07
9.83618e-05
-1.99778e-07
3.00362e-07
9.83524e-05
-3.97018e-07
2.98173e-07
9.93721e-05
2.77774e-07
9.61396e-05
2.617e-07
1.37843e-07
9.94499e-05
8.56112e-08
1.40143e-07
0.000102249
2.29423e-08
1.41401e-07
0.000101385
-3.35631e-08
1.43461e-07
0.000101365
-8.59164e-08
1.46299e-07
0.000101326
-1.32998e-07
1.49359e-07
0.000101301
-1.72821e-07
1.52306e-07
0.000101288
-2.08503e-07
1.54268e-07
0.000101259
-4.15454e-07
1.56554e-07
0.000102288
1.48254e-07
9.89385e-05
2.60243e-07
9.85791e-08
9.85414e-05
8.67032e-08
1.00516e-07
0.000101331
2.54073e-08
1.03491e-07
0.000100474
-3.05826e-08
1.07159e-07
0.000100452
-8.24947e-08
1.12263e-07
0.000100414
-1.29509e-07
1.18347e-07
0.000100391
-1.70285e-07
1.24981e-07
0.00010038
-2.06323e-07
1.31241e-07
0.000100356
-4.17502e-07
1.36882e-07
0.000101384
1.36632e-07
9.80451e-05
2.62777e-07
6.20749e-08
9.85282e-05
8.90793e-08
6.47446e-08
0.000101325
2.90192e-08
6.86856e-08
0.000100465
-2.57724e-08
7.39381e-08
0.000100444
-7.66796e-08
8.13457e-08
0.000100407
-1.23161e-07
9.05446e-08
0.000100385
-1.64039e-07
1.01168e-07
0.000100377
-2.01364e-07
1.11938e-07
0.000100354
-4.17423e-07
1.22714e-07
0.000101384
1.32939e-07
9.80382e-05
2.64777e-07
2.47658e-08
9.85093e-05
9.27138e-08
2.75176e-08
0.000101312
3.44831e-08
3.2325e-08
0.000100451
-1.83881e-08
3.8759e-08
0.000100431
-6.74995e-08
4.7848e-08
0.000100397
-1.12586e-07
5.93572e-08
0.000100379
-1.53004e-07
7.2983e-08
0.000100375
-1.91234e-07
8.72515e-08
0.000100358
-4.05452e-07
1.01995e-07
0.000101383
1.22872e-07
9.80718e-05
2.67864e-07
-1.49323e-08
9.85097e-05
9.70706e-08
-1.24007e-08
0.00010132
4.11088e-08
-7.22904e-09
0.000100458
-9.26909e-09
-3.38382e-10
0.00010044
-5.59196e-08
9.33476e-09
0.00010041
-9.88902e-08
2.16468e-08
0.000100397
-1.38346e-07
3.62604e-08
0.000100401
-1.76874e-07
5.17939e-08
0.000100392
-3.84276e-07
6.78824e-08
0.000101406
9.48896e-08
9.81632e-05
2.71744e-07
-5.8617e-08
9.85298e-05
1.01699e-07
-5.62032e-08
0.000101351
4.81698e-08
-5.15337e-08
0.000100486
5.05011e-10
-4.51289e-08
0.00010047
-4.34415e-08
-3.62497e-08
0.000100445
-8.40898e-08
-2.50643e-08
0.000100438
-1.2237e-07
-1.20352e-08
0.000100451
-1.61025e-07
1.60893e-09
0.000100452
-3.58415e-07
1.59012e-08
0.000101451
4.12674e-08
9.82955e-05
2.73844e-07
-1.07961e-07
9.85415e-05
1.05993e-07
-1.07141e-07
0.000101367
5.45989e-08
-1.02729e-07
0.000100502
9.3004e-09
-9.74817e-08
0.000100488
-3.23797e-08
-9.04072e-08
0.000100466
-7.12055e-08
-8.17298e-08
0.000100464
-1.08779e-07
-7.20224e-08
0.000100484
-1.47513e-07
-6.21665e-08
0.000100493
-3.32833e-07
-5.35747e-08
0.000101472
-3.34821e-08
9.84058e-05
2.795e-07
-2.88049e-07
9.94376e-05
1.10382e-07
-2.88041e-07
0.000102283
6.0214e-08
-2.816e-07
0.000101403
1.68917e-08
-2.77262e-07
0.000101386
-2.33259e-08
-2.69208e-07
0.000101357
-6.13176e-08
-2.59671e-07
0.000101347
-9.85306e-08
-2.49132e-07
0.000101357
-1.38865e-07
-2.36794e-07
0.000101353
-3.16259e-07
-2.27788e-07
0.000102307
-2.06935e-07
9.92706e-05
2.79252e-07
9.65382e-05
1.12058e-07
9.93755e-05
6.49218e-08
9.85179e-05
2.38651e-08
9.85138e-05
-1.35773e-08
9.85092e-05
-4.92152e-08
9.85299e-05
-8.63091e-08
9.85761e-05
-1.25495e-07
9.86151e-05
-2.96786e-07
9.95759e-05
9.66549e-05
2.51873e-07
3.07897e-07
9.59547e-05
7.44963e-08
3.09313e-07
9.91698e-05
6.40552e-09
3.07443e-07
9.82081e-05
-5.61426e-08
3.08805e-07
9.81767e-05
-1.14028e-07
3.07903e-07
9.81358e-05
-1.64822e-07
3.06003e-07
9.81093e-05
-2.05065e-07
3.01659e-07
9.8098e-05
-2.35732e-07
2.90218e-07
9.80913e-05
-4.38535e-07
2.79668e-07
9.92936e-05
2.34543e-07
9.54632e-05
2.53801e-07
1.43002e-07
9.93582e-05
7.64629e-08
1.45524e-07
0.000102588
6.75093e-09
1.4719e-07
0.000101612
-5.67483e-08
1.49694e-07
0.000101585
-1.17265e-07
1.53094e-07
0.000101539
-1.72156e-07
1.56639e-07
0.000101503
-2.17142e-07
1.5967e-07
0.000101474
-2.55069e-07
1.61024e-07
0.000101425
-4.80268e-07
1.60504e-07
0.00010263
1.40273e-07
9.85507e-05
2.52127e-07
1.03778e-07
9.83261e-05
7.78724e-08
1.05985e-07
0.000101543
9.80726e-09
1.09913e-07
0.000100577
-5.31122e-08
1.14682e-07
0.000100548
-1.1321e-07
1.2145e-07
0.000100504
-1.68403e-07
1.29636e-07
0.000100471
-2.14876e-07
1.38936e-07
0.000100447
-2.55598e-07
1.4758e-07
0.000100409
-4.93127e-07
1.55667e-07
0.000101625
1.52973e-07
9.75368e-05
2.55121e-07
6.78206e-08
9.8307e-05
8.09343e-08
7.10395e-08
0.000101532
1.4487e-08
7.63918e-08
0.000100564
-4.68173e-08
8.34999e-08
0.000100535
-1.05497e-07
9.38268e-08
0.000100493
-1.59688e-07
1.07077e-07
0.000100462
-2.06432e-07
1.23133e-07
0.000100439
-2.48689e-07
1.39957e-07
0.000100404
-4.96978e-07
1.57306e-07
0.00010163
1.74587e-07
9.75188e-05
2.57659e-07
2.99042e-08
9.82881e-05
8.57844e-08
3.33146e-08
0.00010152
2.19282e-08
3.99469e-08
0.00010055
-3.65138e-08
4.88732e-08
0.000100523
-9.22421e-08
6.19275e-08
0.000100485
-1.43699e-07
7.91213e-08
0.000100459
-1.89089e-07
1.00429e-07
0.000100445
-2.31748e-07
1.2395e-07
0.000100418
-4.78112e-07
1.49481e-07
0.000101637
1.8915e-07
9.75793e-05
2.61697e-07
-1.09059e-08
9.82879e-05
9.17372e-08
-7.69593e-09
0.00010153
3.11718e-08
-4.97115e-10
0.000100558
-2.34033e-08
9.19667e-09
0.000100534
-7.48973e-08
2.33131e-08
0.000100501
-1.22313e-07
4.19789e-08
0.000100483
-1.64895e-07
6.52373e-08
0.000100481
-2.07071e-07
9.14442e-08
0.000100468
-4.39315e-07
1.21646e-07
0.000101667
1.7703e-07
9.77368e-05
2.6688e-07
-5.55674e-08
9.83074e-05
9.81836e-08
-5.24332e-08
0.000101564
4.12022e-08
-4.5878e-08
0.000100589
-9.08528e-09
-3.6822e-08
0.000100568
-5.59073e-08
-2.38152e-08
0.000100541
-9.87925e-08
-6.89447e-09
0.000100532
-1.37971e-07
1.37924e-08
0.000100544
-1.78065e-07
3.65757e-08
0.000100549
-3.87191e-07
6.28685e-08
0.00010172
1.15206e-07
9.79723e-05
2.69841e-07
-1.06993e-07
9.83234e-05
1.04107e-07
-1.05706e-07
0.000101587
5.03096e-08
-9.96246e-08
0.000100611
3.76751e-09
-9.22174e-08
0.000100592
-3.91491e-08
-8.18989e-08
0.00010057
-7.84009e-08
-6.89852e-08
0.000100569
-1.14893e-07
-5.4117e-08
0.000100592
-1.53202e-07
-3.96888e-08
0.00010061
-3.3584e-07
-2.43983e-08
0.000101746
9.22084e-09
9.81768e-05
2.77089e-07
-2.87784e-07
9.9342e-05
1.10176e-07
-2.87615e-07
0.000102633
5.83513e-08
-2.79267e-07
0.000101636
1.48125e-08
-2.73e-07
0.000101613
-2.56629e-08
-2.61588e-07
0.00010158
-6.33365e-08
-2.4782e-07
0.000101567
-9.97059e-08
-2.32688e-07
0.000101575
-1.38652e-07
-2.15436e-07
0.000101572
-3.08414e-07
-2.04908e-07
0.000102658
-1.74938e-07
9.91501e-05
2.76987e-07
9.59741e-05
1.1282e-07
9.92529e-05
6.51109e-08
9.82876e-05
2.50142e-08
9.82827e-05
-1.12686e-08
9.82861e-05
-4.56419e-08
9.83185e-05
-8.10167e-08
9.8382e-05
-1.22201e-07
9.84417e-05
-2.80349e-07
9.95326e-05
9.62011e-05
2.41326e-07
3.08811e-07
9.54016e-05
6.26074e-08
3.09912e-07
9.90356e-05
-1.31214e-08
3.07685e-07
9.79729e-05
-8.36834e-08
3.08496e-07
9.79355e-05
-1.50384e-07
3.06105e-07
9.7893e-05
-2.09651e-07
3.01207e-07
9.78639e-05
-2.55074e-07
2.91095e-07
9.78494e-05
-2.8632e-07
2.67334e-07
9.78519e-05
-4.94723e-07
2.36975e-07
9.92579e-05
1.36371e-07
9.4827e-05
2.43227e-07
1.47696e-07
9.92732e-05
6.44475e-08
1.50295e-07
0.000102923
-1.34986e-08
1.52439e-07
0.000101843
-8.59523e-08
1.5534e-07
0.000101807
-1.57334e-07
1.59164e-07
0.000101754
-2.24138e-07
1.62747e-07
0.000101705
-2.80264e-07
1.65094e-07
0.000101653
-3.29591e-07
1.63243e-07
0.000101575
-5.8715e-07
1.58961e-07
0.000102962
1.0293e-07
9.79924e-05
2.41375e-07
1.08836e-07
9.8121e-05
6.62108e-08
1.11243e-07
0.000101754
-9.85405e-09
1.16311e-07
0.000100687
-8.1775e-08
1.22347e-07
0.00010065
-1.5308e-07
1.3106e-07
0.000100601
-2.21031e-07
1.4176e-07
0.000100558
-2.8074e-07
1.54161e-07
0.000100515
-3.33896e-07
1.66721e-07
0.000100458
-6.27237e-07
1.81653e-07
0.000101893
1.76753e-07
9.68371e-05
2.44781e-07
7.37068e-08
9.80953e-05
7.0046e-08
7.74667e-08
0.000101739
-3.9661e-09
8.45864e-08
0.000100667
-7.38045e-08
9.40145e-08
0.000100631
-1.43198e-07
1.08116e-07
0.000100583
-2.09868e-07
1.26855e-07
0.000100542
-2.69044e-07
1.5065e-07
0.000100502
-3.23895e-07
1.77013e-07
0.000100449
-6.31596e-07
2.05595e-07
0.000101916
2.29623e-07
9.68386e-05
2.47969e-07
3.5735e-08
9.80766e-05
7.63925e-08
3.98821e-08
0.000101727
5.96714e-09
4.88391e-08
0.000100655
-5.97098e-08
6.10088e-08
0.000100621
-1.24389e-07
7.94362e-08
0.000100578
-1.86193e-07
1.04679e-07
0.000100543
-2.41362e-07
1.37886e-07
0.000100514
-2.94504e-07
1.76838e-07
0.000100474
-6.03015e-07
2.21382e-07
0.000101935
2.96766e-07
9.69143e-05
2.53144e-07
-5.71112e-09
9.80753e-05
8.43753e-08
-1.68027e-09
0.00010174
1.86461e-08
8.12325e-09
0.000100664
-4.11622e-08
2.15233e-08
0.000100634
-9.88377e-08
4.17661e-08
0.000100597
-1.52729e-07
6.97099e-08