/*--------------------------------*- C++ -*----------------------------------*\
  =========                 |
  \\      /  F ield         | OpenFOAM: The Open Source CFD Toolbox
   \\    /   O peration     | Website:  https://openfoam.org
    \\  /    A nd           | Version:  6
     \\/     M anipulation  |
\*---------------------------------------------------------------------------*/
FoamFile
{
    version     2.0;
    format      ascii;
    class       volVectorField;
    location    "900";
    object      U;
}
// * * * * * * * * * * * * * * * * * * * * * * * * * * * * * * * * * * * * * //

dimensions      [0 1 -1 0 0 0 0];

internalField   nonuniform List<vector> 
7000
(
(0.000591923 0.000601038 0.997879)
(0.000743048 0.000601837 0.999414)
(0.000198515 0.000601351 0.998953)
(6.28115e-05 0.000601251 0.998954)
(-2.38762e-06 0.000601122 0.998957)
(-6.59781e-05 0.000600935 0.998958)
(-0.000124611 0.000600687 0.998955)
(-0.000250108 0.000600442 0.998954)
(-0.000793663 0.000600565 0.999428)
(-0.000619446 0.000599227 0.997871)
(0.00059281 0.000760845 0.999413)
(0.000743157 0.000760832 1.00095)
(0.000198081 0.000760702 1.00049)
(6.24849e-05 0.000760524 1.00049)
(-2.71718e-06 0.000760394 1.00049)
(-6.63952e-05 0.000760226 1.00049)
(-0.000125005 0.00076001 1.00048)
(-0.000250399 0.000759868 1.00048)
(-0.000794711 0.000759616 1.00096)
(-0.000620884 0.000758986 0.999395)
(0.000592355 0.000219446 0.998952)
(0.000743063 0.000218962 1.00049)
(0.000198145 0.000219078 1.00003)
(6.25461e-05 0.000219205 1.00003)
(-2.66224e-06 0.000219394 1.00003)
(-6.63677e-05 0.000219619 1.00003)
(-0.000125 0.000219855 1.00003)
(-0.000250432 0.0002201 1.00002)
(-0.000794821 0.000220288 1.0005)
(-0.000620621 0.000220861 0.998937)
(0.000592356 9.02265e-05 0.998953)
(0.000743031 8.99486e-05 1.00049)
(0.00019832 9.01712e-05 1.00003)
(6.28226e-05 9.05035e-05 1.00003)
(-2.30361e-06 9.09689e-05 1.00003)
(-6.59603e-05 9.15317e-05 1.00003)
(-0.000124568 9.2151e-05 1.00002)
(-0.000249978 9.28108e-05 1.00002)
(-0.000794377 9.3505e-05 1.0005)
(-0.000620489 9.45539e-05 0.998935)
(0.000592407 2.98387e-05 0.998956)
(0.000743183 2.96934e-05 1.00049)
(0.000198671 3.00302e-05 1.00003)
(6.33473e-05 3.05646e-05 1.00003)
(-1.63574e-06 3.12948e-05 1.00003)
(-6.5193e-05 3.21782e-05 1.00003)
(-0.00012373 3.31705e-05 1.00003)
(-0.000249055 3.42508e-05 1.00002)
(-0.000793456 3.54803e-05 1.0005)
(-0.000620069 3.71242e-05 0.998936)
(0.000592484 -3.1995e-05 0.998956)
(0.00074344 -3.20774e-05 1.00049)
(0.000199179 -3.16633e-05 1.00003)
(6.40921e-05 -3.09809e-05 1.00003)
(-6.9061e-07 -3.0059e-05 1.00003)
(-6.4091e-05 -2.89396e-05 1.00003)
(-0.000122503 -2.76614e-05 1.00003)
(-0.00024766 -2.62415e-05 1.00002)
(-0.000791941 -2.45396e-05 1.0005)
(-0.000619298 -2.23192e-05 0.998933)
(0.000592569 -9.23988e-05 0.998953)
(0.00074376 -9.23575e-05 1.00048)
(0.000199776 -9.19247e-05 1.00002)
(6.49592e-05 -9.11993e-05 1.00002)
(4.07292e-07 -9.02227e-05 1.00003)
(-6.27999e-05 -8.90316e-05 1.00003)
(-0.000121039 -8.76502e-05 1.00002)
(-0.000245944 -8.60505e-05 1.00002)
(-0.000789995 -8.4153e-05 1.00049)
(-0.000618268 -8.16323e-05 0.998928)
(0.000592666 -0.000222029 0.998952)
(0.000744159 -0.000221817 1.00048)
(0.000200362 -0.000221454 1.00002)
(6.58024e-05 -0.000220789 1.00002)
(1.48038e-06 -0.000219877 1.00003)
(-6.152e-05 -0.000218732 1.00002)
(-0.000119527 -0.000217344 1.00002)
(-0.000244188 -0.000215744 1.00002)
(-0.000787954 -0.000213746 1.00049)
(-0.000617072 -0.000211641 0.998926)
(0.00059314 -0.000765228 0.999423)
(0.00074445 -0.00076559 1.00095)
(0.000200813 -0.000765249 1.00049)
(6.65289e-05 -0.00076463 1.00049)
(2.47051e-06 -0.000763849 1.0005)
(-6.02453e-05 -0.00076278 1.0005)
(-0.000118018 -0.000761393 1.00049)
(-0.000242337 -0.000759774 1.00049)
(-0.000786138 -0.0007581 1.00097)
(-0.000616627 -0.000756221 0.999398)
(0.000592244 -0.000603805 0.997871)
(0.00074441 -0.000604816 0.999398)
(0.000201547 -0.000604291 0.998939)
(6.73654e-05 -0.000604055 0.998938)
(3.53826e-06 -0.000603711 0.998939)
(-5.88287e-05 -0.000603187 0.998937)
(-0.000116293 -0.000602468 0.998932)
(-0.000240828 -0.00060153 0.99893)
(-0.000784577 -0.000601233 0.999404)
(-0.000615125 -0.000599626 0.997837)
(0.00143638 0.00149195 0.994354)
(0.00167135 0.00149913 0.999141)
(0.000374313 0.00149777 0.997299)
(0.000190582 0.00150037 0.997283)
(-5.92564e-06 0.00150292 0.997265)
(-0.000208485 0.00150554 0.997256)
(-0.000384697 0.00150795 0.997256)
(-0.000529785 0.0015095 0.997254)
(-0.00183637 0.001514 0.999178)
(-0.00153526 0.00150799 0.994203)
(0.00144336 0.00177533 0.999221)
(0.00167632 0.0017809 1.00402)
(0.000377488 0.00178316 1.00217)
(0.000195457 0.0017876 1.00216)
(-6.29438e-07 0.00179303 1.00214)
(-0.00020339 0.00179884 1.00214)
(-0.000380261 0.00180446 1.00214)
(-0.000525555 0.00180944 1.00214)
(-0.00183662 0.00181414 1.00406)
(-0.00154076 0.00181378 0.999075)
(0.001442 0.000490145 0.997342)
(0.00167855 0.000494126 1.00214)
(0.000381665 0.000498473 1.00029)
(0.000200679 0.000504047 1.00028)
(5.37916e-06 0.000511022 1.00026)
(-0.000197153 0.000518792 1.00025)
(-0.000374346 0.000526634 1.00025)
(-0.000520699 0.000533823 1.00025)
(-0.00183102 0.000539049 1.00218)
(-0.00153547 0.000544848 0.997194)
(0.00144484 0.000340035 0.997334)
(0.00168323 0.000346115 1.00213)
(0.000387257 0.000351593 1.00029)
(0.000208044 0.000358952 1.00027)
(1.41137e-05 0.00036817 1.00026)
(-0.00018783 0.000378524 1.00025)
(-0.000365323 0.000389042 1.00025)
(-0.000512929 0.000398693 1.00025)
(-0.0018237 0.000406132 1.00218)
(-0.00153217 0.00041404 0.997195)
(0.00144777 0.000164728 0.997325)
(0.0016891 0.000171621 1.00213)
(0.000394268 0.000177928 1.00028)
(0.000217238 0.000186561 1.00027)
(2.49546e-05 0.000197305 1.00025)
(-0.000176258 0.000209371 1.00025)
(-0.000354142 0.000221645 1.00025)
(-0.000503233 0.000232905 1.00025)
(-0.00181402 0.000241826 1.00217)
(-0.0015269 0.00025241 0.9972)
(0.00145096 -3.20226e-05 0.997327)
(0.00169553 -2.50171e-05 1.00213)
(0.000402 -1.85348e-05 1.00028)
(0.000227398 -9.47763e-06 1.00027)
(3.69235e-05 1.75279e-06 1.00026)
(-0.000163465 1.43626e-05 1.00025)
(-0.000341749 2.72079e-05 1.00026)
(-0.000492402 3.8984e-05 1.00026)
(-0.00180263 4.84846e-05 1.00218)
(-0.00152045 6.10553e-05 0.99722)
(0.0014541 -0.000219805 0.997338)
(0.00170187 -0.000213302 1.00215)
(0.000409669 -0.00020725 1.0003)
(0.000237496 -0.000198638 1.00029)
(4.87849e-05 -0.000188045 1.00027)
(-0.000150786 -0.000176195 1.00027)
(-0.00032949 -0.000164165 1.00028)
(-0.000481691 -0.000153293 1.00028)
(-0.00179062 -0.000143952 1.0022)
(-0.00151332 -0.000131155 0.997251)
(0.00145646 -0.00039319 0.997349)
(0.0017076 -0.000386982 1.00216)
(0.000416587 -0.000382042 1.00031)
(0.000246568 -0.000374773 1.0003)
(5.93452e-05 -0.000365863 1.00029)
(-0.000139581 -0.000355908 1.00029)
(-0.000318829 -0.000345875 1.0003)
(-0.000472021 -0.00033649 1.0003)
(-0.00177952 -0.000328234 1.00222)
(-0.00150639 -0.000318172 0.997282)
(0.00146168 -0.0016958 0.999216)
(0.00171313 -0.00169309 1.00403)
(0.000421678 -0.00168707 1.00218)
(0.000253478 -0.00167998 1.00217)
(6.75087e-05 -0.00167114 1.00215)
(-0.000130852 -0.00166109 1.00215)
(-0.000310049 -0.00165051 1.00215)
(-0.000463902 -0.00164047 1.00216)
(-0.00177216 -0.00163356 1.00407)
(-0.00150447 -0.00162163 0.999135)
(0.00145786 -0.00145436 0.994372)
(0.00171537 -0.00145774 0.999184)
(0.000428381 -0.00145212 0.997336)
(0.000261655 -0.00144875 0.997328)
(7.74926e-05 -0.00144388 0.997321)
(-0.00011951 -0.00143826 0.997326)
(-0.000298521 -0.00143211 0.99734)
(-0.000454577 -0.00142593 0.997355)
(-0.00176011 -0.00142448 0.999267)
(-0.00149338 -0.00141353 0.994359)
(0.00193765 0.00202763 0.990162)
(0.00205705 0.00204097 0.998667)
(0.000334049 0.00203586 0.995452)
(0.00027898 0.00204025 0.995412)
(-4.26411e-05 0.0020434 0.995329)
(-0.000349552 0.00204673 0.995303)
(-0.000636441 0.00204972 0.995333)
(-0.000613991 0.00205028 0.995324)
(-0.00235495 0.00205963 0.998731)
(-0.00212127 0.00204463 0.989745)
(0.00195089 0.00222685 0.998886)
(0.0020654 0.00223612 1.00741)
(0.000338712 0.00223735 1.00419)
(0.000286131 0.00224443 1.00416)
(-3.58632e-05 0.00225254 1.00409)
(-0.000343692 0.00226117 1.00407)
(-0.000632556 0.00226932 1.0041)
(-0.000609806 0.00227594 1.00409)
(-0.00236016 0.00228537 1.00752)
(-0.00213537 0.00228034 0.998496)
(0.00194574 0.000529291 0.99558)
(0.00206657 0.000535622 1.0041)
(0.000345572 0.000542801 1.00088)
(0.000294633 0.000551877 1.00085)
(-2.59043e-05 0.000563542 1.00077)
(-0.000333304 0.000576563 1.00075)
(-0.000622636 0.000589694 1.00078)
(-0.000601578 0.000601917 1.00077)
(-0.00234909 0.000611054 1.00419)
(-0.00212463 0.000618921 0.995186)
(0.00195069 0.000534838 0.995559)
(0.00207424 0.00054468 1.00409)
(0.000354706 0.000553757 1.00087)
(0.000306813 0.000566039 1.00083)
(-1.12568e-05 0.000581695 1.00076)
(-0.000317593 0.000599405 1.00074)
(-0.000607309 0.000617505 1.00078)
(-0.000588158 0.000634349 1.00077)
(-0.0023376 0.000647671 1.00418)
(-0.00212036 0.000659669 0.99519)
(0.00195482 0.000250964 0.995502)
(0.00208354 0.000261499 1.00405)
(0.00036665 0.000272267 1.00082)
(0.000322525 0.000287078 1.00079)
(7.47232e-06 0.000305769 1.00071)
(-0.00029742 0.000327006 1.0007)
(-0.000587623 0.000348874 1.00074)
(-0.000570877 0.000369185 1.00073)
(-0.0023206 0.000385604 1.00414)
(-0.00211113 0.000404354 0.995174)
(0.0019596 -4.36843e-05 0.995504)
(0.00209392 -3.30835e-05 1.00406)
(0.000380038 -2.18202e-05 1.00083)
(0.000340252 -6.00826e-06 1.0008)
(2.86699e-05 1.38966e-05 1.00073)
(-0.000274424 3.66155e-05 1.00072)
(-0.000565064 6.01236e-05 1.00076)
(-0.000550909 8.1953e-05 1.00077)
(-0.00229952 0.000100018 1.00416)
(-0.00209923 0.000123338 0.99523)
(0.00196455 -0.000347697 0.995566)
(0.00210432 -0.000338462 1.00413)
(0.00039349 -0.000327718 1.0009)
(0.000358156 -0.000312426 1.00087)
(5.00786e-05 -0.0002934 1.0008)
(-0.000251142 -0.000271729 1.0008)
(-0.000542222 -0.000249382 1.00085)
(-0.000530492 -0.000228615 1.00086)
(-0.00227692 -0.000211328 1.00425)
(-0.00208625 -0.000185876 0.99535)
(0.00196735 -0.000376564 0.995588)
(0.0021134 -0.000367345 1.00416)
(0.000405926 -0.00035852 1.00093)
(0.000374494 -0.000345374 1.0009)
(6.9352e-05 -0.000329213 1.00084)
(-0.000230365 -0.000310847 1.00083)
(-0.000521899 -0.00029187 1.00089)
(-0.000512484 -0.000274452 1.0009)
(-0.00225523 -0.000258933 1.00428)
(-0.00207171 -0.000237759 0.995424)
(0.00197835 -0.00211225 0.998854)
(0.00212483 -0.00210996 1.00744)
(0.000415156 -0.00209754 1.0042)
(0.000387169 -0.00208583 1.00417)
(8.44016e-05 -0.00207038 1.0041)
(-0.000213929 -0.00205236 1.00409)
(-0.000505861 -0.00203325 1.00413)
(-0.000497293 -0.00201421 1.00413)
(-0.00224212 -0.00200258 1.0075)
(-0.00206925 -0.00197926 0.998653)
(0.00196897 -0.00198022 0.990225)
(0.00212667 -0.00198893 0.99881)
(0.000425678 -0.00197711 0.995581)
(0.000400004 -0.00197237 0.995565)
(0.000101532 -0.00196401 0.995516)
(-0.00019397 -0.00195419 0.995532)
(-0.000483945 -0.00194374 0.995608)
(-0.000478521 -0.00193122 0.995643)
(-0.00221934 -0.00193028 0.999013)
(-0.00204831 -0.00190922 0.990229)
(0.00225394 0.00237853 0.984992)
(0.00219584 0.00239802 0.997628)
(0.000225424 0.00238791 0.99318)
(0.000323306 0.0023941 0.993123)
(-0.00012905 0.00239676 0.992959)
(-0.000478632 0.0023999 0.992905)
(-0.000881125 0.00240286 0.992963)
(-0.000657976 0.00240043 0.992924)
(-0.00265806 0.00241487 0.997724)
(-0.00254438 0.00238682 0.984156)
(0.00227369 0.00243263 0.998031)
(0.00220713 0.00244497 1.01071)
(0.00023116 0.00244412 1.00624)
(0.000332054 0.00245361 1.0062)
(-0.000122337 0.00246358 1.00605)
(-0.000473946 0.00247433 1.00601)
(-0.000880774 0.00248448 1.00607)
(-0.000656593 0.00249131 1.00603)
(-0.00267249 0.00250559 1.01086)
(-0.00257081 0.00249203 0.997219)
(0.00226351 0.000503788 0.993423)
(0.00220618 0.000512214 1.00608)
(0.000240956 0.000522565 1.00163)
(0.000343713 0.000534958 1.00158)
(-0.00010821 0.000551589 1.00142)
(-0.000458944 0.000570277 1.00138)
(-0.000866129 0.00058926 1.00144)
(-0.000644872 0.000607321 1.0014)
(-0.00265546 0.00062094 1.00622)
(-0.00255406 0.000629835 0.992613)
(0.00227079 0.000691847 0.993404)
(0.00221688 0.000705217 1.00608)
(0.000253492 0.000717983 1.00162)
(0.00036074 0.0007353 1.00158)
(-8.73347e-05 0.000757917 1.00142)
(-0.000436268 0.000783872 1.00138)
(-0.000843804 0.000810849 1.00145)
(-0.000624557 0.00083625 1.00142)
(-0.00263981 0.000857874 1.00622)
(-0.00254984 0.000874417 0.992641)
(0.00227545 0.000296868 0.99329)
(0.00222932 0.000310415 1.00599)
(0.000270827 0.000326182 1.00152)
(0.000383564 0.000347657 1.00148)
(-5.96053e-05 0.000375379 1.00133)
(-0.000405863 0.000407489 1.0013)
(-0.000813658 0.000441251 1.00138)
(-0.000597193 0.000473322 1.00135)
(-0.00261261 0.000500802 1.00615)
(-0.00253514 0.000531504 0.992615)
(0.00228163 -3.08711e-05 0.993295)
(0.00224382 -1.71993e-05 1.00602)
(0.000290537 -2.96264e-07 1.00154)
(0.000409814 2.29689e-05 1.00151)
(-2.75001e-05 5.2965e-05 1.00137)
(-0.000370287 8.7969e-05 1.00134)
(-0.000777918 0.000125076 1.00143)
(-0.000564324 0.000160565 1.00141)
(-0.00257753 0.000191106 1.0062)
(-0.00251557 0.000231502 0.992734)
(0.0022887 -0.000453395 0.993416)
(0.00225883 -0.000442431 1.00616)
(0.000310545 -0.00042594 1.00168)
(0.000436658 -0.000403227 1.00165)
(5.37841e-06 -0.00037436 1.00152)
(-0.000333653 -0.000340705 1.0015)
(-0.000740993 -0.000304985 1.00161)
(-0.000530205 -0.000271235 1.0016)
(-0.002539 -0.000241568 1.00636)
(-0.00249359 -0.000196308 0.992983)
(0.0022912 -0.00030533 0.993437)
(0.00227119 -0.000293448 1.0062)
(0.00032942 -0.000279967 1.00171)
(0.000461289 -0.000259828 1.00169)
(3.50627e-05 -0.000234897 1.00156)
(-0.00030079 -0.000205949 1.00156)
(-0.000708355 -0.000175574 1.00167)
(-0.000500059 -0.000147077 1.00167)
(-0.00250106 -0.000120282 1.00641)
(-0.00246831 -8.2675e-05 0.993117)
(0.0023094 -0.00229404 0.997979)
(0.00229033 -0.00229266 1.01078)
(0.000343736 -0.00227209 1.00626)
(0.000481415 -0.00225525 1.00623)
(5.90711e-05 -0.0022315 1.00609)
(-0.000274679 -0.00220372 1.00607)
(-0.000682388 -0.0021737 1.00616)
(-0.000474485 -0.00214241 1.00615)
(-0.00247997 -0.00212452 1.01086)
(-0.00246434 -0.00208437 0.997592)
(0.0022933 -0.00232987 0.985104)
(0.00229138 -0.00234508 0.997889)
(0.000358301 -0.00232574 0.993419)
(0.000499243 -0.00231997 0.993412)
(8.46755e-05 -0.00230715 0.99332)
(-0.000243567 -0.00229248 0.993352)
(-0.000646787 -0.00227643 0.993507)
(-0.000443396 -0.00225606 0.993559)
(-0.00244214 -0.00225537 0.998283)
(-0.00243036 -0.00222043 0.985146)
(0.00247959 0.00264345 0.979361)
(0.00225152 0.00266881 0.99633)
(0.000122461 0.00265341 0.990695)
(0.000329993 0.00266144 0.990609)
(-0.000267134 0.00266258 0.990374)
(-0.000611697 0.00266461 0.990283)
(-0.00114216 0.00266654 0.990341)
(-0.000751695 0.00265832 0.990268)
(-0.00292762 0.00267633 0.996481)
(-0.00291018 0.00262814 0.977938)
(0.00250586 0.0025653 0.996962)
(0.00226535 0.00258012 1.01399)
(0.00012909 0.00257759 1.00832)
(0.000339928 0.00258969 1.00826)
(-0.000261795 0.00260116 1.00804)
(-0.000610252 0.0026137 1.00796)
(-0.00114917 0.00262539 1.00803)
(-0.000757352 0.00262988 1.00793)
(-0.00295886 0.00264812 1.0142)
(-0.00295484 0.00261729 0.99549)
(0.00249036 0.000498278 0.991083)
(0.00226267 0.000508885 1.00808)
(0.000142841 0.000523621 1.00243)
(0.000355335 0.000540046 1.00236)
(-0.000242528 0.000563039 1.00214)
(-0.000589446 0.000589012 1.00206)
(-0.00112904 0.000615596 1.00212)
(-0.000741586 0.00064085 1.00204)
(-0.00293721 0.000660857 1.00827)
(-0.00293404 0.000668019 0.989626)
(0.00250039 0.000831581 0.991057)
(0.00227707 0.000848829 1.00809)
(0.000159581 0.000866334 1.00243)
(0.000378508 0.000890121 1.00236)
(-0.000213634 0.000921911 1.00214)
(-0.000557635 0.000959043 1.00207)
(-0.00109744 0.000998447 1.00214)
(-0.000711723 0.00103612 1.00206)
(-0.00291662 0.0010703 1.00829)
(-0.00293064 0.00109319 0.989672)
(0.0025053 0.000317651 0.990905)
(0.00229326 0.000334491 1.00796)
(0.000184046 0.000356975 1.00229)
(0.000410789 0.000387227 1.00224)
(-0.000173537 0.000427317 1.00203)
(-0.000512644 0.000474801 1.00197)
(-0.00105186 0.000526268 1.00205)
(-0.000668918 0.000576068 1.00199)
(-0.00287347 0.000621538 1.0082)
(-0.0029074 0.000672231 0.989675)
(0.00251321 9.78814e-06 0.990911)
(0.00231312 2.71361e-05 1.008)
(0.000212218 5.17639e-05 1.00233)
(0.000448636 8.50431e-05 1.00228)
(-0.000126039 0.000129144 1.00208)
(-0.000458508 0.000181908 1.00204)
(-0.000996174 0.000239653 1.00215)
(-0.000615494 0.000296065 1.0021)
(-0.00281495 0.00034767 1.00829)
(-0.00287488 0.000416958 0.989899)
(0.00252326 -0.000540639 0.991076)
(0.00233453 -0.00052764 1.00821)
(0.000241097 -0.000503189 1.00252)
(0.000487866 -0.000470609 1.00248)
(-7.66648e-05 -0.000427989 1.0023)
(-0.000401962 -0.000377024 1.00227)
(-0.000937641 -0.000321369 1.0024)
(-0.000558993 -0.000266803 1.00239)
(-0.00275003 -0.000217571 1.00854)
(-0.00283814 -0.000138798 0.990312)
(0.00252544 -0.000250939 0.991102)
(0.00235122 -0.000235822 1.00825)
(0.000268621 -0.000216273 1.00257)
(0.000523696 -0.000186669 1.00253)
(-3.22941e-05 -0.000149545 1.00236)
(-0.000351619 -0.000105465 1.00235)
(-0.000885801 -5.77137e-05 1.0025)
(-0.000509881 -1.2197e-05 1.0025)
(-0.00268606 3.17233e-05 1.00861)
(-0.00279485 0.000100291 0.99056)
(0.00255161 -0.00240218 0.996895)
(0.0023793 -0.002401 1.01411)
(0.000289607 -0.00237062 1.00837)
(0.000554279 -0.00234673 1.00833)
(4.4207e-06 -0.00231108 1.00814)
(-0.000310899 -0.00226891 1.0081)
(-0.000845086 -0.00222303 1.00822)
(-0.000468794 -0.00217355 1.00819)
(-0.00264719 -0.00214221 1.01425)
(-0.00278218 -0.00207226 0.996249)
(0.00252867 -0.00259621 0.979516)
(0.00238074 -0.00261794 0.996713)
(0.000309977 -0.0025899 0.991051)
(0.00057938 -0.00258254 0.991049)
(4.27832e-05 -0.00256321 0.990935)
(-0.000263713 -0.00254113 0.990994)
(-0.000789582 -0.00251762 0.991223)
(-0.00041672 -0.00248539 0.991311)
(-0.00258455 -0.00248059 0.997395)
(-0.00273005 -0.00242596 0.979647)
(0.00263592 0.00284585 0.973666)
(0.00224845 0.00287632 0.995017)
(1.76714e-05 0.00285546 0.988193)
(0.00029359 0.00286496 0.988055)
(-0.000457722 0.00286323 0.987759)
(-0.000771854 0.00286241 0.987622)
(-0.00143804 0.00286071 0.987651)
(-0.000908305 0.00284191 0.987559)
(-0.00321199 0.00285859 0.995276)
(-0.00325473 0.00277447 0.971462)
(0.00266832 0.00265426 0.995929)
(0.00226423 0.00267076 1.01736)
(2.49139e-05 0.00266713 1.01049)
(0.000303819 0.00268186 1.01038)
(-0.000455995 0.00269431 1.01009)
(-0.000777645 0.0027077 1.00996)
(-0.00145939 0.00271856 1.00999)
(-0.000930232 0.00271711 1.00984)
(-0.00327898 0.00273164 1.01764)
(-0.00333204 0.0026644 0.993462)
(0.00264743 0.000512898 0.98876)
(0.00226045 0.000525922 1.01014)
(4.37297e-05 0.00054649 1.0033)
(0.000323836 0.000568162 1.00318)
(-0.000430293 0.000599554 1.00289)
(-0.000750166 0.000635156 1.00276)
(-0.00143257 0.000671793 1.00279)
(-0.000912306 0.000706746 1.00266)
(-0.00326021 0.0007317 1.01041)
(-0.00331236 0.000731231 0.986339)
(0.00266048 0.000959872 0.988704)
(0.00227935 0.000981494 1.01013)
(6.60533e-05 0.00100545 1.00327)
(0.000355239 0.00103802 1.00316)
(-0.000390629 0.00108251 1.00288)
(-0.000705477 0.00113561 1.00276)
(-0.00138818 0.00119386 1.0028)
(-0.00086982 0.00124956 1.00268)
(-0.00323606 0.00130265 1.01043)
(-0.0033127 0.0013358 0.98638)
(0.00266562 0.000327655 0.988529)
(0.00230053 0.00034845 1.00999)
(0.000100341 0.000380301 1.00313)
(0.000400751 0.000422729 1.00303)
(-0.000332594 0.000480655 1.00276)
(-0.000638398 0.000551206 1.00266)
(-0.00131852 0.000630304 1.00273)
(-0.000802063 0.000709191 1.00264)
(-0.0031668 0.000784612 1.01036)
(-0.00327586 0.000874146 0.986463)
(0.00267581 7.37008e-05 0.988536)
(0.00232771 9.59132e-05 1.01005)
(0.000140331 0.000131315 1.00317)
(0.000455287 0.000178817 1.00308)
(-0.000262136 0.000243725 1.00284)
(-0.000555559 0.000323587 1.00277)
(-0.00123031 0.000414061 1.00287)
(-0.000713673 0.000505875 1.00282)
(-0.00306581 0.000594849 1.01049)
(-0.00321882 0.000722379 0.986856)
(0.00269 -0.000606256 0.988726)
(0.00235805 -0.000590321 1.0103)
(0.000181784 -0.000554681 1.00341)
(0.000512697 -0.00050808 1.00333)
(-0.00018778 -0.000445005 1.00311)
(-0.000467721 -0.000367566 1.00307)
(-0.00113618 -0.000279833 1.00322)
(-0.000617595 -0.000191045 1.0032)
(-0.00294951 -0.000105108 1.01082)
(-0.00315269 4.05658e-05 0.987496)
(0.00269217 -0.000206872 0.988778)
(0.00238097 -0.000187134 1.01038)
(0.000221462 -0.000158878 1.00349)
(0.000564776 -0.000115743 1.00342)
(-0.000121249 -6.04993e-05 1.00322)
(-0.000389847 6.64914e-06 1.00321)
(-0.00105357 8.15056e-05 1.00338)
(-0.0005354 0.00015344 1.0034)
(-0.00283486 0.000230505 1.01094)
(-0.0030767 0.000356195 0.987942)
(0.00272763 -0.00246075 0.995845)
(0.00242033 -0.00245864 1.01756)
(0.000252167 -0.00241602 1.01058)
(0.000610715 -0.00238165 1.0105)
(-6.54529e-05 -0.00232841 1.01026)
(-0.000327109 -0.00226505 1.01021)
(-0.000990837 -0.00219517 1.01033)
(-0.000467314 -0.00211842 1.01029)
(-0.00276169 -0.00206157 1.01775)
(-0.00304805 -0.00194293 0.994846)
(0.00269764 -0.00279988 0.973854)
(0.00242336 -0.00282816 0.995527)
(0.000280976 -0.00279013 0.988673)
(0.000647068 -0.00277984 0.988659)
(-8.37142e-06 -0.00275099 0.988551)
(-0.000256061 -0.0027183 0.98865)
(-0.000905274 -0.00268317 0.988955)
(-0.000383874 -0.00263349 0.989124)
(-0.00266114 -0.0026203 0.996617)
(-0.00296948 -0.00253622 0.974177)
(0.00272871 0.00299234 0.967997)
(0.00218511 0.00302679 0.993713)
(-0.000107293 0.0030003 0.985725)
(0.000205677 0.00301029 0.985517)
(-0.000704087 0.00300367 0.985167)
(-0.00098005 0.0029967 0.984977)
(-0.00178445 0.0029862 0.984955)
(-0.00113319 0.0029469 0.984855)
(-0.00353753 0.00295009 0.994179)
(-0.00360822 0.00279911 0.964803)
(0.00276663 0.00270034 0.994963)
(0.00220212 0.00271755 1.02079)
(-9.99203e-05 0.00271331 1.01272)
(0.000214431 0.00273013 1.01255)
(-0.00071013 0.00274239 1.0122)
(-0.00100055 0.00275378 1.012)
(-0.00183414 0.00275938 1.01194)
(-0.00119303 0.00273968 1.01171)
(-0.00367815 0.00273965 1.02112)
(-0.00374315 0.00259069 0.990966)
(0.00274034 0.000533522 0.986507)
(0.00219786 0.00054922 1.01225)
(-7.50748e-05 0.000577105 1.00424)
(0.000239876 0.000605438 1.00406)
(-0.000677134 0.000647451 1.00371)
(-0.000965686 0.000695134 1.00351)
(-0.00180291 0.000744522 1.00346)
(-0.00117514 0.000789107 1.00327)
(-0.00367474 0.000822592 1.01264)
(-0.00373814 0.000792183 0.982586)
(0.00275644 0.00107522 0.986403)
(0.00222199 0.00110163 1.01221)
(-4.54796e-05 0.0011342 1.00417)
(0.000281916 0.00117841 1.004)
(-0.000623319 0.00124009 1.00366)
(-0.000904099 0.00131555 1.00348)
(-0.00174134 0.00140068 1.00345)
(-0.00111548 0.00148397 1.00327)
(-0.00364938 0.00156685 1.01264)
(-0.00374707 0.00161016 0.982579)
(0.00276196 0.000334221 0.986216)
(0.00224982 0.00035975 1.01207)
(2.01384e-06 0.000404381 1.00403)
(0.000345605 0.000463427 1.00386)
(-0.000539847 0.000546625 1.00355)
(-0.000804461 0.000650976 1.0034)
(-0.00163447 0.000773045 1.00341)
(-0.00100723 0.000898909 1.00327)
(-0.00353724 0.00102727 1.01261)
(-0.00368704 0.00118623 0.982807)
(0.00277512 0.00015601 0.986221)
(0.0022868 0.000184483 1.01215)
(5.8244e-05 0.000234577 1.00409)
(0.000423755 0.000301974 1.00394)
(-0.000435783 0.000396984 1.00366)
(-0.000677274 0.000517608 1.00355)
(-0.00149377 0.000660536 1.00362)
(-0.00085796 0.000811296 1.00355)
(-0.00335683 0.0009679 1.01281)
(-0.0035822 0.00120524 0.983487)
(0.00279466 -0.000646853 0.986424)
(0.00232918 -0.000626685 1.01243)
(0.000117264 -0.000575751 1.00435)
(0.000507408 -0.000509575 1.00423)
(-0.000324114 -0.000416716 1.00398)
(-0.000540253 -0.000299111 1.00392)
(-0.00134074 -0.000160677 1.00406)
(-0.000692643 -1.41539e-05 1.00407)
(-0.00314609 0.00013614 1.01323)
(-0.00345479 0.00040217 0.98453)
(0.00279767 -0.000157454 0.986517)
(0.00236106 -0.00013196 1.01257)
(0.00017357 -9.16425e-05 1.00449)
(0.000582635 -2.99061e-05 1.00438)
(-0.000224666 5.12967e-05 1.00416)
(-0.000420246 0.000152628 1.00414)
(-0.00120847 0.000268541 1.00433)
(-0.000553927 0.000386171 1.00439)
(-0.00294717 0.000510642 1.01343)
(-0.00331919 0.000735885 0.98537)
(0.0028433 -0.00247038 0.994856)
(0.00241389 -0.00246596 1.02107)
(0.000217749 -0.00240812 1.01286)
(0.000649896 -0.00235876 1.01273)
(-0.000141679 -0.00228074 1.01246)
(-0.000325228 -0.00218627 1.01237)
(-0.00110992 -0.00208013 1.01249)
(-0.000448069 -0.00196255 1.01245)
(-0.00281953 -0.00187105 1.02132)
(-0.0032481 -0.00166671 0.993471)
(0.00280687 -0.00294822 0.968204)
(0.00242072 -0.00298228 0.994354)
(0.000258443 -0.00293268 0.986332)
(0.000702981 -0.00291738 0.986299)
(-5.68584e-05 -0.00287523 0.986223)
(-0.00021799 -0.00282668 0.986385)
(-0.000982097 -0.00277335 0.986786)
(-0.000320101 -0.00270106 0.987082)
(-0.00265616 -0.00267229 0.996004)
(-0.0031297 -0.00254008 0.968975)
(0.0027701 0.00309463 0.962354)
(0.00207469 0.00313143 0.992384)
(-0.000255616 0.00309904 0.983287)
(6.30645e-05 0.00310762 0.983007)
(-0.00101163 0.00309284 0.982612)
(-0.00125631 0.00307406 0.982369)
(-0.00220878 0.00304388 0.982284)
(-0.00145249 0.00296505 0.982189)
(-0.0039445 0.0029258 0.993253)
(-0.00396163 0.00263082 0.958012)
(0.00281249 0.00271684 0.994035)
(0.00209161 0.00273318 1.0242)
(-0.000249518 0.00272854 1.01499)
(6.67278e-05 0.00274583 1.01475)
(-0.00103274 0.00275506 1.01432)
(-0.00130618 0.00275892 1.01403)
(-0.00231432 0.00274656 1.01383)
(-0.00159528 0.00268884 1.01346)
(-0.00425874 0.00263016 1.02459)
(-0.00422803 0.00229492 0.987724)
(0.00278086 0.000558946 0.984321)
(0.00208731 0.000577132 1.01437)
(-0.000218114 0.000613611 1.00524)
(9.77131e-05 0.000649706 1.00499)
(-0.000992563 0.000704076 1.00458)
(-0.00126658 0.000765638 1.0043)
(-0.00228255 0.000829323 1.00413)
(-0.00159351 0.000884039 1.00383)
(-0.00432425 0.000912675 1.01499)
(-0.00427648 0.000814078 0.978192)
(0.00279965 0.00117903 0.984161)
(0.00211703 0.00121017 1.01429)
(-0.000179698 0.00125367 1.00513)
(0.000152603 0.0013125 1.00488)
(-0.000921546 0.00139646 1.00449)
(-0.00118286 0.00150197 1.00423)
(-0.00219877 0.00162678 1.00408)
(-0.00151071 0.00175094 1.0038)
(-0.00431107 0.00187829 1.01502)
(-0.00431301 0.0019451 0.978133)
(0.00280569 0.00034137 0.98397)
(0.00215328 0.000372213 1.01416)
(-0.000115221 0.000433502 1.00499)
(0.000240353 0.000514452 1.00476)
(-0.000802881 0.000632484 1.0044)
(-0.00103536 0.00078605 1.00418)
(-0.00203368 0.00097447 1.0041)
(-0.00133679 0.00117806 1.00388)
(-0.00412783 0.00139488 1.01505)
(-0.0042188 0.00168601 0.978576)
(0.0028225 0.000251789 0.983971)
(0.0022028 0.000287897 1.01425)
(-3.7433e-05 0.000357338 1.00507)
(0.00035108 0.000451781 1.00486)
(-0.000650022 0.000589518 1.00454)
(-0.000840251 0.000771318 1.00439)
(-0.00180755 0.00099708 1.0044)
(-0.00108416 0.00124845 1.0043)
(-0.0038071 0.00153033 1.01533)
(-0.00403189 0.0020001 0.979765)
(0.00284861 -0.000664317 0.984172)
(0.00226078 -0.000638537 1.01458)
(4.54787e-05 -0.000567329 1.00536)
(0.000471861 -0.000474224 1.00518)
(-0.000483112 -0.000338389 1.00491)
(-0.000626553 -0.000160214 1.00484)
(-0.00155656 5.98012e-05 1.00496)
(-0.000792814 0.000306225 1.005)
(-0.00339631 0.000586911 1.01585)
(-0.00378924 0.00112558 0.981488)
(0.00285344 -0.000102146 0.98431)
(0.00230488 -6.90516e-05 1.01477)
(0.000124257 -1.20802e-05 1.00555)
(0.000580006 7.51418e-05 1.00539)
(-0.000335034 0.000193593 1.00516)
(-0.000440346 0.000345469 1.00515)
(-0.00134077 0.000526723 1.00536)
(-0.000546129 0.000712269 1.0055)
(-0.0030058 0.000931611 1.0161)
(-0.00352952 0.00136146 0.982922)
(0.0029107 -0.00244444 0.993894)
(0.00237466 -0.0024361 1.02459)
(0.000187299 -0.00235921 1.01519)
(0.000676965 -0.00228865 1.01499)
(-0.00021318 -0.00217598 1.01468)
(-0.000296777 -0.00203681 1.01457)
(-0.00119396 -0.00187854 1.01467)
(-0.000383281 -0.00170852 1.01464)
(-0.00278175 -0.00156744 1.02488)
(-0.0034158 -0.00124135 0.992073)
(0.00286798 -0.00305246 0.962559)
(0.00238737 -0.00309192 0.993153)
(0.000244448 -0.0030291 0.98402)
(0.000754413 -0.00300586 0.983972)
(-8.85224e-05 -0.00294543 0.983958)
(-0.00013949 -0.00287416 0.984214)
(-0.00100835 -0.00279636 0.984751)
(-0.000202017 -0.00269294 0.985233)
(-0.00255285 -0.00264917 0.99552)
(-0.00325088 -0.00246234 0.964058)
(0.00277368 0.00316506 0.956766)
(0.0019343 0.00320221 0.991034)
(-0.000423042 0.00316358 0.980895)
(-0.000130932 0.00316803 0.980548)
(-0.00137986 0.00314062 0.980125)
(-0.00161631 0.00310082 0.979841)
(-0.00273977 0.00303426 0.979703)
(-0.00190168 0.00288045 0.979655)
(-0.00448898 0.00273531 0.992588)
(-0.00450195 0.00212569 0.951376)
(0.00281916 0.00271949 0.993149)
(0.00194925 0.0027329 1.02757)
(-0.000420506 0.00272796 1.01727)
(-0.000137794 0.00274322 1.01696)
(-0.00142768 0.00274496 1.01647)
(-0.00171848 0.00273069 1.01605)
(-0.00294903 0.0026811 1.01566)
(-0.00222675 0.0025383 1.01505)
(-0.00517821 0.00235801 1.02791)
(-0.00506173 0.00156461 0.983072)
(0.00278235 0.000593287 0.982216)
(0.00194542 0.000613262 1.01649)
(-0.000382255 0.000659616 1.00631)
(-0.000101726 0.000704299 1.00598)
(-0.00138259 0.000772009 1.00551)
(-0.00167969 0.000847504 1.00514)
(-0.00293371 0.000923824 1.00481)
(-0.00226376 0.000982641 1.00434)
(-0.0053949 0.00101997 1.0174)
(-0.00525037 0.000720678 0.972167)
(0.00280312 0.00127564 0.981993)
(0.0019808 0.00131095 1.01636)
(-0.000333621 0.00136797 1.00614)
(-3.22256e-05 0.00144443 1.00582)
(-0.0012918 0.00155603 1.00537)
(-0.00157101 0.00170047 1.00501)
(-0.00282034 0.00187819 1.00471)
(-0.00214116 0.00206668 1.00428)
(-0.00538828 0.00228221 1.01752)
(-0.00529987 0.00235301 0.972235)
(0.00280982 0.000352978 0.981803)
(0.00202737 0.000389442 1.01624)
(-0.000248044 0.000471831 1.00601)
(8.63549e-05 0.00058081 1.00571)
(-0.00112626 0.000745211 1.0053)
(-0.00135624 0.000967442 1.005)
(-0.00256793 0.00125561 1.00479)
(-0.00185602 0.00158659 1.00447)
(-0.0050879 0.00196188 1.01764)
(-0.00513746 0.0025026 0.972863)
(0.00283087 0.000357174 0.981796)
(0.00209243 0.000402125 1.01636)
(-0.000142409 0.000496351 1.0061)
(0.000240639 0.000626364 1.00583)
(-0.000905306 0.000822665 1.00548)
(-0.00105958 0.00109268 1.00527)
(-0.00220259 0.0014491 1.00521)
(-0.00141944 0.00187613 1.00508)
(-0.00448685 0.00238847 1.01799)