/*--------------------------------*- C++ -*----------------------------------*\
  =========                 |
  \\      /  F ield         | OpenFOAM: The Open Source CFD Toolbox
   \\    /   O peration     | Website:  https://openfoam.org
    \\  /    A nd           | Version:  6
     \\/     M anipulation  |
\*---------------------------------------------------------------------------*/
FoamFile
{
    version     2.0;
    format      ascii;
    class       surfaceScalarField;
    location    "100";
    object      phi;
}
// * * * * * * * * * * * * * * * * * * * * * * * * * * * * * * * * * * * * * //

dimensions      [0 3 -1 0 0 0 0];

internalField   nonuniform List<scalar> 
19500
(
1.55134e-07
1.54372e-07
9.96895e-05
1.67436e-08
1.54198e-07
9.99832e-05
1.06767e-08
1.53957e-07
9.98511e-05
5.01172e-09
1.53568e-07
9.98512e-05
-1.51187e-09
1.53083e-07
9.98526e-05
-7.88806e-09
1.52518e-07
9.98531e-05
-1.30171e-08
1.51922e-07
9.98525e-05
-1.8148e-08
1.51378e-07
9.98531e-05
-1.59518e-07
1.50853e-07
9.99899e-05
1.50124e-07
9.96898e-05
1.54975e-07
1.558e-08
9.99828e-05
1.65148e-08
1.53378e-08
0.000100276
1.0414e-08
1.5131e-08
0.000100144
4.66526e-09
1.48666e-08
0.000100143
-1.91705e-09
1.45316e-08
0.000100144
-8.32083e-09
1.41513e-08
0.000100144
-1.34242e-08
1.37596e-08
0.000100143
-1.83876e-08
1.3397e-08
0.000100142
-1.60257e-07
1.30764e-08
0.000100279
1.27828e-08
9.99765e-05
1.54759e-07
9.16426e-09
9.98506e-05
1.63105e-08
8.90722e-09
0.000100144
1.01098e-08
8.62164e-09
0.000100012
4.28706e-09
8.24762e-09
0.000100011
-2.35245e-09
7.77597e-09
0.000100012
-8.77656e-09
7.23892e-09
0.000100012
-1.38367e-08
6.68421e-09
0.000100011
-1.8707e-08
6.17146e-09
0.000100011
-1.60863e-07
5.71549e-09
0.000100149
5.19112e-09
9.98462e-05
1.54433e-07
3.29943e-09
9.98503e-05
1.6067e-08
2.99293e-09
0.000100143
9.73905e-09
2.66893e-09
0.000100011
3.81826e-09
2.23561e-09
0.000100011
-2.88842e-09
1.68568e-09
0.000100012
-9.33494e-09
1.05685e-09
0.000100012
-1.43502e-08
4.0553e-10
0.00010001
-1.91041e-08
-1.98756e-10
0.00010001
-1.61566e-07
-7.39681e-10
0.000100148
-1.35026e-09
9.98444e-05
1.54064e-07
-3.25731e-09
9.98514e-05
1.5785e-08
-3.57531e-09
0.000100144
9.31138e-09
-3.91061e-09
0.000100012
3.27401e-09
-4.35508e-09
0.000100012
-3.51124e-09
-4.91961e-09
0.000100012
-9.9841e-09
-5.5652e-09
0.000100012
-1.49501e-08
-6.23338e-09
0.000100011
-1.95652e-08
-6.85345e-09
0.00010001
-1.62391e-07
-7.40493e-09
0.000100149
-8.02661e-09
9.98436e-05
1.53675e-07
-9.49479e-09
9.98514e-05
1.5497e-08
-9.79262e-09
0.000100143
8.87308e-09
-1.01041e-08
0.000100012
2.71387e-09
-1.05133e-08
0.000100011
-4.1523e-09
-1.10328e-08
0.000100012
-1.06518e-08
-1.16257e-08
0.000100012
-1.55688e-08
-1.22379e-08
0.00010001
-2.00418e-08
-1.28054e-08
0.000100009
-1.63226e-07
-1.33096e-08
0.000100148
-1.3871e-08
9.98419e-05
1.53309e-07
-1.43886e-08
9.98504e-05
1.52335e-08
-1.4637e-08
0.000100142
8.47074e-09
-1.48837e-08
0.00010001
2.19822e-09
-1.52142e-08
0.00010001
-4.74148e-09
-1.56353e-08
0.00010001
-1.12641e-08
-1.61158e-08
0.00010001
-1.61368e-08
-1.66109e-08
0.000100008
-2.04824e-08
-1.70722e-08
0.000100008
-1.63983e-07
-1.74898e-08
0.000100147
-1.79337e-08
9.98394e-05
1.53017e-07
-1.91977e-08
9.98506e-05
1.50164e-08
-1.92972e-08
0.000100141
8.14201e-09
-1.94658e-08
0.00010001
1.77583e-09
-1.96937e-08
0.00010001
-5.22236e-09
-1.99806e-08
0.00010001
-1.17619e-08
-2.03066e-08
0.00010001
-1.66014e-08
-2.06428e-08
0.000100008
-2.08444e-08
-2.09594e-08
0.000100007
-1.64594e-07
-2.12566e-08
0.000100147
-2.15975e-08
9.98384e-05
1.52742e-07
-1.59877e-07
9.99868e-05
1.48477e-08
-1.60241e-07
0.000100278
7.88488e-09
-1.60524e-07
0.000100147
1.44328e-09
-1.6084e-07
0.000100146
-5.59379e-09
-1.61245e-07
0.000100147
-1.21428e-08
-1.6169e-07
0.000100147
-1.69653e-08
-1.62141e-07
0.000100145
-2.11393e-08
-1.62559e-07
0.000100145
-1.64972e-07
-1.62851e-07
0.000100285
-1.63078e-07
9.99759e-05
1.52374e-07
9.96867e-05
1.47355e-08
9.99763e-05
7.61026e-09
9.98456e-05
1.10019e-09
9.98447e-05
-5.9776e-09
9.98448e-05
-1.25341e-08
9.98439e-05
-1.7322e-08
9.98417e-05
-2.14658e-08
9.98407e-05
-1.6523e-07
9.99802e-05
9.96712e-05
2.16425e-07
2.19114e-07
9.92498e-05
6.21713e-08
2.18654e-07
9.99146e-05
3.12833e-08
2.18037e-07
9.966e-05
3.52046e-09
2.17467e-07
9.96578e-05
-1.74586e-08
2.16682e-07
9.96536e-05
-3.68224e-08
2.15762e-07
9.96538e-05
-5.98639e-08
2.1477e-07
9.96582e-05
-8.32948e-08
2.13763e-07
9.96603e-05
-2.3617e-07
2.13126e-07
9.99272e-05
2.11226e-07
9.9241e-05
2.15907e-07
6.83892e-08
9.99132e-05
6.16644e-08
6.80516e-08
0.000100577
3.05015e-08
6.78409e-08
0.000100321
2.50121e-09
6.75476e-08
0.000100318
-1.86235e-08
6.72033e-08
0.000100311
-3.80553e-08
6.68065e-08
0.000100309
-6.11005e-08
6.63681e-08
0.000100311
-8.44093e-08
6.59412e-08
0.000100311
-2.38116e-07
6.55264e-08
0.000100578
6.41919e-08
9.98838e-05
2.15309e-07
4.03834e-08
9.96588e-05
6.14356e-08
3.98866e-08
0.000100321
3.02317e-08
3.96593e-08
0.000100067
2.16392e-09
3.92908e-08
0.000100064
-1.9025e-08
3.88284e-08
0.000100058
-3.85068e-08
3.8283e-08
0.000100057
-6.15794e-08
3.76648e-08
0.00010006
-8.48197e-08
3.70383e-08
0.000100061
-2.38985e-07
3.63929e-08
0.000100329
3.46383e-08
9.9635e-05
2.14837e-07
1.48196e-08
9.96565e-05
6.11537e-08
1.42033e-08
0.000100318
2.98565e-08
1.39439e-08
0.000100064
1.71241e-09
1.35388e-08
0.000100061
-1.95516e-08
1.30108e-08
0.000100055
-3.91035e-08
1.2376e-08
0.000100054
-6.22089e-08
1.16424e-08
0.000100056
-8.54034e-08
1.08798e-08
0.000100056
-2.40516e-07
1.01183e-08
0.000100327
8.11917e-09
9.96284e-05
2.14228e-07
-4.91191e-09
9.96522e-05
6.0851e-08
-5.55282e-09
0.000100312
2.94288e-08
-5.8243e-09
0.000100059
1.17723e-09
-6.22582e-09
0.000100055
-2.01879e-08
-6.75638e-09
0.000100049
-3.98351e-08
-7.39984e-09
0.000100048
-6.29946e-08
-8.15189e-09
0.00010005
-8.61477e-08
-8.94324e-09
0.00010005
-2.42259e-07
-9.71796e-09
0.000100321
-1.17458e-08
9.96192e-05
2.13581e-07
-2.426e-08
9.96524e-05
6.05523e-08
-2.48641e-08
0.000100311
2.90046e-08
-2.51171e-08
0.000100058
6.41006e-10
-2.54708e-08
0.000100054
-2.0831e-08
-2.59414e-08
0.000100048
-4.0583e-08
-2.65145e-08
0.000100046
-6.38068e-08
-2.71897e-08
0.000100048
-8.69199e-08
-2.79084e-08
0.000100048
-2.44003e-07
-2.8588e-08
0.000100321
-3.03955e-08
9.96145e-05
2.12962e-07
-4.86942e-08
9.96571e-05
6.02893e-08
-4.92385e-08
0.000100314
2.86319e-08
-4.94419e-08
0.000100062
1.68068e-10
-4.97071e-08
0.000100058
-2.14009e-08
-5.00709e-08
0.000100052
-4.12519e-08
-5.05169e-08
0.00010005
-6.45414e-08
-5.10468e-08
0.000100051
-8.76073e-08
-5.16123e-08
0.000100051
-2.45533e-07
-5.21289e-08
0.000100325
-5.34753e-08
9.96148e-05
2.12408e-07
-7.49955e-08
9.96597e-05
6.0112e-08
-7.5435e-08
0.000100315
2.83652e-08
-7.55349e-08
0.000100063
-1.81616e-10
-7.56914e-08
0.00010006
-2.18272e-08
-7.593e-08
0.000100053
-4.17597e-08
-7.62245e-08
0.000100051
-6.51026e-08
-7.65646e-08
0.000100052
-8.81386e-08
-7.69295e-08
0.000100052
-2.46641e-07
-7.72805e-08
0.000100327
-7.80192e-08
9.96143e-05
2.12256e-07
-2.31583e-07
9.99263e-05
6.00121e-08
-2.32443e-07
0.000100582
2.81767e-08
-2.32593e-07
0.000100331
-4.05318e-10
-2.3313e-07
0.000100328
-2.20841e-08
-2.33734e-07
0.000100322
-4.20503e-08
-2.34385e-07
0.00010032
-6.54142e-08
-2.35024e-07
0.000100323
-8.84621e-08
-2.35527e-07
0.000100323
-2.47453e-07
-2.36076e-07
0.000100599
-2.36689e-07
9.98851e-05
2.11437e-07
9.92404e-05
5.95747e-08
9.98925e-05
2.76414e-08
9.96417e-05
-1.02227e-09
9.96371e-05
-2.27685e-08
9.96298e-05
-4.27293e-08
9.96265e-05
-6.59556e-08
9.96271e-05
-8.8762e-08
9.96256e-05
-2.47988e-07
9.99012e-05
9.91855e-05
2.42775e-07
2.43947e-07
9.87589e-05
7.9421e-08
2.43127e-07
9.98307e-05
4.20256e-08
2.41613e-07
9.94518e-05
4.8037e-09
2.40503e-07
9.94508e-05
-2.5394e-08
2.3886e-07
9.94416e-05
-5.33047e-08
2.36983e-07
9.94418e-05
-8.38908e-08
2.34989e-07
9.94512e-05
-1.10543e-07
2.32895e-07
9.94516e-05
-2.69798e-07
2.32033e-07
9.98523e-05
2.2831e-07
9.87413e-05
2.41906e-07
8.61894e-08
9.98247e-05
7.8577e-08
8.55909e-08
0.000100893
4.04395e-08
8.49717e-08
0.000100512
2.73395e-09
8.41394e-08
0.000100508
-2.78034e-08
8.31561e-08
0.000100494
-5.58887e-08
8.20186e-08
0.000100489
-8.6428e-08
8.07694e-08
0.000100493
-1.13002e-07
7.96068e-08
0.000100488
-2.73503e-07
7.87103e-08
0.000100889
7.57304e-08
9.97614e-05
2.4044e-07
5.22121e-08
9.94478e-05
7.79269e-08
5.10734e-08
0.000100514
3.97188e-08
5.04406e-08
0.000100135
1.82134e-09
4.93841e-08
0.000100132
-2.88612e-08
4.8065e-08
0.00010012
-5.70409e-08
4.65208e-08
0.000100117
-8.75856e-08
4.4816e-08
0.000100123
-1.13911e-07
4.3143e-08
0.00010012
-2.74908e-07
4.16694e-08
0.000100525
3.80289e-08
9.93961e-05
2.39526e-07
1.76962e-08
9.94468e-05
7.71328e-08
1.63075e-08
0.00010051
3.86452e-08
1.5571e-08
0.000100133
4.98587e-10
1.43835e-08
0.000100129
-3.03887e-08
1.28622e-08
0.000100117
-5.87091e-08
1.10666e-08
0.000100114
-8.92592e-08
9.06709e-09
0.000100119
-1.15392e-07
7.0539e-09
0.000100115
-2.78081e-07
5.31115e-09
0.000100522
1.16231e-09
9.93854e-05
2.38238e-07
-1.07427e-08
9.94376e-05
7.62782e-08
-1.22175e-08
0.000100498
3.7426e-08
-1.29726e-08
0.000100121
-1.04388e-09
-1.41658e-08
0.000100118
-3.21978e-08
-1.57114e-08
0.000100105
-6.07094e-08
-1.75419e-08
0.000100101
-9.1304e-08
-1.9588e-08
0.000100105
-1.17254e-07
-2.16679e-08
0.000100101
-2.81573e-07
-2.3453e-08
0.000100511
-2.76283e-08
9.93644e-05
2.36916e-07
-3.82969e-08
9.94382e-05
7.54118e-08
-3.97164e-08
0.000100495
3.61937e-08
-4.04079e-08
0.00010012
-2.60414e-09
-4.14804e-08
0.000100116
-3.40337e-08
-4.28759e-08
0.000100102
-6.27492e-08
-4.45245e-08
0.000100098
-9.3398e-08
-4.63664e-08
0.000100102
-1.19159e-07
-4.82377e-08
0.000100096
-2.85116e-07
-4.98388e-08
0.00010051
-5.34915e-08
9.93531e-05
2.35693e-07
-7.01954e-08
9.94484e-05
7.46202e-08
-7.14511e-08
0.000100502
3.50807e-08
-7.20166e-08
0.000100128
-4.00819e-09
-7.28563e-08
0.000100124
-3.56814e-08
-7.39635e-08
0.00010011
-6.458e-08
-7.52608e-08
0.000100105
-9.52723e-08
-7.66972e-08
0.000100108
-1.2085e-07
-7.8161e-08
0.000100102
-2.88257e-07
-7.93788e-08
0.000100518
-8.20228e-08
9.93529e-05
2.345e-07
-1.002e-07
9.94504e-05
7.40508e-08
-1.01403e-07
0.000100501
3.42363e-08
-1.01663e-07
0.000100128
-5.09405e-09
-1.02206e-07
0.000100124
-3.69587e-08
-1.0297e-07
0.000100109
-6.59916e-08
-1.03845e-07
0.000100104
-9.67227e-08
-1.04784e-07
0.000100107
-1.22189e-07
-1.05764e-07
0.0001001
-2.90345e-07
-1.06605e-07
0.000100519
-1.07974e-07
9.93477e-05
2.34503e-07
-2.65472e-07
9.98521e-05
7.37939e-08
-2.67062e-07
0.000100903
3.36936e-08
-2.67064e-07
0.000100532
-5.74152e-09
-2.68261e-07
0.000100529
-3.7692e-08
-2.69489e-07
0.000100516
-6.67945e-08
-2.70839e-07
0.000100512
-9.75184e-08
-2.72193e-07
0.000100516
-1.22975e-07
-2.73119e-07
0.000100511
-2.92375e-07
-2.74681e-07
0.000100933
-2.7564e-07
9.97584e-05
2.32934e-07
9.87387e-05
7.26238e-08
9.97824e-05
3.24593e-08
9.94115e-05
-7.16539e-09
9.94051e-05
-3.9217e-08
9.93891e-05
-6.82539e-08
9.93814e-05
-9.86741e-08
9.93823e-05
-1.23591e-07
9.93746e-05
-2.93274e-07
9.97941e-05
9.86155e-05
2.58189e-07
2.56734e-07
9.82397e-05
8.73269e-08
2.55469e-07
9.97418e-05
4.44234e-08
2.52876e-07
9.92377e-05
2.95897e-09
2.51044e-07
9.92373e-05
-3.23163e-08
2.48202e-07
9.92251e-05
-6.48441e-08
2.45038e-07
9.92261e-05
-9.81518e-08
2.41792e-07
9.924e-05
-1.27713e-07
2.38222e-07
9.92406e-05
-2.92487e-07
2.36933e-07
9.97781e-05
2.30849e-07
9.82176e-05
2.56879e-07
9.28946e-08
9.97272e-05
8.60071e-08
9.18882e-08
0.000101223
4.1821e-08
9.06865e-08
0.000100714
-4.21664e-10
8.91127e-08
0.000100708
-3.63326e-08
8.72367e-08
0.000100687
-6.91904e-08
8.50612e-08
0.000100679
-1.02403e-07
8.27138e-08
0.000100682
-1.31851e-07
8.04976e-08
0.000100672
-2.98403e-07
7.89401e-08
0.000101211
7.37395e-08
9.96191e-05
2.54388e-07
5.34067e-08
9.92283e-05
8.47615e-08
5.14204e-08
0.000100719
4.04495e-08
5.01914e-08
0.000100215
-2.15676e-09
4.81697e-08
0.000100212
-3.82985e-08
4.5644e-08
0.000100194
-7.12594e-08
4.26886e-08
0.000100189
-1.04473e-07
3.94523e-08
0.000100197
-1.33434e-07
3.62703e-08
0.000100191
-3.00784e-07
3.35997e-08
0.000100735
2.70934e-08
9.91405e-05
2.52892e-07
1.49494e-08
9.92276e-05
8.3261e-08
1.25719e-08
0.000100714
3.83954e-08
1.11364e-08
0.000100212
-4.71484e-09
8.83903e-09
0.000100207
-4.12485e-08
5.90909e-09
0.000100189
-7.44481e-08
2.45777e-09
0.000100183
-1.07648e-07
-1.36595e-09
0.000100189
-1.36276e-07
-5.20384e-09
0.000100182
-3.06489e-07
-8.41269e-09
0.000100732
-1.59951e-08
9.91202e-05
2.50654e-07
-1.78744e-08
9.92149e-05
8.16295e-08
-2.04578e-08
0.000100695
3.60596e-08
-2.18962e-08
0.000100195
-7.68523e-09
-2.42124e-08
0.00010019
-4.4732e-08
-2.71981e-08
0.000100171
-7.82779e-08
-3.07176e-08
0.000100163
-1.11522e-07
-3.46235e-08
0.000100168
-1.39842e-07
-3.85754e-08
0.000100159
-3.1277e-07
-4.19183e-08
0.000100714
-4.94693e-08
9.90831e-05
2.48437e-07
-4.91652e-08
9.9216e-05
7.99638e-08
-5.17016e-08
0.00010069
3.36889e-08
-5.29844e-08
0.000100192
-1.06967e-08
-5.50688e-08
0.000100186
-4.82672e-08
-5.77638e-08
0.000100166
-8.21745e-08
-6.09203e-08
0.000100157
-1.15477e-07
-6.44034e-08
0.00010016
-1.43476e-07
-6.79317e-08
0.00010015
-3.19238e-07
-7.09023e-08
0.000100711
-7.73399e-08
9.90596e-05
2.46463e-07
-8.30411e-08
9.92307e-05
7.84327e-08
-8.52316e-08
0.000100698
3.15406e-08
-8.62773e-08
0.000100203
-1.34074e-08
-8.79182e-08
0.000100197
-5.14264e-08
-9.00463e-08
0.000100175
-8.56388e-08
-9.2504e-08
0.000100166
-1.18982e-07
-9.51795e-08
0.000100167
-1.46649e-07
-9.78695e-08
0.000100155
-3.24921e-07
-1e-07
0.000100722
-1.04633e-07
9.9053e-05
2.44419e-07
-1.15841e-07
9.92336e-05
7.72973e-08
-1.17942e-07
0.000100695
2.98888e-08
-1.18398e-07
0.000100202
-1.55095e-08
-1.19484e-07
0.000100196
-5.38661e-08
-1.20954e-07
0.000100174
-8.82943e-08
-1.22604e-07
0.000100163
-1.21642e-07
-1.24319e-07
0.000100164
-1.49011e-07
-1.25988e-07
0.000100152
-3.28583e-07
-1.2757e-07
0.000100722
-1.29563e-07
9.90421e-05
2.44563e-07
-2.88428e-07
9.97751e-05
7.68631e-08
-2.90996e-07
0.000101239
2.89038e-08
-2.9096e-07
0.000100747
-1.66885e-08
-2.93016e-07
0.000100743
-5.52309e-08
-2.9498e-07
0.000100723
-8.97542e-08
-2.9719e-07
0.000100716
-1.22978e-07
-2.9938e-07
0.00010072
-1.5049e-07
-3.00758e-07
0.000100709
-3.31855e-07
-3.03149e-07
0.000101287
-3.04364e-07
9.95991e-05
2.41922e-07
9.82047e-05
7.47345e-08
9.9655e-05
2.67197e-08
9.9165e-05
-1.92392e-08
9.91546e-05
-5.78419e-08
9.91292e-05
-9.2127e-08
9.91151e-05
-1.24903e-07
9.91123e-05
-1.51209e-07
9.90975e-05
-3.33103e-07
9.96703e-05
9.79769e-05
2.69529e-07
2.64819e-07
9.77011e-05
9.3002e-08
2.62962e-07
9.9651e-05
4.43404e-08
2.59148e-07
9.9023e-05
-8.52879e-10
2.56354e-07
9.90221e-05
-4.04651e-08
2.51945e-07
9.90091e-05
-7.68372e-08
2.47132e-07
9.90123e-05
-1.12594e-07
2.42224e-07
9.90308e-05
-1.45098e-07
2.36883e-07
9.90343e-05
-3.11632e-07
2.34954e-07
9.97091e-05
2.25253e-07
9.76803e-05
2.67597e-07
9.70233e-08
9.96229e-05
9.09625e-08
9.54019e-08
0.000101563
4.03927e-08
9.34937e-08
0.000100926
-5.96441e-09
9.09503e-08
0.000100915
-4.65966e-08
8.78713e-08
0.000100888
-8.3553e-08
8.43077e-08
0.000100875
-1.19004e-07
8.04314e-08
0.000100877
-1.514e-07
7.67843e-08
0.000100862
-3.20834e-07
7.42816e-08
0.00010154
6.56472e-08
9.94576e-05
2.63966e-07
5.18424e-08
9.90049e-05
8.89955e-08
4.87534e-08
0.000100936
3.81735e-08
4.67448e-08
0.000100308
-8.79643e-09
4.34431e-08
0.000100302
-4.97715e-08
3.92781e-08
0.000100279
-8.68845e-08
3.43757e-08
0.000100272
-1.22292e-07
2.8955e-08
0.00010028
-1.5398e-07
2.35507e-08
0.000100272
-3.25112e-07
1.90914e-08
0.000100959
7.90845e-09
9.88724e-05
2.61688e-07
1.01694e-08
9.90028e-05
8.65686e-08
6.51106e-09
0.000100927
3.48144e-08
4.14429e-09
0.000100301
-1.30276e-08
3.65258e-10
0.000100294
-5.46929e-08
-4.4917e-09
0.00010027
-9.22515e-08
-1.02651e-08
0.000100261
-1.27671e-07
-1.67292e-08
0.000100267
-1.58887e-07
-2.33343e-08
0.000100257
-3.34859e-07
-2.88153e-08
0.000100953
-4.21239e-08
9.88341e-05
2.58204e-07
-2.5858e-08
9.89877e-05
8.38925e-08
-2.98705e-08
0.000100901
3.09738e-08
-3.22102e-08
0.000100279
-1.79598e-08
-3.60293e-08
0.00010027
-6.05376e-08
-4.09828e-08
0.000100245
-9.87397e-08
-4.68686e-08
0.000100234
-1.34307e-07
-5.34693e-08
0.000100236
-1.65085e-07
-6.02661e-08
0.000100223
-3.45805e-07
-6.6019e-08
0.000100929
-7.93323e-08
9.87728e-05
2.5483e-07
-5.96255e-08
9.89899e-05
8.11638e-08
-6.35895e-08
0.000100892
2.70742e-08
-6.56405e-08
0.000100274
-2.29626e-08
-6.90704e-08
0.000100264
-6.64645e-08
-7.352e-08
0.000100237
-1.05335e-07
-7.87532e-08
0.000100223
-1.41088e-07
-8.45668e-08
0.000100223
-1.71426e-07
-9.04966e-08
0.000100206
-3.57213e-07
-9.55602e-08
0.000100923
-1.06714e-07
9.87277e-05
2.51903e-07
-9.45569e-08
9.90086e-05
7.86646e-08
-9.792e-08
0.0001009
2.35504e-08
-9.95869e-08
0.000100287
-2.74436e-08
-1.02268e-07
0.000100276
-7.17165e-08
-1.05731e-07
0.000100247
-1.11124e-07
-1.09718e-07
0.000100231
-1.4697e-07
-1.14033e-07
0.000100228
-1.76859e-07
-1.18321e-07
0.000100208
-3.67153e-07
-1.21842e-07
0.000100935
-1.29291e-07
9.87065e-05
2.48818e-07
-1.30002e-07
9.90151e-05
7.6795e-08
-1.3321e-07
0.000100897
2.0848e-08
-1.33987e-07
0.000100288
-3.08794e-08
-1.35769e-07
0.000100276
-7.56914e-08
-1.38113e-07
0.000100246
-1.15409e-07
-1.40688e-07
0.000100229
-1.51211e-07
-1.43282e-07
0.000100224
-1.8079e-07
-1.45827e-07
0.000100204
-3.72972e-07
-1.47921e-07
0.000100937
-1.50984e-07
9.86885e-05
2.4892e-07
-3.07739e-07
9.96986e-05
7.60642e-08
-3.11329e-07
0.000101585
1.93138e-08
-3.11362e-07
0.000100976
-3.26865e-08
-3.14419e-07
0.000100968
-7.77569e-08
-3.17199e-07
0.000100942
-1.17574e-07
-3.20313e-07
0.00010093
-1.53177e-07
-3.23401e-07
0.00010093
-1.82669e-07
-3.24812e-07
0.000100913
-3.77698e-07
-3.27957e-07
0.000101658
-3.28445e-07
9.93967e-05
2.45083e-07
9.76485e-05
7.28428e-08
9.95123e-05
1.59511e-08
9.89069e-05
-3.6613e-08
9.8889e-05
-8.16556e-08
9.88533e-05
-1.2097e-07
9.88302e-05
-1.55639e-07
9.882e-05
-1.83586e-07
9.87971e-05
-3.78496e-07
9.95347e-05
9.72686e-05
2.7652e-07
2.67474e-07
9.71527e-05
9.65727e-08
2.64837e-07
9.95617e-05
4.35053e-08
2.59561e-07
9.88119e-05
-5.16109e-09
2.55458e-07
9.88107e-05
-4.93717e-08
2.49015e-07
9.87999e-05
-9.04059e-08
2.42015e-07
9.88072e-05
-1.28835e-07
2.35086e-07
9.88313e-05
-1.63343e-07
2.27519e-07
9.88397e-05
-3.28581e-07
2.24975e-07
9.96493e-05
2.11419e-07
9.71422e-05
2.73731e-07
9.81802e-08
9.9514e-05
9.35126e-08
9.56995e-08
0.000101908
3.77603e-08
9.28836e-08
0.000101143
-1.26045e-08
8.90383e-08
0.000101127
-5.83402e-08
8.43057e-08
0.000101094
-1.00106e-07
7.87942e-08
0.000101076
-1.38126e-07
7.28334e-08
0.000101073
-1.72131e-07
6.71067e-08
0.000101055
-3.41038e-07
6.30864e-08
0.000101871
4.94934e-08
9.92791e-05
2.68756e-07
4.85553e-08
9.8781e-05
9.06226e-08
4.402e-08
0.000101161
3.43975e-08
4.09525e-08
0.000100412
-1.69243e-08
3.59045e-08
0.000100401
-6.32038e-08
2.94508e-08
0.000100376
-1.05161e-07
2.1753e-08
0.000100367
-1.43189e-07
1.31027e-08
0.000100374
-1.76291e-07
4.26758e-09
0.000100366
-3.47998e-07
-3.2413e-09
0.000101196
-2.24972e-08
9.85961e-05
2.65404e-07
4.05687e-09
9.8777e-05
8.69514e-08
-1.29057e-09
0.000101145
2.92524e-08
-4.92019e-09
0.0001004
-2.34983e-08
-1.07424e-08
0.000100388
-7.09688e-08
-1.83236e-08
0.00010036
-1.13754e-07
-2.74691e-08
0.000100349
-1.51998e-07
-3.79433e-08
0.000100352
-1.84681e-07
-4.8916e-08
0.000100339
-3.64455e-07
-5.84491e-08
0.000101186
-8.20926e-08
9.85284e-05
2.603e-07
-3.49455e-08
9.87613e-05
8.28431e-08
-4.0813e-08
0.000101112
2.33233e-08
-4.439e-08
0.000100373
-3.12195e-08
-5.02853e-08
0.000100359
-8.02656e-08
-5.80182e-08
0.000100328
-1.24288e-07
-6.73433e-08
0.000100313
-1.63042e-07
-7.80401e-08
0.00010031
-1.95495e-07
-8.92995e-08
0.000100292
-3.8394e-07
-9.93555e-08
0.000101156
-1.22945e-07
9.84285e-05
2.55409e-07
-7.08618e-08
9.87651e-05
7.86582e-08
-7.66424e-08
0.000101099
1.73018e-08
-7.97565e-08
0.000100366
-3.9048e-08
-8.50275e-08
0.00010035
-8.9691e-08
-9.19188e-08
0.000100316
-1.34992e-07
-1.0011e-07
0.000100296
-1.743e-07
-1.09351e-07
0.000100288
-2.06569e-07
-1.18977e-07
0.000100263
-4.04207e-07
-1.27518e-07
0.000101145
-1.46716e-07
9.83457e-05
2.51216e-07
-1.06097e-07
9.87873e-05
7.48461e-08
-1.10943e-07
0.000101106
1.18838e-08
-1.13455e-07
0.000100378
-4.60072e-08
-1.17531e-07
0.00010036
-9.79452e-08
-1.22791e-07
0.000100324
-1.44208e-07
-1.28848e-07
0.0001003
-1.83859e-07
-1.35414e-07
0.000100288
-2.15755e-07
-1.4201e-07
0.000100259
-4.21281e-07
-1.47252e-07
0.000101156
-1.59427e-07
9.82961e-05
2.46827e-07
-1.42714e-07
9.87994e-05
7.19817e-08
-1.47168e-07
0.000101103
7.76974e-09
-1.48378e-07
0.000100381
-5.12346e-08
-1.51059e-07
0.000100363
-1.03992e-07
-1.54509e-07
0.000100325
-1.50726e-07
-1.58237e-07
0.000100299
-1.90362e-07
-1.61935e-07
0.000100285
-2.21617e-07
-1.65126e-07
0.000100254
-4.30707e-07
-1.6793e-07
0.000101162
-1.7157e-07
9.82684e-05
2.46856e-07
-3.22685e-07
9.96264e-05
7.08714e-08
-3.27577e-07
0.000101935
5.54598e-09
-3.27854e-07
0.000101215
-5.3815e-08
-3.32075e-07
0.000101203
-1.06902e-07
-3.35769e-07
0.000101171
-1.53683e-07
-3.39798e-07
0.000101152
-1.92616e-07
-3.43354e-07
0.000101145
-2.24062e-07
-3.44194e-07
0.000101118
-4.3611e-07
-3.46504e-07
0.000102044
-3.43547e-07
9.91306e-05
2.41414e-07
9.70803e-05
6.62565e-08
9.9356e-05
7.05564e-10
9.86407e-05
-5.94159e-08
9.86132e-05
-1.12267e-07
9.85663e-05
-1.57879e-07
9.85319e-05
-1.95314e-07
9.85099e-05
-2.23665e-07
9.84782e-05
-4.34141e-07
9.93958e-05
9.64908e-05
2.79873e-07
2.65031e-07
9.66034e-05
9.799e-08
2.61325e-07
9.94777e-05
4.1807e-08
2.54301e-07
9.86091e-05
-9.69594e-09
2.48476e-07
9.8609e-05
-5.84717e-08
2.39445e-07
9.86046e-05
-1.04401e-07
2.29777e-07
9.86195e-05
-1.47026e-07
2.20294e-07
9.86504e-05
-1.83944e-07
2.10749e-07
9.86646e-05
-3.45209e-07
2.0878e-07
9.96034e-05
1.91261e-07
9.66061e-05
2.75869e-07
9.58813e-08
9.94025e-05
9.35086e-08
9.22132e-08
0.000102254
3.37163e-08
8.82151e-08
0.000101364
-2.01767e-08
8.26489e-08
0.000101342
-7.10304e-08
7.56585e-08
0.000101304
-1.17982e-07
6.74873e-08
0.000101281
-1.59338e-07
5.85296e-08
0.000101273
-1.95078e-07
4.98402e-08
0.000101249
-3.60429e-07
4.41124e-08
0.000102201
2.28899e-08
9.90877e-05
2.69303e-07
4.27766e-08
9.85599e-05
8.94237e-08
3.63698e-08
0.000101392
2.88257e-08
3.18668e-08
0.000100523
-2.64925e-08
2.44488e-08
0.000100509
-7.81961e-08
1.47751e-08
0.000100483
-1.25551e-07
3.02484e-09
0.000100474
-1.66822e-07
-1.05272e-08
0.000100481
-2.01285e-07
-2.48265e-08
0.000100472
-3.71296e-07
-3.71271e-08
0.000101446
-7.03533e-08
9.83185e-05
2.64501e-07
-4.00824e-09
9.85541e-05
8.40977e-08
-1.15433e-08
0.000101368
2.12453e-08
-1.68765e-08
0.000100506
-3.63755e-08
-2.55183e-08
0.00010049
-9.01023e-08
-3.69889e-08
0.000100461
-1.3905e-07
-5.11446e-08
0.000100447
-1.81048e-07
-6.78507e-08
0.000100447
-2.15228e-07
-8.60568e-08
0.000100431
-3.98816e-07
-1.0263e-07
0.000101433
-1.45226e-07
9.82046e-05
2.57291e-07
-4.53683e-08
9.854e-05
7.80341e-08
-5.36257e-08
0.000101328
1.24151e-08
-5.88986e-08
0.000100475
-4.81013e-08
-6.76734e-08
0.000100456
-1.04559e-07
-7.93927e-08
0.000100422
-1.55899e-07
-9.38465e-08
0.000100401
-1.9938e-07
-1.10946e-07
0.000100392
-2.33979e-07
-1.29734e-07
0.000100366
-4.33685e-07
-1.47192e-07
0.000101398
-1.90771e-07
9.80401e-05
2.50418e-07
-8.26889e-08
9.85465e-05
7.18652e-08
-9.07828e-08
0.000101309
3.43181e-09
-9.53681e-08
0.000100465
-6.00059e-08
-1.03175e-07
0.000100443
-1.19243e-07
-1.13529e-07
0.000100404
-1.73065e-07
-1.26056e-07
0.000100377
-2.18215e-07
-1.40577e-07
0.000100358
-2.53461e-07
-1.56132e-07
0.000100321
-4.70683e-07
-1.70542e-07
0.000101383
-2.05417e-07
9.78894e-05
2.44565e-07
-1.17375e-07
9.85717e-05
6.62752e-08
-1.24068e-07
0.000101312
-4.61876e-09
-1.27701e-07
0.000100476
-7.04999e-08
-1.3366e-07
0.000100451
-1.31944e-07
-1.41391e-07
0.000100408
-1.87602e-07
-1.50323e-07
0.000100375
-2.33744e-07
-1.60065e-07
0.000100348
-2.69316e-07
-1.69693e-07
0.000100303
-5.01001e-07
-1.77862e-07
0.000101392
-1.9691e-07
9.77865e-05
2.38588e-07
-1.53571e-07
9.85915e-05
6.20885e-08
-1.5961e-07
0.000101309
-1.06399e-08
-1.61451e-07
0.000100482
-7.81828e-08
-1.65316e-07
0.000100456
-1.4088e-07
-1.70173e-07
0.00010041
-1.97253e-07
-1.75277e-07
0.000100375
-2.43229e-07
-1.79971e-07
0.000100345
-2.78413e-07
-1.83784e-07
0.000100297
-5.15345e-07
-1.86155e-07
0.000101405
-1.8849e-07
9.77445e-05
2.38266e-07
-3.34179e-07
9.95627e-05
6.04218e-08
-3.40283e-07
0.000102288
-1.37489e-08
-3.40881e-07
0.000101463
-8.17475e-08
-3.46371e-07
0.000101446
-1.44719e-07
-3.50962e-07
0.000101409
-2.00727e-07
-3.55534e-07
0.000101383
-2.45593e-07
-3.58847e-07
0.000101362
-2.79872e-07
-3.56704e-07
0.00010132
-5.19018e-07
-3.55468e-07
0.00010245
-3.41478e-07
9.87654e-05
2.31164e-07
9.65113e-05
5.42406e-08
9.91887e-05
-2.03537e-08
9.83704e-05
-8.92346e-08
9.83316e-05
-1.51421e-07
9.82734e-05
-2.05204e-07
9.82258e-05
-2.46464e-07
9.81883e-05
-2.75848e-07
9.81472e-05
-5.07704e-07
9.92719e-05
9.5642e-05
2.81726e-07
2.59076e-07
9.60581e-05
9.89741e-08
2.54081e-07
9.94016e-05
4.06433e-08
2.45055e-07
9.84173e-05
-1.30365e-08
2.37024e-07
9.842e-05
-6.59364e-08
2.2479e-07
9.84266e-05
-1.1817e-07
2.11822e-07
9.84538e-05
-1.6827e-07
1.99804e-07
9.84959e-05
-2.1313e-07
1.89183e-07
9.85175e-05
-3.75308e-07
1.9109e-07
9.95736e-05
1.79071e-07
9.60528e-05
2.7619e-07
9.09805e-08
9.92898e-05
9.2601e-08
8.57437e-08
0.000102601
2.95638e-08
8.02391e-08
0.000101587
-2.73739e-08
7.2403e-08
0.000101558
-8.30693e-08
6.23537e-08
0.000101516
-1.36093e-07
5.04964e-08
0.000101489
-1.83463e-07
3.74688e-08
0.000101478
-2.23956e-07
2.48622e-08
0.000101452
-3.84725e-07
1.6765e-08
0.000102536
-1.08902e-08
9.88935e-05
2.6782e-07
3.46178e-08
9.83436e-05
8.70092e-08
2.58323e-08
0.000101628
2.26617e-08
1.9398e-08
0.000100643
-3.6342e-08
8.75614e-09
0.000100626
-9.34083e-08
-5.43637e-09
0.000100602
-1.4704e-07
-2.3039e-08
0.000100595
-1.94194e-07
-4.39911e-08
0.000100604
-2.32518e-07
-6.69516e-08
0.000100599
-3.98028e-07
-8.82572e-08
0.000101717
-1.44525e-07
9.80544e-05
2.61095e-07
-1.42566e-08
9.83368e-05
7.94763e-08
-2.45842e-08
0.000101595
1.17561e-08
-3.22188e-08
0.00010062
-5.08685e-08
-4.47529e-08
0.0001006
-1.11341e-07
-6.17756e-08
0.000100571
-1.68009e-07
-8.33265e-08
0.000100558
-2.17171e-07
-1.09737e-07
0.000100557
-2.5667e-07
-1.39976e-07
0.000100541
-4.45224e-07
-1.70275e-07
0.000101704
-2.46966e-07
9.78623e-05
2.51177e-07
-5.73096e-08
9.83266e-05
7.07396e-08
-6.86207e-08
0.000101547
-1.11408e-09
-7.62247e-08
0.000100585
-6.83383e-08
-8.89999e-08
0.000100562
-1.33488e-07
-1.06427e-07
0.000100526
-1.9475e-07
-1.28498e-07
0.000100502
-2.47757e-07
-1.55658e-07
0.000100486
-2.90135e-07
-1.86734e-07
0.000100452
-5.10054e-07
-2.18836e-07
0.000101666
-2.95829e-07
9.75795e-05
2.41738e-07
-9.52098e-08
9.83372e-05
6.18635e-08
-1.06246e-07
0.000101521
-1.42398e-08
-1.1287e-07
0.000100572
-8.61228e-08
-1.24177e-07
0.000100544
-1.56064e-07
-1.3943e-07
0.000100501
-2.2213e-07
-1.5832e-07
0.000100467
-2.79093e-07
-1.80852e-07
0.000100435
-3.24779e-07
-2.06009e-07
0.000100382
-5.77448e-07
-2.31659e-07
0.000101648
-2.91496e-07
9.7308e-05
2.33719e-07
-1.28577e-07
9.83658e-05
5.38739e-08
-1.37601e-07
0.000101517
-2.59418e-08
-1.42761e-07
0.000100579
-1.0167e-07
-1.51266e-07
0.000100548
-1.75357e-07
-1.62363e-07
0.000100498
-2.44809e-07
-1.75257e-07
0.000100455
-3.04443e-07
-1.8942e-07
0.000100411
-3.52172e-07
-2.03577e-07
0.000100344
-6.31018e-07
-2.15968e-07
0.000101655
-2.46299e-07
9.71105e-05
2.25764e-07
-1.63843e-07
9.83952e-05
4.78974e-08
-1.7159e-07
0.000101515
-3.45447e-08
-1.74259e-07
0.00010059
-1.12707e-07
-1.79644e-07
0.000100557
-1.88275e-07
-1.86223e-07
0.000100504
-2.5883e-07
-1.9293e-07
0.000100457
-3.18454e-07
-1.98652e-07
0.000100408
-3.65644e-07
-2.01599e-07
0.000100339
-6.53587e-07
-2.00946e-07
0.000101677
-1.96539e-07
9.70417e-05
2.24988e-07
-3.4334e-07
9.95117e-05
4.55265e-08
-3.51047e-07
0.000102641
-3.87687e-08
-3.52271e-07
0.000101719
-1.17461e-07
-3.59116e-07
0.000101698
-1.93098e-07
-3.64474e-07
0.000101656
-2.6262e-07
-3.68991e-07
0.000101622
-3.19202e-07
-3.69937e-07
0.000101584
-3.63964e-07
-3.60443e-07
0.00010152
-6.49013e-07
-3.46602e-07
0.000102881
-3.00181e-07
9.82198e-05
2.15651e-07
9.59477e-05
3.74257e-08
9.90116e-05
-4.74381e-08
9.80989e-05
-1.26971e-07
9.80479e-05
-2.0072e-07
9.79784e-05
-2.6531e-07
9.79171e-05
-3.14153e-07
9.78631e-05
-3.46897e-07
9.78179e-05
-6.10078e-07
9.91881e-05
9.47306e-05
2.83898e-07
2.51148e-07
9.55184e-05
1.01083e-07
2.44599e-07
9.93349e-05
4.16715e-08
2.33327e-07
9.8238e-05
-1.31152e-08
2.22634e-07
9.82464e-05
-6.95006e-08
2.06711e-07
9.82701e-05
-1.28992e-07
1.9022e-07
9.83169e-05
-1.936e-07
1.76066e-07
9.83784e-05
-2.62095e-07
1.67722e-07
9.84132e-05
-4.54828e-07
1.85412e-07
9.95768e-05
2.0082e-07
9.53918e-05
2.76443e-07
8.45014e-08
9.91751e-05
9.23119e-08
7.72832e-08
0.000102948
2.69527e-08
6.99476e-08
0.00010181
-3.21163e-08
5.92734e-08
0.000101774
-9.18615e-08
4.52918e-08
0.00010173
-1.51365e-07
2.87068e-08
0.000101704
-2.08733e-07
1.03622e-08
0.000101695
-2.6324e-07
-7.02513e-09
0.000101676
-4.2927e-07
-1.44491e-08
0.000102897
-5.09702e-08
9.8711e-05
2.66058e-07
2.47514e-08
9.81321e-05
8.49105e-08
1.3036e-08
0.000101868
1.75785e-08
4.13125e-09
0.000100771
-4.43971e-08
-1.06995e-08
0.000100752
-1.06141e-07
-3.09681e-08
0.000100734
-1.66513e-07
-5.67856e-08
0.000100735
-2.22955e-07
-8.86259e-08
0.000100754
-2.72862e-07
-1.25262e-07
0.000100762
-4.35448e-07
-1.60396e-07
0.000102021
-2.68073e-07
9.78327e-05
2.56886e-07
-2.6352e-08
9.81255e-05
7.45445e-08
-4.01525e-08
0.000101825
2.33099e-09
-5.07819e-08
0.000100741
-6.51817e-08
-6.84937e-08
0.00010072
-1.32605e-07
-9.31825e-08
0.000100695
-1.98619e-07
-1.25459e-07
0.000100686
-2.59931e-07
-1.66844e-07
0.000100691
-3.14575e-07
-2.17021e-07
0.000100682
-5.17635e-07
-2.70436e-07
0.000102014
-4.29351e-07
9.75041e-05
2.43638e-07
-7.07748e-08
9.81217e-05
6.23071e-08
-8.588e-08
0.000101768
-1.59703e-08
-9.65655e-08
0.000100703
-9.06525e-08
-1.14724e-07
0.000100676
-1.6604e-07
-1.40141e-07
0.000100642
-2.4084e-07
-1.73438e-07
0.000100619
-3.1086e-07
-2.16178e-07
0.0001006
-3.75567e-07
-2.6827e-07
0.000100564
-6.45394e-07
-3.2393e-07
0.000101987