/*--------------------------------*- C++ -*----------------------------------*\
  =========                 |
  \\      /  F ield         | OpenFOAM: The Open Source CFD Toolbox
   \\    /   O peration     | Website:  https://openfoam.org
    \\  /    A nd           | Version:  6
     \\/     M anipulation  |
\*---------------------------------------------------------------------------*/
FoamFile
{
    version     2.0;
    format      ascii;
    class       volVectorField;
    location    "100";
    object      U;
}
// * * * * * * * * * * * * * * * * * * * * * * * * * * * * * * * * * * * * * //

dimensions      [0 1 -1 0 0 0 0];

internalField   nonuniform List<vector> 
7000
(
(0.000595517 0.000593314 0.997871)
(0.000752807 0.000593258 0.999405)
(0.000212467 0.000591759 0.998944)
(8.00242e-05 0.000590293 0.998946)
(1.7416e-05 0.00058842 0.99895)
(-4.5153e-05 0.000586237 0.998951)
(-0.000104469 0.00058393 0.99895)
(-0.000231754 0.00058178 0.998951)
(-0.000778877 0.000580281 0.999427)
(-0.000613339 0.000576902 0.99787)
(0.000595491 0.000743989 0.99941)
(0.00075113 0.000742207 1.00094)
(0.000209919 0.000739949 1.00048)
(7.69168e-05 0.000736896 1.00048)
(1.37164e-05 0.000733096 1.00049)
(-4.9246e-05 0.000728735 1.00049)
(-0.000108471 0.000724195 1.00048)
(-0.000235271 0.00072005 1.00048)
(-0.000783288 0.000716312 1.00096)
(-0.000616634 0.000711566 0.999395)
(0.000594079 0.000198111 0.998947)
(0.000748974 0.000195528 1.00048)
(0.000207377 0.000193069 1.00002)
(7.35633e-05 0.000189719 1.00002)
(9.67475e-06 0.000185475 1.00002)
(-5.36528e-05 0.000180631 1.00002)
(-0.000112802 0.000175623 1.00002)
(-0.00023926 0.00017099 1.00002)
(-0.000787282 0.000166784 1.0005)
(-0.00061841 0.000162414 0.998937)
(0.000592846 6.35457e-05 0.998948)
(0.000746279 6.06718e-05 1.00048)
(0.000204157 5.76998e-05 1.00002)
(6.93911e-05 5.37192e-05 1.00002)
(4.68413e-06 4.86782e-05 1.00002)
(-5.90647e-05 4.29232e-05 1.00002)
(-0.000118101 3.69719e-05 1.00002)
(-0.000244106 3.1461e-05 1.00002)
(-0.000792169 2.65076e-05 1.0005)
(-0.000621087 2.10914e-05 0.998934)
(0.00059141 -2.65734e-07 0.998951)
(0.000743227 -3.33566e-06 1.00048)
(0.000200426 -6.58955e-06 1.00002)
(6.4554e-05 -1.09167e-05 1.00002)
(-1.11127e-06 -1.64053e-05 1.00003)
(-6.53545e-05 -2.26764e-05 1.00003)
(-0.000124263 -2.91612e-05 1.00002)
(-0.000249733 -3.51699e-05 1.00002)
(-0.000797917 -4.05328e-05 1.0005)
(-0.000624197 -4.64985e-05 0.998934)
(0.000589907 -6.23922e-05 0.998951)
(0.000740081 -6.5407e-05 1.00048)
(0.00019659 -6.85947e-05 1.00002)
(5.95792e-05 -7.28025e-05 1.00002)
(-7.07639e-06 -7.81452e-05 1.00003)
(-7.18266e-05 -8.42463e-05 1.00003)
(-0.000130603 -9.05478e-05 1.00002)
(-0.000255514 -9.63849e-05 1.00002)
(-0.00080381 -0.000101576 1.0005)
(-0.000627365 -0.000107341 0.99893)
(0.000588491 -0.000119952 0.998949)
(0.000737171 -0.000122537 1.00048)
(0.000193058 -0.000125341 1.00002)
(5.50014e-05 -0.000129009 1.00002)
(-1.25632e-05 -0.000133665 1.00002)
(-7.77698e-05 -0.000138972 1.00002)
(-0.000136417 -0.000144438 1.00002)
(-0.000260822 -0.000149505 1.00002)
(-0.000809206 -0.000154017 1.0005)
(-0.000630234 -0.000159006 0.998925)
(0.000587323 -0.000244967 0.998948)
(0.000734842 -0.000246888 1.00048)
(0.000190157 -0.000249197 1.00002)
(5.12508e-05 -0.000252156 1.00002)
(-1.70485e-05 -0.000255885 1.00002)
(-8.26112e-05 -0.000260105 1.00002)
(-0.00014115 -0.000264438 1.00002)
(-0.000265164 -0.000268477 1.00002)
(-0.000813627 -0.000271996 1.0005)
(-0.00063251 -0.000276042 0.998922)
(0.000586809 -0.000785433 0.999418)
(0.000732951 -0.000787639 1.00095)
(0.000187787 -0.000789562 1.00049)
(4.82676e-05 -0.000792057 1.00049)
(-2.05466e-05 -0.000795281 1.00049)
(-8.63391e-05 -0.000798907 1.00049)
(-0.000144789 -0.000802624 1.00049)
(-0.000268428 -0.000806124 1.00049)
(-0.000816932 -0.000809171 1.00097)
(-0.000634649 -0.000811788 0.999396)
(0.000584805 -0.00061387 0.997869)
(0.000730637 -0.000615792 0.999395)
(0.000185673 -0.000616354 0.998938)
(4.53158e-05 -0.000617628 0.998937)
(-2.41159e-05 -0.000619238 0.998939)
(-9.01505e-05 -0.000621031 0.998937)
(-0.000148535 -0.000622846 0.998932)
(-0.000271975 -0.000624496 0.998929)
(-0.000819523 -0.000626395 0.999411)
(-0.000634977 -0.000626664 0.997835)
(0.00143226 0.00144493 0.994394)
(0.00164947 0.00144697 0.999202)
(0.000332415 0.0014416 0.99736)
(0.000136293 0.00143856 0.997354)
(-6.86704e-05 0.00143415 0.997347)
(-0.000273796 0.00142904 0.99735)
(-0.000445744 0.00142355 0.997361)
(-0.00057989 0.00141778 0.997369)
(-0.00185759 0.00141613 0.999285)
(-0.00153487 0.00140142 0.994358)
(0.00143401 0.00169361 0.999193)
(0.00164486 0.0016901 1.00399)
(0.000324953 0.00168577 1.00215)
(0.000127233 0.00168092 1.00213)
(-7.96288e-05 0.00167485 1.00212)
(-0.000285993 0.0016678 1.00211)
(-0.000458117 0.00166018 1.0021)
(-0.000590539 0.00165275 1.00209)
(-0.00187409 0.00164699 1.00401)
(-0.00154954 0.0016297 0.99904)
(0.0014288 0.000409023 0.997351)
(0.0016406 0.000403788 1.00215)
(0.000322836 0.000401937 1.00031)
(0.000124144 0.00039877 1.00029)
(-8.34348e-05 0.000394798 1.00028)
(-0.000290382 0.000390126 1.00028)
(-0.000462789 0.000384881 1.00028)
(-0.000595283 0.000379568 1.00028)
(-0.00188101 0.000374002 1.0022)
(-0.00155245 0.00035976 0.99723)
(0.00142633 0.000238034 0.997341)
(0.0016364 0.000232388 1.00213)
(0.000319733 0.000229867 1.00029)
(0.000119977 0.000225925 1.00028)
(-8.84572e-05 0.000220897 1.00027)
(-0.000296162 0.000214922 1.00026)
(-0.000468967 0.000208093 1.00026)
(-0.000601455 0.000201093 1.00026)
(-0.00189194 0.000194023 1.00219)
(-0.00156084 0.000175249 0.997196)
(0.00142291 5.03146e-05 0.997332)
(0.00163157 4.39985e-05 1.00211)
(0.000316197 4.12305e-05 1.00028)
(0.000115131 3.70548e-05 1.00026)
(-9.44633e-05 3.15881e-05 1.00025)
(-0.0003032 2.50001e-05 1.00024)
(-0.000476626 1.7371e-05 1.00024)
(-0.0006091 9.42859e-06 1.00023)
(-0.00190503 1.59491e-06 1.00218)
(-0.00157021 -1.87517e-05 0.997158)
(0.00141934 -0.000148442 0.997333)
(0.00162659 -0.000154822 1.00211)
(0.000312676 -0.000157526 1.00027)
(0.000110307 -0.00016142 1.00026)
(-0.000100513 -0.000166583 1.00024)
(-0.000310363 -0.000172849 1.00023)
(-0.000484514 -0.000180172 1.00023)
(-0.000616984 -0.000187884 1.00022)
(-0.00191832 -0.000195335 1.00217)
(-0.00157968 -0.000214527 0.99713)
(0.00141596 -0.000327436 0.997343)
(0.00162196 -0.000333167 1.00211)
(0.000309571 -0.000335438 1.00028)
(0.000106067 -0.000338549 1.00026)
(-0.00010587 -0.000342767 1.00024)
(-0.000316748 -0.000347929 1.00023)
(-0.000491613 -0.000354019 1.00023)
(-0.000624062 -0.000360517 1.00022)
(-0.00193008 -0.000366556 1.00218)
(-0.00158802 -0.000382482 0.997115)
(0.00141271 -0.00048284 0.997353)
(0.00161832 -0.000486611 1.00211)
(0.000307337 -0.000488387 1.00028)
(0.000102982 -0.000490542 1.00027)
(-0.000109862 -0.000493479 1.00025)
(-0.000321569 -0.000497068 1.00023)
(-0.000497052 -0.000501314 1.00023)
(-0.000629389 -0.00050578 1.00022)
(-0.00193905 -0.000509801 1.00218)
(-0.00159398 -0.00052136 0.997107)
(0.00141378 -0.00179328 0.999266)
(0.00161683 -0.0018007 1.00402)
(0.000305648 -0.00180218 1.0022)
(0.000100938 -0.0018057 1.00219)
(-0.00011235 -0.00181024 1.00217)
(-0.000324453 -0.00181538 1.00216)
(-0.000500135 -0.0018207 1.00216)
(-0.000632311 -0.00182564 1.00216)
(-0.00194513 -0.00183043 1.00413)
(-0.00160053 -0.00183663 0.999044)
(0.00140468 -0.00151222 0.994339)
(0.00160966 -0.0015213 0.999073)
(0.000302001 -0.00152032 0.997253)
(9.5207e-05 -0.0015235 0.997231)
(-0.000118996 -0.00152695 0.997206)
(-0.000331256 -0.00153075 0.997188)
(-0.000506392 -0.00153448 0.997176)
(-0.000637673 -0.00153728 0.997163)
(-0.00194879 -0.00154248 0.999129)
(-0.00159865 -0.00154091 0.994037)
(0.00194472 0.00194895 0.990292)
(0.00204739 0.00195367 0.99885)
(0.000296249 0.00194114 0.995634)
(0.000231922 0.00193504 0.995615)
(-9.64045e-05 0.00192518 0.995558)
(-0.000404899 0.00191401 0.995559)
(-0.000687549 0.00190219 0.995615)
(-0.000655617 0.00188917 0.995627)
(-0.00234897 0.00188745 0.999007)
(-0.00209768 0.00185703 0.990154)
(0.00194921 0.00208541 0.998823)
(0.0020393 0.00207863 1.00736)
(0.000281815 0.00206741 1.00413)
(0.000213971 0.00205653 1.00409)
(-0.000118977 0.00204235 1.004)
(-0.000430291 0.002026 1.00397)
(-0.000713907 0.00200837 1.00399)
(-0.000677666 0.00199111 1.00397)
(-0.0023824 0.00198112 1.00735)
(-0.00212758 0.00194532 0.998386)
(0.00193707 0.000381256 0.995614)
(0.00202829 0.000370207 1.00414)
(0.000276087 0.000364992 1.00092)
(0.000205605 0.000355924 1.00089)
(-0.000129 0.000344789 1.00082)
(-0.000441629 0.000331818 1.0008)
(-0.000725535 0.000317534 1.00083)
(-0.000688511 0.000303735 1.00082)
(-0.00239542 0.00029139 1.00423)
(-0.00213252 0.000261331 0.995256)
(0.00193219 0.000347788 0.995595)
(0.00201885 0.000335432 1.0041)
(0.000267189 0.000328294 1.00089)
(0.000193487 0.00031681 1.00086)
(-0.000143477 0.000302341 1.00078)
(-0.000457974 0.000285368 1.00076)
(-0.000742462 0.000266572 1.00079)
(-0.000703984 0.000247916 1.00078)
(-0.00242015 0.000231708 1.0042)
(-0.00215127 0.000191999 0.995175)
(0.00192454 4.15101e-05 0.995537)
(0.00200749 2.70168e-05 1.00402)
(0.000257241 1.93443e-05 1.00082)
(0.000179578 7.14097e-06 1.00079)
(-0.000160509 -8.58777e-06 1.00071)
(-0.000477442 -2.71836e-05 1.00068)
(-0.000763012 -4.79081e-05 1.0007)
(-0.000723065 -6.88446e-05 1.00069)
(-0.00244897 -8.69142e-05 1.00413)
(-0.00217124 -0.000128998 0.995043)
(0.00191677 -0.000256164 0.995541)
(0.00199582 -0.000270925 1.004)
(0.000247193 -0.000278375 1.00081)
(0.000165546 -0.000289997 1.00077)
(-0.000177781 -0.000305069 1.00069)
(-0.000497246 -0.000322884 1.00066)
(-0.000784054 -0.000342764 1.00068)
(-0.000742622 -0.000362944 1.00066)
(-0.00247822 -0.000380167 1.00412)
(-0.00219159 -0.000419672 0.994972)
(0.00190963 -0.000543231 0.995604)
(0.001985 -0.000557152 1.00404)
(0.000238116 -0.000563383 1.00086)
(0.000152917 -0.000573013 1.00082)
(-0.000193317 -0.000585704 1.00073)
(-0.000515029 -0.000600681 1.0007)
(-0.00080294 -0.000617351 1.00072)
(-0.000760054 -0.000634233 1.00069)
(-0.00250418 -0.000648785 1.00417)
(-0.00220981 -0.000680041 0.994969)
(0.00190199 -0.000536237 0.995628)
(0.00197591 -0.00054574 1.00405)
(0.000231368 -0.000550478 1.00087)
(0.000143266 -0.000557144 1.00083)
(-0.000205369 -0.000566074 1.00074)
(-0.0005288 -0.000576485 1.00071)
(-0.000817494 -0.00058792 1.00072)
(-0.000773732 -0.000599798 1.00069)
(-0.0025232 -0.000608931 1.00419)
(-0.00222132 -0.000631671 0.994947)
(0.00190548 -0.00227623 0.99901)
(0.00197412 -0.00229178 1.00744)
(0.000226811 -0.00229361 1.00427)
(0.000137402 -0.0023027 1.00424)
(-0.00021247 -0.00231355 1.00416)
(-0.000536643 -0.0023256 1.00413)
(-0.000825944 -0.00233797 1.00416)
(-0.000780588 -0.00234874 1.00413)
(-0.00253832 -0.00236139 1.00766)
(-0.0022374 -0.00237251 0.998391)
(0.00188683 -0.00207526 0.990155)
(0.00195901 -0.00209353 0.998528)
(0.000217715 -0.00209028 0.995366)
(0.000123584 -0.00209795 0.995312)
(-0.000227417 -0.00210534 0.99521)
(-0.00055175 -0.00211357 0.99516)
(-0.000838733 -0.00212195 0.995162)
(-0.000792155 -0.00212703 0.995123)
(-0.00254559 -0.00214052 0.998628)
(-0.00223217 -0.00213527 0.989341)
(0.0022774 0.00226927 0.985246)
(0.00221271 0.00227627 0.998011)
(0.000213036 0.0022547 0.99355)
(0.000309931 0.00224479 0.993537)
(-0.000144527 0.0022273 0.993427)
(-0.000495047 0.00220798 0.99343)
(-0.000896662 0.00218827 0.993544)
(-0.000669475 0.00216506 0.99355)
(-0.00260325 0.00216265 0.998279)
(-0.00248624 0.00211343 0.985026)
(0.00228418 0.0022301 0.997919)
(0.00219954 0.00221842 1.01064)
(0.000190183 0.00219795 1.00614)
(0.000280979 0.00217911 1.00609)
(-0.000182118 0.00215368 1.00592)
(-0.000537267 0.00212469 1.00585)
(-0.000941458 0.00209416 1.00589)
(-0.000707107 0.00206315 1.00582)
(-0.00265729 0.00204729 1.01056)
(-0.00253368 0.00198779 0.997086)
(0.00226339 0.000284821 0.993491)
(0.0021796 0.000266445 1.00618)
(0.000179489 0.00025654 1.00172)
(0.000265033 0.000239021 1.00168)
(-0.000200836 0.000217846 1.00153)
(-0.000557995 0.000193167 1.00149)
(-0.000962314 0.000166298 1.00156)
(-0.000726489 0.000140516 1.00152)
(-0.00267925 0.000118321 1.0063)
(-0.00254253 6.4417e-05 0.99281)
(0.00225567 0.000415913 0.993478)
(0.0021633 0.000394932 1.00613)
(0.000162277 0.000381013 1.00168)
(0.000241747 0.000358922 1.00164)
(-0.000228706 0.000331091 1.00149)
(-0.00058938 0.000298434 1.00144)
(-0.000994719 0.000262458 1.0015)
(-0.000755468 0.000226751 1.00145)
(-0.00272511 0.000197096 1.00627)
(-0.00257717 0.000124721 0.992663)
(0.0022421 -1.27482e-05 0.993367)
(0.00214287 -3.81811e-05 1.00598)
(0.000143307 -5.28595e-05 1.00155)
(0.00021503 -7.64255e-05 1.0015)
(-0.000261431 -0.000106726 1.00134)
(-0.0006267 -0.000142452 1.00128)
(-0.00103401 -0.000182043 1.00133)
(-0.000791626 -0.000221941 1.00127)
(-0.00277826 -0.000255531 1.00613)
(-0.00261357 -0.000331867 0.992387)
(0.00222885 -0.000344389 0.993375)
(0.00212221 -0.000370209 1.00594)
(0.000124028 -0.000384258 1.00152)
(0.000187956 -0.000406834 1.00147)
(-0.00029466 -0.000435905 1.00131)
(-0.000664623 -0.00047005 1.00124)
(-0.00107407 -0.000507818 1.00128)
(-0.000828558 -0.000545914 1.00121)
(-0.0028326 -0.000578131 1.00611)
(-0.00265119 -0.000648927 0.992227)
(0.0022172 -0.000740383 0.9935)
(0.00210339 -0.000765421 1.00602)
(0.000106507 -0.000776967 1.00162)
(0.000163509 -0.000795839 1.00157)
(-0.000324483 -0.000820368 1.00139)
(-0.00069844 -0.000848952 1.00132)
(-0.00110961 -0.000880241 1.00135)
(-0.000861112 -0.0009119 1.00127)
(-0.00288025 -0.000938094 1.00621)
(-0.00268457 -0.000992726 0.992207)
(0.00220354 -0.000538522 0.993527)
(0.00208682 -0.000555759 1.006)
(9.35183e-05 -0.000564591 1.00162)
(0.000144654 -0.000577359 1.00157)
(-0.000347648 -0.000594485 1.00139)
(-0.0007244 -0.000614083 1.00131)
(-0.00113684 -0.000635173 1.00134)
(-0.000885669 -0.000656333 1.00125)
(-0.00291357 -0.000672314 1.00622)
(-0.00270516 -0.00070959 0.992138)
(0.00221021 -0.0025249 0.998281)
(0.00208508 -0.0025501 1.01077)
(8.51268e-05 -0.00255253 1.0064)
(0.000134006 -0.00256915 1.00636)
(-0.000360712 -0.00258788 1.0062)
(-0.000738887 -0.00260879 1.00615)
(-0.0011515 -0.00262983 1.0062)
(-0.000897367 -0.00264693 1.00613)
(-0.00294007 -0.0026687 1.01114)
(-0.002732 -0.00268456 0.997012)
(0.00218011 -0.00246043 0.984981)
(0.00205967 -0.00248927 0.99737)
(6.79979e-05 -0.00248363 0.993015)
(0.000108988 -0.00249745 0.99293)
(-0.000386661 -0.0025095 0.992727)
(-0.000764332 -0.00252335 0.992624)
(-0.00117217 -0.0025373 0.992622)
(-0.000914797 -0.0025451 0.99252)
(-0.00295013 -0.002567 0.997503)
(-0.00272319 -0.00255735 0.983327)
(0.0025253 0.00250166 0.979768)
(0.00230494 0.0025102 0.996988)
(0.000145839 0.00247824 0.99132)
(0.000363941 0.00246312 0.991315)
(-0.000228772 0.00243529 0.991179)
(-0.000573062 0.00240529 0.991196)
(-0.00110879 0.00237496 0.99136)
(-0.000723772 0.00233898 0.991372)
(-0.00279815 0.00233426 0.997431)
(-0.00279387 0.00225809 0.979519)
(0.00253344 0.00229599 0.996788)
(0.00228444 0.00227743 1.01393)
(0.000111908 0.00224615 1.00819)
(0.000320312 0.00221676 1.00812)
(-0.000286159 0.0021763 1.00787)
(-0.000637669 0.00213073 1.00777)
(-0.00117748 0.00208268 1.0078)
(-0.000781228 0.00203412 1.00768)
(-0.00288174 0.00200956 1.01376)
(-0.00286592 0.00191298 0.995445)
(0.00250288 0.000201289 0.991192)
(0.00225418 0.000173409 1.00827)
(9.49702e-05 0.000157599 1.0026)
(0.000294288 0.000128961 1.00255)
(-0.000316364 9.43987e-05 1.00235)
(-0.000671137 5.38582e-05 1.00229)
(-0.00121082 9.1684e-06 1.00237)
(-0.000812095 -3.36569e-05 1.0023)
(-0.00291946 -7.00101e-05 1.00845)
(-0.00288496 -0.000162447 0.990107)
(0.00249124 0.00045886 0.991181)
(0.00222879 0.000426533 1.0082)
(6.67751e-05 0.00040355 1.00256)
(0.000256146 0.000367442 1.0025)
(-0.00036257 0.00032135 1.00228)
(-0.000723661 0.000266841 1.00221)
(-0.00126579 0.000206197 1.00228)
(-0.000861187 0.000144881 1.00219)
(-0.00299835 9.47784e-05 1.00841)
(-0.00294508 -3.09988e-05 0.989834)
(0.00246968 -0.00010196 0.991035)
(0.00219627 -0.000141624 1.00797)
(3.58459e-05 -0.000165547 1.00236)
(0.000212019 -0.000204346 1.00229)
(-0.000417135 -0.000254619 1.00206)
(-0.000786487 -0.00031439 1.00197)
(-0.00133282 -0.000381314 1.00201)
(-0.000923593 -0.000449991 1.0019)
(-0.00309074 -0.000507775 1.00819)
(-0.00300875 -0.000641679 0.989357)
(0.00244931 -0.000414836 0.99105)
(0.00216387 -0.000454792 1.0079)
(4.27981e-06 -0.000477541 1.00232)
(0.000167273 -0.000514714 1.00224)
(-0.000472504 -0.000562807 1.002)
(-0.000850299 -0.000619689 1.00189)
(-0.00140113 -0.00068318 1.00191)
(-0.000987375 -0.00074817 1.00178)
(-0.00318607 -0.000803092 1.00814)
(-0.00307546 -0.000927527 0.989036)
(0.0024321 -0.000927809 0.991222)
(0.00213486 -0.000966746 1.008)
(-2.44784e-05 -0.000985064 1.00244)
(0.000127027 -0.00101619 1.00236)
(-0.000521828 -0.00105645 1.00211)
(-0.000906621 -0.00110339 1.00198)
(-0.00146081 -0.00115499 1.00199)
(-0.00104209 -0.0012067 1.00183)
(-0.00326887 -0.00125125 1.00827)
(-0.00313473 -0.0013429 0.988922)
(0.00241101 -0.000565531 0.991264)
(0.00210895 -0.00059287 1.00797)
(-4.54902e-05 -0.000607232 1.00244)
(9.60578e-05 -0.000627789 1.00235)
(-0.000559534 -0.000655471 1.00209)
(-0.000948795 -0.000686669 1.00196)
(-0.00150417 -0.000719374 1.00195)
(-0.00108229 -0.000752757 1.00179)
(-0.00332305 -0.000776144 1.00827)
(-0.00316769 -0.000833957 0.988784)
(0.0024201 -0.00270641 0.997387)
(0.00210575 -0.00274249 1.01412)
(-5.8947e-05 -0.00274671 1.0086)
(7.97844e-05 -0.00277244 1.00854)
(-0.000579579 -0.0028004 1.00832)
(-0.000970216 -0.00283129 1.00822)
(-0.00152633 -0.00286208 1.00825)
(-0.00109716 -0.00288464 1.00812)
(-0.00336088 -0.00291402 1.01469)
(-0.00320829 -0.00293252 0.995108)
(0.00237755 -0.00276485 0.979338)
(0.00206878 -0.00280455 0.995897)
(-8.5938e-05 -0.002797 0.990407)
(4.10384e-05 -0.00281821 0.990272)
(-0.000618529 -0.00283546 0.989966)
(-0.00100806 -0.00285552 0.989787)
(-0.00155398 -0.00287639 0.989736)
(-0.00111941 -0.00288441 0.989551)
(-0.00337119 -0.00291604 0.996072)
(-0.0031919 -0.00289674 0.976428)
(0.00271277 0.00266765 0.974248)
(0.00235484 0.00267691 0.99603)
(9.5794e-05 0.00263269 0.989144)
(0.000400741 0.00261015 0.989136)
(-0.000334423 0.00256871 0.989008)
(-0.000646955 0.00252421 0.989055)
(-0.00132904 0.00248036 0.989266)
(-0.000821491 0.00242761 0.989313)
(-0.00297193 0.00241923 0.996724)
(-0.00305666 0.00231289 0.974037)
(0.00272115 0.00230853 0.995668)
(0.00232411 0.00228065 1.01733)
(4.69244e-05 0.00223606 1.01033)
(0.000337466 0.0021924 1.0102)
(-0.000418204 0.00213197 1.0099)
(-0.000740705 0.00206377 1.00974)
(-0.00142847 0.00199291 1.00975)
(-0.000903925 0.00192043 1.00958)
(-0.00308807 0.00188345 1.01703)
(-0.00315495 0.00173988 0.993685)
(0.00267928 0.000125894 0.98891)
(0.00228132 8.53774e-05 1.01046)
(2.15884e-05 6.15635e-05 1.00358)
(0.000297911 1.80024e-05 1.0035)
(-0.000464137 -3.50933e-05 1.00326)
(-0.000791772 -9.81574e-05 1.00318)
(-0.00147931 -0.000168313 1.00325)
(-0.000951556 -0.0002368 1.00317)
(-0.00315083 -0.00029607 1.01073)
(-0.00318872 -0.000451266 0.987337)
(0.00266203 0.000476012 0.988884)
(0.00224366 0.00042873 1.01034)
(-2.1382e-05 0.000393498 1.00349)
(0.000239257 0.00033814 1.0034)
(-0.000536439 0.000266293 1.00314)
(-0.000875049 0.000180207 1.00304)
(-0.00156836 8.25843e-05 1.00308)
(-0.00103335 -1.8898e-05 1.00297)
(-0.00328558 -0.000104965 1.01066)
(-0.00329038 -0.000325191 0.986843)
(0.00263006 -0.00021911 0.988725)
(0.00219516 -0.000277199 1.01005)
(-6.87752e-05 -0.000313717 1.00325)
(0.000170642 -0.00037366 1.00314)
(-0.000622395 -0.000452192 1.00285)
(-0.000975914 -0.00054696 1.00272)
(-0.00167833 -0.000655526 1.00273)
(-0.0011396 -0.000769494 1.00256)
(-0.00344922 -0.000870366 1.01039)
(-0.00340352 -0.00110828 0.986072)
(0.00260032 -0.000479661 0.988753)
(0.00214708 -0.000538005 1.00994)
(-0.000117273 -0.000572779 1.00319)
(0.000101148 -0.000629972 1.00306)
(-0.000709562 -0.000704817 1.00276)
(-0.00107838 -0.000794529 1.00259)
(-0.00179038 -0.000896683 1.00256)
(-0.00124801 -0.00100344 1.00235)
(-0.00361777 -0.00109824 1.0103)
(-0.00352155 -0.00131539 0.985471)
(0.0025757 -0.00110879 0.988959)
(0.00210436 -0.00116539 1.01003)
(-0.000161395 -0.00119309 1.00331)
(3.90977e-05 -0.00124083 1.00318)
(-0.000786469 -0.00130258 1.00285)
(-0.00116746 -0.00137515 1.00266)
(-0.00188631 -0.00145567 1.00259)
(-0.00133859 -0.00153799 1.00235)
(-0.00375928 -0.0016093 1.01042)
(-0.00362317 -0.00176324 0.985151)
(0.00254547 -0.000616399 0.989044)
(0.00206637 -0.000655778 1.00999)
(-0.000193352 -0.000677333 1.00333)
(-8.08756e-06 -0.000708272 1.00318)
(-0.000843667 -0.000749816 1.00284)
(-0.00123155 -0.00079607 1.00264)
(-0.00195278 -0.000844396 1.00255)
(-0.00139899 -0.000891838 1.0023)
(-0.00384436 -0.000924299 1.01045)
(-0.00367812 -0.00101093 0.984929)
(0.00255693 -0.00284883 0.996585)
(0.00206116 -0.00289792 1.01758)
(-0.00021308 -0.00290539 1.01093)
(-3.13764e-05 -0.00294221 1.01083)
(-0.000872101 -0.00298128 1.01054)
(-0.00126141 -0.00302355 1.01039)
(-0.00198093 -0.00306313 1.01036)
(-0.00141508 -0.0030868 1.01015)
(-0.00389255 -0.00311765 1.01845)
(-0.00373019 -0.00312339 0.992783)
(0.00249918 -0.00301023 0.973627)
(0.00200904 -0.00306255 0.994349)
(-0.000252562 -0.00305413 0.987739)
(-8.70278e-05 -0.003084 0.987522)
(-0.000926776 -0.00310727 0.98711)
(-0.00131123 -0.00313424 0.986829)
(-0.00201248 -0.00316006 0.986681)
(-0.00143391 -0.0031661 0.986407)
(-0.00388415 -0.00320047 0.994632)
(-0.00369522 -0.00315639 0.968941)
(0.00284844 0.00277361 0.968765)
(0.00236659 0.00278175 0.995171)
(5.2249e-05 0.00272302 0.987074)
(0.000423943 0.00269044 0.987067)
(-0.000449198 0.00263149 0.986981)
(-0.000716734 0.00256869 0.987085)
(-0.00155507 0.00250683 0.987355)
(-0.000963995 0.00243613 0.987458)
(-0.00313841 0.00242749 0.996192)
(-0.0032775 0.0022839 0.96865)
(0.00285478 0.00226758 0.994578)
(0.00232134 0.00222668 1.0208)
(-1.59874e-05 0.00216561 1.01253)
(0.000335115 0.00210329 1.01234)
(-0.000566615 0.00201657 1.01198)
(-0.00084778 0.0019191 1.01178)
(-0.00169065 0.00181728 1.01173)
(-0.00106899 0.00171631 1.01152)
(-0.00328947 0.00167062 1.02035)
(-0.00340613 0.00146082 0.991823)
(0.00279973 4.26633e-05 0.986688)
(0.00226317 -1.40992e-05 1.01275)
(-5.24892e-05 -4.86919e-05 1.00465)
(0.000277517 -0.000112245 1.00453)
(-0.000633858 -0.000191203 1.00427)
(-0.00092328 -0.000286015 1.00418)
(-0.00176636 -0.000393657 1.00425)
(-0.00113714 -0.000501478 1.00416)
(-0.00338946 -0.000592617 1.01317)
(-0.00346736 -0.000851292 0.984556)
(0.00277473 0.000463041 0.98664)
(0.0022093 0.000396403 1.01256)
(-0.000115311 0.000344602 1.00451)
(0.000190341 0.000262782 1.00437)
(-0.000743502 0.000154437 1.00408)
(-0.00105218 2.18081e-05 1.00396)
(-0.00190813 -0.000132956 1.00397)
(-0.001271 -0.000299642 1.00383)
(-0.00361549 -0.00044577 1.01305)
(-0.00363772 -0.000832116 0.983688)
(0.00272932 -0.000360269 0.986486)
(0.00213958 -0.000442164 1.01219)
(-0.000185487 -0.000495958 1.00422)
(8.72656e-05 -0.000585235 1.00406)
(-0.000875194 -0.000704158 1.00373)
(-0.00121116 -0.0008511 1.00355)
(-0.00208726 -0.00102475 1.0035)
(-0.00145166 -0.00121452 1.00328)
(-0.00390341 -0.00138974 1.0127)
(-0.00384241 -0.00182431 0.982416)
(0.00268734 -0.000547398 0.986534)
(0.00207069 -0.000629365 1.01203)
(-0.000257336 -0.000680583 1.00413)
(-1.72767e-05 -0.000765475 1.00395)
(-0.00100905 -0.000878692 1.00358)
(-0.00137291 -0.00101712 1.00335)
(-0.00227065 -0.00117937 1.00323)
(-0.00163745 -0.00135564 1.00292)
(-0.00420619 -0.00151849 1.01257)
(-0.0040603 -0.0019189 0.981323)
(0.0026529 -0.0012838 0.986771)
(0.00200979 -0.00136261 1.01209)
(-0.000322458 -0.00140308 1.00425)
(-0.00011 -0.0014734 1.00405)
(-0.00112601 -0.00156527 1.00365)
(-0.0015114 -0.00167458 1.00337)
(-0.00242415 -0.00179844 1.00319)
(-0.00178833 -0.00192625 1.00282)
(-0.0044557 -0.00204313 1.01267)
(-0.00424135 -0.00230904 0.980628)
(0.00261154 -0.000677782 0.986925)
(0.00195634 -0.000732938 1.01206)
(-0.000369117 -0.000764181 1.0043)
(-0.000179137 -0.00080908 1.00408)
(-0.00120998 -0.000869069 1.00366)
(-0.00160638 -0.000935304 1.00336)
(-0.00252161 -0.00100277 1.00315)
(-0.00187857 -0.00106742 1.00277)
(-0.00458717 -0.00110815 1.01275)
(-0.00432795 -0.00122162 0.980289)
(0.00262399 -0.00295569 0.995912)
(0.0019468 -0.00301869 1.02111)
(-0.000397091 -0.00303086 1.01337)
(-0.000211385 -0.00308103 1.01322)
(-0.00124846 -0.00313274 1.01287)
(-0.00164359 -0.00318555 1.01266)
(-0.00255368 -0.00322945 1.01253)
(-0.00188703 -0.00324171 1.0122)
(-0.00462592 -0.00325472 1.0224)
(-0.00438302 -0.00320102 0.989709)
(0.00255064 -0.00320644 0.967942)
(0.00187867 -0.00327048 0.992743)
(-0.000451347 -0.00326171 0.985058)
(-0.000286997 -0.00330133 0.984733)
(-0.00131914 -0.00333088 0.984209)
(-0.00170249 -0.00336303 0.983806)
(-0.00257559 -0.00339073 0.983519)
(-0.00187866 -0.00338196 0.983153)
(-0.00455962 -0.0034072 0.993279)
(-0.00429462 -0.00330208 0.960848)
(0.00294724 0.00283121 0.963304)
(0.00236068 0.0028364 0.994382)
(2.42465e-05 0.00276119 0.985107)
(0.000448819 0.00271553 0.985116)
(-0.000551951 0.00263445 0.985115)
(-0.00077411 0.00254846 0.985315)
(-0.00179401 0.00246673 0.985672)
(-0.0011779 0.00237953 0.985844)
(-0.00340444 0.00238226 0.995811)
(-0.00350145 0.00224686 0.963252)
(0.00294908 0.00218629 0.993473)
(0.00229656 0.00212882 1.02428)
(-6.80842e-05 0.00204833 1.01476)
(0.000327188 0.0019619 1.0145)
(-0.000712304 0.00184094 1.0141)
(-0.00094914 0.00170518 1.01385)
(-0.00196582 0.00156657 1.01376)
(-0.00129159 0.00143576 1.0135)
(-0.00353828 0.00139138 1.02366)
(-0.00363308 0.00116392 0.989873)
(0.00287933 -4.99336e-05 0.98451)
(0.00222048 -0.000126739 1.01509)
(-0.000119222 -0.000175771 1.00581)
(0.000245555 -0.000266179 1.00566)
(-0.000808466 -0.000380811 1.0054)
(-0.00105744 -0.000520649 1.00532)
(-0.00207359 -0.00068262 1.00539)
(-0.00138547 -0.000849109 1.00532)
(-0.00366972 -0.000994488 1.01577)
(-0.00373899 -0.0013979 0.981814)
(0.00284393 0.000420352 0.984444)
(0.00214526 0.000328657 1.01481)
(-0.000208874 0.000254325 1.00561)
(0.000118938 0.00013614 1.00543)
(-0.000971185 -2.3924e-05 1.00514)
(-0.00125402 -0.000224752 1.005)
(-0.00229723 -0.000467649 1.00499)
(-0.00160848 -0.000741054 1.00483)
(-0.00406117 -0.00100256 1.01564)
(-0.00403666 -0.00168024 0.980381)
(0.00278115 -0.000522805 0.984317)
(0.00204728 -0.000635435 1.01437)
(-0.000310519 -0.000713026 1.00528)
(-3.25452e-05 -0.000842893 1.00507)
(-0.00116941 -0.00101955 1.00472)
(-0.00150165 -0.00124388 1.00449)
(-0.00258826 -0.00151976 1.00437)
(-0.00192047 -0.00183476 1.00407)
(-0.00459141 -0.0021561 1.01526)
(-0.00440711 -0.00292717 0.978294)
(0.00272334 -0.000624378 0.984398)
(0.00195083 -0.000736207 1.01415)
(-0.000414628 -0.000809909 1.00517)
(-0.000186772 -0.000933322 1.00492)
(-0.00137167 -0.00110143 1.0045)
(-0.00175471 -0.00131213 1.0042)
(-0.0028863 -0.00156778 1.00395)
(-0.00224202 -0.00185716 1.00351)
(-0.00513834 -0.002154 1.01508)
(-0.00479537 -0.00284919 0.976301)
(0.00267617 -0.00145532 0.984666)
(0.00186615 -0.00156194 1.01415)
(-0.00050841 -0.00161984 1.00526)
(-0.000322833 -0.00172106 1.00498)
(-0.00154683 -0.00185513 1.00452)
(-0.00196741 -0.00201718 1.00414)
(-0.00313015 -0.00220448 1.0038)
(-0.00249752 -0.00240455 1.00325)
(-0.0055735 -0.00260266 1.01516)
(-0.005116 -0.00304504 0.9749)
(0.00262102 -0.000750718 0.984908)
(0.00179265 -0.000825273 1.01413)
(-0.000574962 -0.000869195 1.00534)
(-0.00042179 -0.000932672 1.00505)
(-0.00166748 -0.0010169 1.00456)
(-0.00210475 -0.00110918 1.00415)
(-0.00327234 -0.00120179 1.00377)
(-0.0026306 -0.00128395 1.0032)
(-0.00577827 -0.00132519 1.01534)
(-0.00525275 -0.00147085 0.974399)
(0.0026337 -0.00303992 0.995347)
(0.00177713 -0.0031192 1.02466)
(-0.000613195 -0.00313892 1.01589)
(-0.00046495 -0.00320473 1.0157)
(-0.00171719 -0.00326958 1.01531)
(-0.00214893 -0.0033306 1.01501)
(-0.00329928 -0.00336746 1.01473)
(-0.00260646 -0.00333654 1.01423)
(-0.00577403 -0.00326997 1.02662)
(-0.0052764 -0.00302412 0.985526)
(0.00254189 -0.00336266 0.962286)
(0.00168836 -0.00343972 0.991034)
(-0.000685968 -0.00343265 0.982355)
(-0.000562855 -0.00348298 0.981909)
(-0.00180245 -0.00351808 0.981271)
(-0.00220556 -0.00355238 0.98073)
(-0.00327992 -0.00357043 0.980278)
(-0.00250522 -0.00352208 0.979836)
(-0.00550023 -0.00349026 0.992218)
(-0.00506709 -0.00320444 0.952036)
(0.00302489 0.00285425 0.957875)
(0.00235898 0.00285457 0.993664)
(2.38706e-05 0.00276123 0.983249)
(0.000493697 0.00269926 0.983299)
(-0.000618332 0.00259185 0.983438)
(-0.000796174 0.00247968 0.983795)
(-0.00203608 0.00237834 0.984304)
(-0.00154149 0.00228861 0.984594)
(-0.00392883 0.0023617 0.995698)
(-0.0040524 0.00231636 0.957398)
(0.00301947 0.00208232 0.992336)
(0.0022714 0.0020047 1.02775)
(-9.75852e-05 0.00190198 1.01699)
(0.00033179 0.00178579 1.01667)
(-0.000829262 0.00162302 1.01623)
(-0.00101847 0.00144236 1.01596)
(-0.00222997 0.00126293 1.01586)
(-0.00159111 0.00111513 1.01562)
(-0.00388323 0.00114711 1.02714)
(-0.00402501 0.000988015 0.987918)
(0.00293379 -0.000146986 0.982371)
(0.00217502 -0.000248115 1.01747)
(-0.000166946 -0.000315658 1.00705)
(0.000220288 -0.000440132 1.00687)
(-0.000961302 -0.000601592 1.00665)
(-0.00116739 -0.000802314 1.00662)
(-0.00237466 -0.00104071 1.00675)
(-0.00169341 -0.00129245 1.00676)
(-0.00402974 -0.00150146 1.01865)
(-0.00409283 -0.00219173 0.979378)
(0.0028848 0.000352579 0.9823)
(0.00207248 0.000229272 1.0171)
(-0.000291193 0.000125695 1.00679)
(4.1582e-05 -4.04347e-05 1.00658)
(-0.00119697 -0.000271179 1.00631)
(-0.0014618 -0.000569731 1.00619)
(-0.00272408 -0.000946346 1.0062)
(-0.00206228 -0.00139397 1.00607)
(-0.00472022 -0.0018446 1.01852)
(-0.00460571 -0.00319473 0.976912)
(0.00280036 -0.00070279 0.982223)
(0.00193854 -0.000853879 1.01658)
(-0.000434348 -0.00096268 1.00643)
(-0.000175975 -0.00114685 1.00617)
(-0.00148999 -0.00140409 1.00581)
(-0.0018429 -0.00174195 1.00558)
(-0.00319542 -0.00217647 1.0054)
(-0.00260478 -0.00270378 1.00505)
(-0.00572244 -0.00326514 1.0181)
(-0.00537965 -0.00488888 0.97317)
(0.00272268 -0.000714644 0.982354)
(0.00180676 -0.000863271 1.01627)
(-0.000581546 -0.000966865 1.00628)
(-0.000398943 -0.00114235 1.00597)