/*--------------------------------*- C++ -*----------------------------------*\
  =========                 |
  \\      /  F ield         | OpenFOAM: The Open Source CFD Toolbox
   \\    /   O peration     | Website:  https://openfoam.org
    \\  /    A nd           | Version:  6
     \\/     M anipulation  |
\*---------------------------------------------------------------------------*/
FoamFile
{
    version     2.0;
    format      ascii;
    class       volScalarField;
    location    "0.795";
    object      T;
}
// * * * * * * * * * * * * * * * * * * * * * * * * * * * * * * * * * * * * * //

dimensions      [0 0 0 1 0 0 0];

internalField   nonuniform List<scalar> 
7000
(
106.411
106.409
106.406
106.401
106.396
106.39
106.383
106.378
106.374
106.372
106.411
106.409
106.406
106.401
106.396
106.39
106.383
106.378
106.374
106.372
106.411
106.409
106.406
106.401
106.396
106.39
106.383
106.378
106.374
106.372
106.411
106.409
106.406
106.401
106.396
106.39
106.383
106.378
106.374
106.372
106.411
106.409
106.406
106.401
106.396
106.39
106.383
106.378
106.374
106.372
106.411
106.409
106.406
106.401
106.396
106.39
106.383
106.378
106.374
106.372
106.411
106.409
106.406
106.401
106.396
106.39
106.383
106.378
106.374
106.372
106.411
106.409
106.406
106.401
106.396
106.39
106.383
106.378
106.374
106.372
106.411
106.409
106.406
106.401
106.396
106.39
106.383
106.378
106.374
106.372
106.411
106.409
106.406
106.401
106.396
106.39
106.383
106.378
106.374
106.372
99.2562
99.251
99.241
99.2269
99.2096
99.1907
99.172
99.1553
99.1428
99.136
99.2562
99.251
99.241
99.2269
99.2096
99.1907
99.172
99.1553
99.1428
99.136
99.2562
99.251
99.241
99.2268
99.2096
99.1907
99.172
99.1553
99.1428
99.136
99.2562
99.251
99.241
99.2268
99.2096
99.1907
99.1719
99.1553
99.1428
99.136
99.2562
99.251
99.241
99.2268
99.2096
99.1907
99.1719
99.1553
99.1428
99.136
99.2562
99.251
99.241
99.2268
99.2096
99.1907
99.1719
99.1553
99.1428
99.136
99.2562
99.251
99.241
99.2268
99.2096
99.1907
99.1719
99.1553
99.1428
99.136
99.2562
99.251
99.241
99.2268
99.2096
99.1907
99.1719
99.1553
99.1428
99.136
99.2562
99.251
99.241
99.2268
99.2096
99.1907
99.172
99.1553
99.1428
99.136
99.2562
99.251
99.241
99.2269
99.2096
99.1907
99.172
99.1553
99.1428
99.136
92.1707
92.1618
92.1447
92.1204
92.0906
92.0576
92.0247
91.9952
91.9728
91.9607
92.1707
92.1618
92.1447
92.1204
92.0905
92.0576
92.0247
91.9952
91.9728
91.9607
92.1707
92.1618
92.1447
92.1203
92.0905
92.0576
92.0246
91.9952
91.9728
91.9607
92.1706
92.1618
92.1447
92.1203
92.0905
92.0576
92.0246
91.9952
91.9728
91.9607
92.1706
92.1618
92.1447
92.1203
92.0905
92.0576
92.0246
91.9951
91.9728
91.9607
92.1706
92.1618
92.1447
92.1203
92.0905
92.0576
92.0246
91.9951
91.9728
91.9607
92.1706
92.1618
92.1447
92.1203
92.0905
92.0576
92.0246
91.9951
91.9728
91.9607
92.1706
92.1618
92.1447
92.1203
92.0905
92.0576
92.0246
91.9952
91.9728
91.9607
92.1707
92.1618
92.1447
92.1203
92.0905
92.0576
92.0247
91.9952
91.9728
91.9607
92.1707
92.1618
92.1447
92.1204
92.0905
92.0576
92.0247
91.9952
91.9728
91.9607
85.1998
85.187
85.1621
85.1265
85.0825
85.0334
84.9836
84.9384
84.9037
84.8847
85.1998
85.187
85.1621
85.1265
85.0825
85.0334
84.9836
84.9384
84.9037
84.8847
85.1998
85.187
85.162
85.1265
85.0825
85.0334
84.9836
84.9384
84.9037
84.8847
85.1998
85.1869
85.162
85.1264
85.0825
85.0334
84.9836
84.9384
84.9037
84.8847
85.1997
85.1869
85.162
85.1264
85.0824
85.0334
84.9836
84.9384
84.9036
84.8847
85.1997
85.1869
85.162
85.1264
85.0824
85.0334
84.9836
84.9384
84.9036
84.8847
85.1997
85.1869
85.162
85.1264
85.0824
85.0334
84.9836
84.9384
84.9037
84.8847
85.1998
85.1869
85.162
85.1264
85.0825
85.0334
84.9836
84.9384
84.9037
84.8847
85.1998
85.187
85.162
85.1265
85.0825
85.0334
84.9836
84.9384
84.9037
84.8847
85.1998
85.187
85.1621
85.1265
85.0825
85.0334
84.9836
84.9384
84.9037
84.8847
78.3875
78.3704
78.3369
78.2888
78.2286
78.1603
78.0897
78.0243
77.9729
77.9443
78.3874
78.3703
78.3369
78.2888
78.2286
78.1603
78.0897
78.0243
77.9728
77.9442
78.3874
78.3703
78.3369
78.2888
78.2285
78.1603
78.0897
78.0242
77.9728
77.9442
78.3874
78.3703
78.3369
78.2887
78.2285
78.1603
78.0897
78.0242
77.9728
77.9442
78.3874
78.3703
78.3369
78.2887
78.2285
78.1603
78.0897
78.0242
77.9728
77.9442
78.3874
78.3703
78.3369
78.2887
78.2285
78.1603
78.0897
78.0242
77.9728
77.9442
78.3874
78.3703
78.3369
78.2887
78.2285
78.1603
78.0897
78.0242
77.9728
77.9442
78.3874
78.3703
78.3369
78.2887
78.2285
78.1603
78.0897
78.0242
77.9728
77.9442
78.3874
78.3703
78.3369
78.2888
78.2286
78.1603
78.0897
78.0242
77.9728
77.9442
78.3874
78.3703
78.3369
78.2888
78.2286
78.1603
78.0897
78.0243
77.9729
77.9443
71.7756
71.754
71.7114
71.6495
71.5709
71.4798
71.3829
71.2902
71.2149
71.1716
71.7755
71.7539
71.7114
71.6495
71.5708
71.4797
71.3829
71.2902
71.2148
71.1716
71.7755
71.7539
71.7114
71.6495
71.5708
71.4797
71.3829
71.2902
71.2148
71.1716
71.7755
71.7539
71.7114
71.6495
71.5708
71.4797
71.3828
71.2902
71.2148
71.1716
71.7755
71.7539
71.7114
71.6494
71.5708
71.4797
71.3828
71.2901
71.2148
71.1716
71.7755
71.7539
71.7113
71.6494
71.5708
71.4797
71.3828
71.2901
71.2148
71.1716
71.7755
71.7539
71.7114
71.6494
71.5708
71.4797
71.3828
71.2901
71.2148
71.1716
71.7755
71.7539
71.7114
71.6495
71.5708
71.4797
71.3829
71.2902
71.2148
71.1716
71.7755
71.7539
71.7114
71.6495
71.5708
71.4797
71.3829
71.2902
71.2148
71.1716
71.7755
71.7539
71.7114
71.6495
71.5708
71.4797
71.3829
71.2902
71.2149
71.1716
65.4035
65.3774
65.3256
65.2492
65.1503
65.0325
64.9026
64.7723
64.6605
64.5928
65.4034
65.3773
65.3256
65.2492
65.1502
65.0324
64.9025
64.7723
64.6605
64.5928
65.4034
65.3773
65.3255
65.2492
65.1502
65.0324
64.9025
64.7722
64.6605
64.5928
65.4034
65.3773
65.3255
65.2491
65.1502
65.0324
64.9025
64.7722
64.6604
64.5928
65.4034
65.3773
65.3255
65.2491
65.1502
65.0324
64.9025
64.7722
64.6604
64.5927
65.4034
65.3773
65.3255
65.2491
65.1502
65.0324
64.9025
64.7722
64.6604
64.5927
65.4034
65.3773
65.3255
65.2491
65.1502
65.0324
64.9025
64.7722
64.6604
64.5928
65.4034
65.3773
65.3255
65.2492
65.1502
65.0324
64.9025
64.7722
64.6604
64.5928
65.4034
65.3773
65.3255
65.2492
65.1502
65.0324
64.9025
64.7723
64.6605
64.5928
65.4034
65.3773
65.3256
65.2492
65.1503
65.0325
64.9026
64.7723
64.6605
64.5928
59.3071
59.277
59.2167
59.1265
59.007
58.8597
58.6893
58.5069
58.3366
58.2229
59.3071
59.2769
59.2167
59.1265
59.0069
58.8596
58.6892
58.5068
58.3365
58.2229
59.3071
59.2769
59.2167
59.1265
59.0069
58.8596
58.6892
58.5068
58.3365
58.2228
59.307
59.2769
59.2166
59.1264
59.0069
58.8596
58.6892
58.5068
58.3364
58.2228
59.307
59.2769
59.2166
59.1264
59.0068
58.8596
58.6892
58.5068
58.3364
58.2228
59.307
59.2769
59.2166
59.1264
59.0068
58.8596
58.6892
58.5068
58.3364
58.2228
59.307
59.2769
59.2166
59.1264
59.0068
58.8596
58.6892
58.5068
58.3364
58.2228
59.307
59.2769
59.2166
59.1264
59.0069
58.8596
58.6892
58.5068
58.3365
58.2228
59.3071
59.2769
59.2167
59.1265
59.0069
58.8596
58.6892
58.5068
58.3365
58.2229
59.3071
59.2769
59.2167
59.1265
59.0069
58.8597
58.6893
58.5069
58.3365
58.2229
53.5182
53.4852
53.4186
53.3175
53.18
53.0041
52.7883
52.5359
52.268
52.055
53.5182
53.4851
53.4186
53.3174
53.18
53.0041
52.7882
52.5358
52.268
52.0549
53.5182
53.4851
53.4185
53.3174
53.1799
53.004
52.7882
52.5358
52.2679
52.0549
53.5181
53.4851
53.4185
53.3173
53.1799
53.004
52.7882
52.5357
52.2679
52.0549
53.5181
53.485
53.4185
53.3173
53.1799
53.004
52.7881
52.5357
52.2679
52.0549
53.5181
53.485
53.4185
53.3173
53.1799
53.004
52.7881
52.5357
52.2679
52.0549
53.5181
53.4851
53.4185
53.3173
53.1799
53.004
52.7881
52.5357
52.2679
52.0549
53.5181
53.4851
53.4185
53.3174
53.1799
53.004
52.7882
52.5358
52.2679
52.0549
53.5182
53.4851
53.4185
53.3174
53.1799
53.0041
52.7882
52.5358
52.268
52.0549
53.5182
53.4851
53.4186
53.3174
53.18
53.0041
52.7882
52.5358
52.268
52.055
48.0632
48.0292
47.9602
47.8541
47.7068
47.511
47.2547
46.9204
46.4939
46.0297
48.0632
48.0291
47.9602
47.8541
47.7068
47.5109
47.2546
46.9203
46.4938
46.0297
48.0631
48.0291
47.9601
47.8541
47.7067
47.5109
47.2546
46.9203
46.4938
46.0296
48.0631
48.0291
47.9601
47.854
47.7067
47.5109
47.2545
46.9203
46.4937
46.0296
48.0631
48.0291
47.9601
47.854
47.7067
47.5108
47.2545
46.9203
46.4937
46.0296
48.0631
48.029
47.9601
47.854
47.7067
47.5108
47.2545
46.9203
46.4937
46.0296
48.0631
48.0291
47.9601
47.854
47.7067
47.5108
47.2545
46.9203
46.4937
46.0296
48.0631
48.0291
47.9601
47.854
47.7067
47.5109
47.2546
46.9203
46.4938
46.0296
48.0631
48.0291
47.9602
47.8541
47.7067
47.5109
47.2546
46.9203
46.4938
46.0297
48.0632
48.0291
47.9602
47.8541
47.7068
47.511
47.2546
46.9204
46.4938
46.0297
42.9622
42.9298
42.8642
42.7626
42.6198
42.4251
42.157
41.7685
41.1435
39.9403
42.9621
42.9298
42.8641
42.7625
42.6197
42.425
42.157
41.7685
41.1434
39.9402
42.9621
42.9297
42.8641
42.7625
42.6197
42.425
42.1569
41.7684
41.1433
39.9401
42.962
42.9297
42.864
42.7624
42.6196
42.425
42.1569
41.7684
41.1433
39.9401
42.962
42.9297
42.864
42.7624
42.6196
42.425
42.1569
41.7684
41.1433
39.9401
42.962
42.9297
42.864
42.7624
42.6196
42.425
42.1569
41.7684
41.1433
39.9401
42.962
42.9297
42.864
42.7624
42.6196
42.425
42.1569
41.7684
41.1433
39.9401
42.9621
42.9297
42.864
42.7625
42.6196
42.425
42.1569
41.7684
41.1433
39.9401
42.9621
42.9297
42.8641
42.7625
42.6197
42.425
42.157
41.7684
41.1434
39.9402
42.9621
42.9298
42.8641
42.7625
42.6197
42.4251
42.157
41.7685
41.1434
39.9402
38.2279
38.2003
38.1446
38.059
37.9399
37.7791
37.5605
37.2517
36.793
36.0947
38.2279
38.2003
38.1445
38.059
37.9398
37.7791
37.5604
37.2516
36.7929
36.0947
38.2278
38.2002
38.1445
38.0589
37.9398
37.779
37.5604
37.2516
36.7929
36.0946
38.2278
38.2002
38.1444
38.0589
37.9398
37.779
37.5603
37.2516
36.7929
36.0946
38.2278
38.2002
38.1444
38.0589
37.9397
37.779
37.5603
37.2515
36.7928
36.0945
38.2278
38.2002
38.1444
38.0589
37.9397
37.779
37.5603
37.2515
36.7928
36.0945
38.2278
38.2002
38.1444
38.0589
37.9398
37.779
37.5603
37.2515
36.7929
36.0945
38.2278
38.2002
38.1445
38.0589
37.9398
37.779
37.5604
37.2516
36.7929
36.0946
38.2278
38.2002
38.1445
38.0589
37.9398
37.7791
37.5604
37.2516
36.7929
36.0946
38.2279
38.2003
38.1445
38.059
37.9399
37.7791
37.5605
37.2517
36.793
36.0947
33.8656
33.8456
33.806
33.7473
33.6696
33.572
33.4512
33.3029
33.1271
32.9576
33.8656
33.8456
33.806
33.7473
33.6696
33.5719
33.4512
33.3028
33.127
32.9575
33.8655
33.8455
33.8059
33.7472
33.6695
33.5718
33.4511
33.3028
33.1269
32.9575
33.8655
33.8455
33.8059
33.7472
33.6695
33.5718
33.4511
33.3027
33.1269
32.9574
33.8655
33.8455
33.8059
33.7472
33.6695
33.5718
33.4511
33.3027
33.1269
32.9574
33.8655
33.8455
33.8059
33.7472
33.6695
33.5718
33.4511
33.3027
33.1269
32.9574
33.8655
33.8455
33.8059
33.7472
33.6695
33.5718
33.4511
33.3027
33.1269
32.9574
33.8655
33.8455
33.8059
33.7472
33.6695
33.5718
33.4511
33.3028
33.1269
32.9574
33.8655
33.8455
33.8059
33.7473
33.6696
33.5719
33.4512
33.3028
33.127
32.9575
33.8656
33.8456
33.806
33.7473
33.6696
33.5719
33.4512
33.3029
33.127
32.9576
29.8729
29.8626
29.8437
29.8195
29.7949
29.7773
29.7771
29.8113
29.9124
30.1477
29.8729
29.8626
29.8436
29.8194
29.7949
29.7772
29.777
29.8113
29.9124
30.1476
29.8728
29.8625
29.8436
29.8194
29.7948
29.7772
29.777
29.8112
29.9123
30.1476
29.8728
29.8625
29.8436
29.8193
29.7948
29.7772
29.7769
29.8112
29.9123
30.1475
29.8728
29.8625
29.8436
29.8193
29.7948
29.7771
29.7769
29.8112
29.9123
30.1475
29.8728
29.8625
29.8436
29.8193
29.7948
29.7771
29.7769
29.8112
29.9123
30.1475
29.8728
29.8625
29.8436
29.8193
29.7948
29.7772
29.7769
29.8112
29.9123
30.1475
29.8728
29.8625
29.8436
29.8193
29.7948
29.7772
29.777
29.8112
29.9123
30.1476
29.8728
29.8625
29.8436
29.8194
29.7948
29.7772
29.777
29.8113
29.9124
30.1476
29.8729
29.8626
29.8437
29.8194
29.7949
29.7773
29.7771
29.8113
29.9124
30.1477
26.241
26.2413
26.2451
26.2584
26.2911
26.3579
26.4798
26.6876
27.0263
27.5637
26.2409
26.2413
26.2451
26.2584
26.2911
26.3578
26.4798
26.6875
27.0263
27.5636
26.2409
26.2412
26.245
26.2583
26.291
26.3578
26.4797
26.6874
27.0262
27.5636
26.2408
26.2412
26.245
26.2583
26.291
26.3578
26.4797
26.6874
27.0262
27.5636
26.2408
26.2412
26.245
26.2583
26.291
26.3578
26.4797
26.6874
27.0262
27.5635
26.2408
26.2412
26.245
26.2583
26.291
26.3578
26.4797
26.6874
27.0262
27.5635
26.2408
26.2412
26.245
26.2583
26.291
26.3578
26.4797
26.6874
27.0262
27.5635
26.2408
26.2412
26.245
26.2583
26.291
26.3578
26.4797
26.6874
27.0262
27.5636
26.2409
26.2413
26.245
26.2584
26.2911
26.3578
26.4798
26.6875
27.0263
27.5636
26.2409
26.2413
26.2451
26.2584
26.2911
26.3579
26.4798
26.6875
27.0263
27.5637
22.9557
22.9665
22.9923
23.0417
23.1287
23.274
23.5066
23.866
24.4031
25.1783
22.9556
22.9664
22.9922
23.0416
23.1286
23.2739
23.5065
23.8659
24.403
25.1782
22.9556
22.9664
22.9922
23.0416
23.1286
23.2739
23.5065
23.8659
24.403
25.1781
22.9556
22.9664
22.9922
23.0416
23.1286
23.2738
23.5064
23.8659
24.4029
25.1781
22.9555
22.9664
22.9921
23.0416
23.1286
23.2738
23.5064
23.8659
24.4029
25.1781
22.9555
22.9663
22.9921
23.0416
23.1286
23.2738
23.5064
23.8659
24.4029
25.1781
22.9555
22.9664
22.9922
23.0416
23.1286
23.2738
23.5064
23.8659
24.4029
25.1781
22.9556
22.9664
22.9922
23.0416
23.1286
23.2738
23.5065
23.8659
24.403
25.1781
22.9556
22.9664
22.9922
23.0416
23.1286
23.2739
23.5065
23.8659
24.403
25.1782
22.9556
22.9665
22.9923
23.0417
23.1287
23.2739
23.5066
23.866
24.4031
25.1783
19.9995
20.0193
20.064
20.144
20.2764
20.4863
20.8095
21.2935
21.9968
22.9792
19.9994
20.0193
20.064
20.144
20.2763
20.4863
20.8095
21.2935
21.9967
22.9791
19.9994
20.0192
20.0639
20.1439
20.2763
20.4863
20.8094
21.2934
21.9967
22.9791
19.9994
20.0192
20.0639
20.1439
20.2763
20.4862
20.8094
21.2934
21.9966
22.979
19.9994
20.0192
20.0639
20.1439
20.2762
20.4862
20.8094
21.2934
21.9966
22.979
19.9993
20.0192
20.0639
20.1439
20.2762
20.4862
20.8094
21.2934
21.9966
22.979
19.9994
20.0192
20.0639
20.1439
20.2763
20.4862
20.8094
21.2934
21.9966
22.979
19.9994
20.0192
20.0639
20.1439
20.2763
20.4863
20.8094
21.2934
21.9967
22.9791
19.9994
20.0192
20.064
20.144
20.2763
20.4863
20.8095
21.2935
21.9967
22.9791
19.9994
20.0193
20.064
20.144
20.2764
20.4863
20.8095
21.2935
21.9968
22.9792
17.3528
17.3794
17.4379
17.5399
17.7038
17.958
18.3432
18.9169
19.755
20.9406
17.3528
17.3793
17.4379
17.5398
17.7038
17.9579
18.3432
18.9169
19.7549
20.9405
17.3528
17.3793
17.4379
17.5398
17.7037
17.9579
18.3431
18.9168
19.7548
20.9405
17.3527
17.3793
17.4378
17.5397
17.7037
17.9579
18.3431
18.9168
19.7548
20.9404
17.3527
17.3793
17.4378
17.5397
17.7037
17.9579
18.3431
18.9168
19.7548
20.9404
17.3527
17.3793
17.4378
17.5397
17.7037
17.9579
18.3431
18.9168
19.7548
20.9404
17.3527
17.3793
17.4378
17.5397
17.7037
17.9579
18.3431
18.9168
19.7548
20.9404
17.3527
17.3793
17.4378
17.5398
17.7037
17.9579
18.3431
18.9168
19.7548
20.9405
17.3528
17.3793
17.4379
17.5398
17.7038
17.9579
18.3432
18.9169
19.7549
20.9405
17.3528
17.3794
17.4379
17.5399
17.7038
17.958
18.3432
18.9169
19.755
20.9406
14.9957
15.0261
15.0923
15.2054
15.3839
15.6559
16.0642
16.6748
17.5929
18.9809
14.9957
15.0261
15.0923
15.2054
15.3838
15.6558
16.0641
16.6748
17.5929
18.9809
14.9956
15.0261
15.0922
15.2054
15.3838
15.6558
16.0641
16.6747
17.5928
18.9808
14.9956
15.026
15.0922
15.2053
15.3838
15.6557
16.064
16.6747
17.5928
18.9808
14.9956
15.026
15.0922
15.2053
15.3838
15.6557
16.064
16.6747
17.5928
18.9808
14.9956
15.026
15.0922
15.2053
15.3838
15.6557
16.064
16.6747
17.5928
18.9808
14.9956
15.026
15.0922
15.2053
15.3838
15.6557
16.064
16.6747
17.5928
18.9808
14.9956
15.026
15.0922
15.2054
15.3838
15.6558
16.0641
16.6747
17.5928
18.9808
14.9956
15.0261
15.0923
15.2054
15.3838
15.6558
16.0641
16.6748
17.5929
18.9809
14.9957
15.0261
15.0923
15.2054
15.3839
15.6559
16.0642
16.6748
17.5929
18.9809
12.9086
12.94
13.0075
13.1208
13.2956
13.5561
13.9385
14.5028
15.3662
16.8294
12.9086
12.94
13.0075
13.1207
13.2956
13.556
13.9384
14.5027
15.3662
16.8294
12.9086
12.94
13.0074
13.1207
13.2956
13.556
13.9384
14.5027
15.3662
16.8293
12.9085
12.9399
13.0074
13.1207
13.2956
13.556
13.9384
14.5027
15.3661
16.8293
12.9085
12.9399
13.0074
13.1207
13.2955
13.556
13.9384
14.5027
15.3661
16.8293
12.9085
12.9399
13.0074
13.1207
13.2955
13.556
13.9384
14.5027
15.3661
16.8293
12.9085
12.9399
13.0074
13.1207
13.2956
13.556
13.9384
14.5027
15.3661
16.8293
12.9086
12.94
13.0074
13.1207
13.2956
13.556
13.9384
14.5027
15.3662
16.8293
12.9086
12.94
13.0075
13.1207
13.2956
13.556
13.9384
14.5027
15.3662
16.8294
12.9086
12.94
13.0075
13.1208
13.2957
13.5561
13.9385
14.5028
15.3663
16.8295
36.9487
36.256
37.1871
39.5268
43.2647
48.5255
55.5725
64.8729
77.2739
94.4736
36.9486
36.2559
37.187
39.5267
43.2646
48.5253
55.5724
64.8728
77.2738
94.4734
36.9486
36.2558
37.187
39.5266
43.2645
48.5253
55.5723
64.8727
77.2737
94.4733
36.9485
36.2558
37.1869
39.5265
43.2644
48.5252
55.5722
64.8726
77.2736
94.4733
36.9485
36.2558
37.1869
39.5265
43.2644
48.5252
55.5722
64.8726
77.2736
94.4732
36.9485
36.2558
37.1869
39.5265
43.2644
48.5252
55.5722
64.8726
77.2736
94.4732
36.9485
36.2558
37.1869
39.5265
43.2644
48.5252
55.5722
64.8726
77.2736
94.4732
36.9485
36.2558
37.1869
39.5265
43.2644
48.5252
55.5722
64.8727
77.2737
94.4733
36.9486
36.2558
37.187
39.5266
43.2645
48.5253
55.5723
64.8727
77.2737
94.4734
36.9486
36.2559
37.187
39.5267
43.2646
48.5254
55.5724
64.8728
77.2738
94.4735
35.1682
35.2031
36.3979
38.7935
42.4508
47.4904
54.1103
62.6006
73.3368
86.6256
35.1681
35.203
36.3978
38.7934
42.4507
47.4903
54.1102
62.6005
73.3367
86.6254
35.168
35.203
36.3977
38.7934
42.4506
47.4902
54.1101
62.6004
73.3366
86.6253
35.168
35.2029
36.3977
38.7933
42.4506
47.4901
54.11
62.6003
73.3365
86.6252
35.168
35.2029
36.3976
38.7933
42.4505
47.4901
54.11
62.6003
73.3365
86.6252
35.168
35.2029
36.3976
38.7933
42.4505
47.4901
54.11
62.6003
73.3365
86.6252
35.168
35.2029
36.3976
38.7933
42.4505
47.4901
54.11
62.6003
73.3365
86.6252
35.168
35.203
36.3977
38.7933
42.4506
47.4902
54.11
62.6004
73.3365
86.6253
35.1681
35.203
36.3977
38.7934
42.4507
47.4902
54.1101
62.6004
73.3366
86.6254
35.1681
35.2031
36.3978
38.7935
42.4507
47.4903
54.1102
62.6005
73.3367
86.6255
32.9526
33.564
35.0271
37.4628
40.9621
45.6242
51.5665
58.9083
67.7064
77.7705
32.9526
33.5639
35.027
37.4627
40.962
45.6241
51.5663
58.9081
67.7063
77.7703
32.9525
33.5638
35.0269
37.4626
40.9619
45.624
51.5662
58.9081
67.7062
77.7702
32.9525
33.5638
35.0269
37.4626
40.9618
45.624
51.5662
58.908
67.7061
77.7702
32.9524
33.5637
35.0269
37.4625
40.9618
45.6239
51.5661
58.908
67.7061
77.7701
32.9524
33.5637
35.0269
37.4625
40.9618
45.6239
51.5661
58.908
67.7061
77.7701
32.9524
33.5637
35.0269
37.4625
40.9618
45.624
51.5662
58.908
67.7061
77.7701
32.9525
33.5638
35.0269
37.4626
40.9619
45.624
51.5662
58.908
67.7062
77.7702
32.9525
33.5638
35.027
37.4626
40.9619
45.6241
51.5663
58.9081
67.7062
77.7703
32.9526
33.5639
35.0271
37.4627
40.962
45.6242
51.5664
58.9082
67.7064
77.7704
30.6529
31.6478
33.3022
35.73
39.0144
43.2229
48.407
54.5801
61.6639
69.3895
30.6528
31.6477
33.3021
35.7299
39.0143
43.2228
48.4068
54.5799
61.6638
69.3894
30.6527
31.6477
33.302
35.7298
39.0142
43.2227
48.4067
54.5798
61.6637
69.3893
30.6527
31.6476
33.3019
35.7298
39.0141
43.2226
48.4067
54.5798
61.6636
69.3892
30.6527
31.6476
33.3019
35.7297
39.0141
43.2226
48.4067
54.5798
61.6636
69.3892
30.6527
31.6476
33.3019
35.7297
39.0141
43.2226
48.4067
54.5797
61.6636
69.3892
30.6527
31.6476
33.3019
35.7297
39.0141
43.2226
48.4067
54.5798
61.6636
69.3892
30.6527
31.6477
33.302
35.7298
39.0142
43.2227
48.4067
54.5798
61.6637
69.3893
30.6528
31.6477
33.302
35.7299
39.0142
43.2227
48.4068
54.5799
61.6637
69.3894
30.6528
31.6478
33.3021
35.73
39.0143
43.2229
48.4069
54.58
61.6639
69.3895
28.3967
29.6461
31.4192
33.798
36.8412
40.5846
45.0352
50.1535
55.8246
61.8204
28.3966
29.6461
31.4191
33.7979
36.8411
40.5845
45.035
50.1534
55.8245
61.8202
28.3966
29.646
31.419
33.7979
36.841
40.5845
45.035
50.1533
55.8244
61.8202
28.3965
29.6459
31.419
33.7978
36.841
40.5844
45.0349
50.1532
55.8243
61.8201
28.3965
29.6459
31.419
33.7978
36.841
40.5844
45.0349
50.1532
55.8243
61.8201
28.3965
29.6459
31.419
33.7978
36.841
40.5844
45.0349
50.1532
55.8243
61.8201
28.3965
29.6459
31.419
33.7978
36.841
40.5844
45.0349
50.1532
55.8243
61.8201
28.3966
29.646
31.419
33.7978
36.841
40.5844
45.0349
50.1533
55.8244
61.8201
28.3966
29.646
31.4191
33.7979
36.8411
40.5845
45.035
50.1534
55.8245
61.8202
28.3967
29.6461
31.4192
33.798
36.8412
40.5846
45.0351
50.1535
55.8246
61.8204
26.2549
27.6908
29.5412
31.8533
34.6597
37.9702
41.7632
45.9762
50.4941
55.1458
26.2548
27.6908
29.5411
31.8532
34.6596
37.97
41.7631
45.9761
50.494
55.1457
26.2548
27.6907
29.541
31.8532
34.6596
37.97
41.7631
45.976
50.4939
55.1456
26.2547
27.6906
29.541
31.8531
34.6595
37.9699
41.763
45.9759
50.4938
55.1456
26.2547
27.6906
29.5409
31.8531
34.6595
37.9699
41.763
45.9759
50.4938
55.1455
26.2547
27.6906
29.5409
31.8531
34.6595
37.9699
41.763
45.9759
50.4938
55.1455
26.2547
27.6906
29.541
31.8531
34.6595
37.9699
41.763
45.9759
50.4938
55.1456
26.2548
27.6907
29.541
31.8532
34.6596
37.97
41.7631
45.976
50.4939
55.1456
26.2548
27.6907
29.5411
31.8532
34.6596
37.97
41.7631
45.9761
50.494
55.1457
26.2549
27.6908
29.5411
31.8533
34.6597
37.9701
41.7632
45.9762
50.4941
55.1458
24.2784
25.8849
27.8054
30.059
32.6584
35.595
38.8291
42.2841
45.8491
49.3951
24.2783
25.8848
27.8053
30.0589
32.6583
35.5949
38.8289
42.284
45.849
49.3949
24.2782
25.8847
27.8053
30.0588
32.6582
35.5948
38.8289
42.2839
45.8489
49.3948
24.2782
25.8847
27.8052
30.0588
32.6582
35.5948
38.8288
42.2838
45.8488
49.3948
24.2782
25.8847
27.8052
30.0588
32.6582
35.5947
38.8288
42.2838
45.8488
49.3948
24.2782
25.8847
27.8052
30.0588
32.6582
35.5947
38.8288
42.2838
45.8488
49.3948
24.2782
25.8847
27.8052
30.0588
32.6582
35.5948
38.8288
42.2838
45.8488
49.3948
24.2782
25.8847
27.8053
30.0589
32.6582
35.5948
38.8289
42.2839
45.8489
49.3949
24.2783
25.8848
27.8053
30.0589
32.6583
35.5949
38.8289
42.284
45.849
49.3949
24.2784
25.8849
27.8054
30.059
32.6584
35.595
38.8291
42.2841
45.8491
49.3951
22.5097
24.3203
26.3331
28.556
30.996
33.6355
36.421
39.2597
42.0276
44.6015
22.5096
24.3202
26.333
28.5559
30.9959
33.6354
36.4209
39.2596
42.0275
44.6014
22.5095
24.3202
26.333
28.5558
30.9958
33.6353
36.4208
39.2595
42.0274
44.6013
22.5095
24.3201
26.3329
28.5558
30.9958
33.6353
36.4208
39.2595
42.0273
44.6013
22.5095
24.3201
26.3329
28.5557
30.9958
33.6353
36.4207
39.2594
42.0273
44.6012
22.5095
24.3201
26.3329
28.5557
30.9958
33.6353
36.4207
39.2595
42.0273
44.6012
22.5095
24.3201
26.3329
28.5558
30.9958
33.6353
36.4208
39.2595
42.0274
44.6013
22.5095
24.3202
26.333
28.5558
30.9958
33.6353
36.4208
39.2595
42.0274
44.6013
22.5096
24.3202
26.333
28.5559
30.9959
33.6354
36.4209
39.2596
42.0275
44.6014
22.5097
24.3203
26.3331
28.556
30.996
33.6355
36.421
39.2597
42.0276
44.6015
21.0026
23.0997
25.2394
27.4656
29.8029
32.235
34.6972
37.0722
39.1896
40.8519
21.0025
23.0996
25.2393
27.4655
29.8028
32.2349
34.6971
37.0721
39.1895
40.8518
21.0025
23.0996
25.2393
27.4654
29.8027
32.2348
34.6971
37.072
39.1894
40.8518
21.0024
23.0995
25.2392
27.4654
29.8027
32.2348
34.697
37.0719
39.1894
40.8517
21.0024
23.0995
25.2392
27.4654
29.8026
32.2347
34.697
37.0719
39.1893
40.8517
21.0024
23.0995
25.2392
27.4654
29.8026
32.2347
34.697
37.0719
39.1893
40.8517
21.0024
23.0995
25.2392
27.4654
29.8027
32.2348
34.697
37.0719
39.1894
40.8517
21.0025
23.0996
25.2393
27.4654
29.8027
32.2348
34.6971
37.072
39.1894
40.8518
21.0025
23.0996
25.2394
27.4655
29.8028
32.2349
34.6972
37.0721
39.1895
40.8519
21.0026
23.0997
25.2394
27.4656
29.8029
32.235
34.6973
37.0722
39.1896
40.852
19.9096
22.3734
24.6411
26.888
29.178
31.5029
33.791
35.8986
37.5834
38.4304
19.9095
22.3733
24.641
26.888
29.1779
31.5028
33.7909
35.8985
37.5833
38.4304
19.9095
22.3733
24.641
26.8879
29.1779
31.5028
33.7908
35.8984
37.5832
38.4303
19.9095
22.3732
24.6409
26.8879
29.1778
31.5027
33.7908
35.8984
37.5832
38.4302
19.9094
22.3732
24.6409
26.8879
29.1778
31.5027
33.7907
35.8983
37.5832
38.4302
19.9094
22.3732
24.6409
26.8879
29.1778
31.5027
33.7908
35.8983
37.5832
38.4302
19.9095
22.3733
24.641
26.8879
29.1778
31.5028
33.7908
35.8984
37.5832
38.4303
19.9095
22.3733
24.641
26.8879
29.1779
31.5028
33.7908
35.8984
37.5833
38.4303
19.9096
22.3733
24.6411
26.888
29.178
31.5029
33.7909
35.8985
37.5833
38.4304
19.9096
22.3734
24.6411
26.8881
29.1781
31.503
33.791
35.8986
37.5835
38.4305
120.41
132.774
140.374
145.708
149.665
152.642
154.852
156.423
157.433
157.927
120.41
132.774
140.374
145.708
149.665
152.642
154.852
156.423
157.433
157.927
120.41
132.774
140.373
145.708
149.665
152.642
154.852
156.423
157.432
157.927
120.41
132.774
140.373
145.708
149.665
152.642
154.852
156.423
157.432
157.927
120.41
132.774
140.373
145.708
149.665
152.642
154.852
156.423
157.432
157.927
120.41
132.774
140.373
145.708
149.665
152.642
154.852
156.423
157.432
157.927
120.41
132.774
140.373
145.708
149.665
152.642
154.852
156.423
157.432
157.927
120.41
132.774
140.373
145.708
149.665
152.642
154.852
156.423
157.433
157.927
120.41
132.774
140.374
145.708
149.665
152.642
154.852
156.423
157.433
157.927
120.41
132.774
140.374
145.708
149.665
152.642
154.852
156.423
157.433
157.927
101.81
112.871
120.708
126.407
130.647
133.821
136.165
137.822
138.884
139.403
101.81
112.871
120.707
126.407
130.647
133.821
136.164
137.822
138.884
139.403
101.809
112.871
120.707
126.407
130.647
133.821
136.164
137.822
138.884
139.403
101.809
112.871
120.707
126.407
130.647
133.821
136.164
137.822
138.884
139.403
101.809
112.871
120.707
126.407
130.646
133.821
136.164
137.822
138.884
139.403
101.809
112.871
120.707
126.407
130.646
133.821
136.164
137.822
138.884
139.403
101.809
112.871
120.707
126.407
130.647
133.821
136.164
137.822
138.884
139.403
101.809
112.871
120.707
126.407
130.647
133.821
136.164
137.822
138.884
139.403
101.81
112.871
120.707
126.407
130.647
133.821
136.164
137.822
138.884
139.403
101.81
112.871
120.708
126.407
130.647
133.821
136.165
137.822
138.884
139.403
88.2438
97.1267
104.128
109.531
113.674
116.822
119.163
120.825
121.892
122.413
88.2437
97.1266
104.128
109.531
113.674
116.821
119.163
120.825
121.892
122.413
88.2436
97.1265
104.128
109.531
113.673
116.821
119.163
120.825
121.892
122.413
88.2435
97.1264
104.128
109.531
113.673
116.821
119.163
120.825
121.891
122.413
88.2435
97.1264
104.128
109.531
113.673
116.821
119.162
120.825
121.891
122.413
88.2435
97.1264
104.128
109.531
113.673
116.821
119.162
120.825
121.891
122.413
88.2435
97.1264
104.128
109.531
113.673
116.821
119.163
120.825
121.891
122.413
88.2436
97.1265
104.128
109.531
113.673
116.821
119.163
120.825
121.892
122.413
88.2437
97.1266
104.128
109.531
113.674
116.821
119.163
120.825
121.892
122.413
88.2438
97.1267
104.128
109.531
113.674
116.822
119.163
120.825
121.892
122.413
77.1777
84.1951
90.0981
94.884
98.678
101.624
103.845
105.436
106.462
106.965
77.1776
84.1949
90.098
94.8838
98.6778
101.624
103.845
105.436
106.462
106.965
77.1775
84.1948
90.0978
94.8837
98.6777
101.624
103.845
105.436
106.462
106.965
77.1774
84.1947
90.0978
94.8837
98.6776
101.624
103.845
105.436
106.462
106.965
77.1774
84.1947
90.0977
94.8836
98.6776
101.624
103.845
105.436
106.462
106.965
77.1774
84.1947
90.0977
94.8836
98.6776
101.624
103.845
105.436
106.462
106.965
77.1774
84.1947
90.0978
94.8837
98.6776
101.624
103.845
105.436
106.462
106.965
77.1775
84.1948
90.0978
94.8837
98.6777
101.624
103.845
105.436
106.462
106.965
77.1776
84.1949
90.098
94.8839
98.6778
101.624
103.845
105.436
106.462
106.965
77.1777
84.195
90.0981
94.884
98.678
101.624
103.845
105.436
106.462
106.966
67.783
73.3008
78.1283
82.1892
85.5056
88.1389
90.1567
91.6177
92.567
93.0343
67.7828
73.3007
78.1282
82.189
85.5055
88.1388
90.1566
91.6176
92.5669
93.0342
67.7827
73.3006
78.1281
82.1889
85.5054
88.1387
90.1565
91.6175
92.5668
93.0341
67.7827
73.3005
78.128
82.1889
85.5053
88.1386
90.1564
91.6174
92.5667
93.0341
67.7826
73.3005
78.128
82.1888
85.5053
88.1386
90.1564
91.6174
92.5667
93.0341
67.7826
73.3005
78.128
82.1888
85.5053
88.1386
90.1564
91.6174
92.5667
93.0341
67.7827
73.3005
78.128
82.1889
85.5053
88.1387
90.1564
91.6175
92.5668
93.0341
67.7827
73.3006
78.1281
82.1889
85.5054
88.1387
90.1565
91.6175
92.5668
93.0342
67.7828
73.3007
78.1282
82.189
85.5055
88.1388
90.1566
91.6177
92.567
93.0343
67.783
73.3008
78.1283
82.1892
85.5056
88.139
90.1567
91.6178
92.5671
93.0345
59.7192
64.0052
67.8527
71.1832
73.9753
76.2408
78.006
79.2999
80.1476
80.5669
59.7191
64.0051
67.8525
71.1831
73.9752
76.2407
78.0059
79.2998
80.1475
80.5668
59.719
64.005
67.8524
71.183
73.9751
76.2406
78.0058
79.2997
80.1474
80.5667
59.7189
64.0049
67.8524
71.1829
73.975
76.2405
78.0057
79.2996
80.1473
80.5667
59.7189
64.0049
67.8523
71.1829
73.975
76.2405
78.0057
79.2996
80.1473
80.5667
59.7189
64.0049
67.8523
71.1829
73.975
76.2405
78.0057
79.2996
80.1473
80.5667
59.7189
64.0049
67.8524
71.1829
73.975
76.2405
78.0057
79.2997
80.1474
80.5667
59.719
64.005
67.8524
71.183
73.9751
76.2406
78.0058
79.2997
80.1475
80.5668
59.7191
64.0051
67.8525
71.1831
73.9752
76.2407
78.0059
79.2999
80.1476
80.5669
59.7192
64.0052
67.8527
71.1832
73.9754
76.2409
78.0061
79.3
80.1477
80.5671
52.8109
56.0362
58.9995
61.6368
63.9063
65.7891
67.2821
68.391
69.1241
69.4886
52.8108
56.036
58.9994
61.6367
63.9062
65.789
67.282
68.3909
69.1239
69.4885
52.8107
56.0359
58.9993
61.6366
63.9061
65.7889
67.2819
68.3908
69.1239
69.4884
52.8106
56.0359
58.9992
61.6365
63.906
65.7888
67.2819
68.3907
69.1238
69.4884
52.8106
56.0358
58.9992
61.6365
63.906
65.7888
67.2818
68.3907
69.1238
69.4883
52.8106
56.0359
58.9992
61.6365
63.906
65.7888
67.2818
68.3907
69.1238
69.4884
52.8106
56.0359
58.9993
61.6365
63.9061
65.7888
67.2819
68.3908
69.1238
69.4884
52.8107
56.036
58.9993
61.6366
63.9061
65.7889
67.2819
68.3908
69.1239
69.4885
52.8108
56.036
58.9994
61.6367
63.9062
65.789
67.2821
68.391
69.124
69.4886
52.8109
56.0362
58.9996
61.6369
63.9064
65.7891
67.2822
68.3911
69.1242
69.4887
46.9396
49.1923
51.3508
53.3501
55.1279
56.6412
57.865
58.7871
59.4026
59.7104
46.9395
49.1921