/*--------------------------------*- C++ -*----------------------------------*\
  =========                 |
  \\      /  F ield         | OpenFOAM: The Open Source CFD Toolbox
   \\    /   O peration     | Website:  https://openfoam.org
    \\  /    A nd           | Version:  6
     \\/     M anipulation  |
\*---------------------------------------------------------------------------*/
FoamFile
{
    version     2.0;
    format      ascii;
    class       volScalarField;
    location    "400";
    object      p;
}
// * * * * * * * * * * * * * * * * * * * * * * * * * * * * * * * * * * * * * //

dimensions      [0 2 -2 0 0 0 0];

internalField   nonuniform List<scalar> 
7000
(
0.0380242
0.0357799
0.0352533
0.0350176
0.0348981
0.034905
0.0350375
0.0352834
0.0358161
0.0380686
0.0357667
0.0335208
0.0329954
0.03276
0.0326407
0.0326479
0.032781
0.0330273
0.0335592
0.0358136
0.0352301
0.0329854
0.0324599
0.0322247
0.0321056
0.0321132
0.0322468
0.0324936
0.0330262
0.03528
0.0349818
0.0327372
0.0322119
0.031977
0.0318583
0.0318666
0.0320008
0.0322484
0.0327818
0.0350363
0.0348477
0.0326031
0.0320778
0.0318432
0.031725
0.0317338
0.0318689
0.0321173
0.0326516
0.0349073
0.0348398
0.0325951
0.0320698
0.0318354
0.0317176
0.031727
0.0318629
0.0321122
0.0326475
0.0349041
0.0349589
0.032714
0.0321887
0.0319544
0.0318368
0.0318468
0.0319834
0.0322336
0.0327696
0.0350271
0.035194
0.0329488
0.0324234
0.032189
0.0320717
0.0320821
0.0322192
0.0324701
0.0330069
0.0352654
0.035719
0.0334724
0.032947
0.0327126
0.0325953
0.0326059
0.0327434
0.0329949
0.0335321
0.0357924
0.037961
0.0357156
0.0351889
0.0349543
0.0348372
0.0348481
0.034986
0.0352383
0.0357772
0.0380354
0.0350682
0.0336537
0.0336702
0.0334383
0.0333174
0.0333253
0.0334613
0.0337051
0.0336928
0.035122
0.0336384
0.0322232
0.0322429
0.0320105
0.0318896
0.0318978
0.0320342
0.0322791
0.032264
0.033694
0.0336451
0.032233
0.0322518
0.0320196
0.0318989
0.0319075
0.0320445
0.03229
0.0322765
0.0337038
0.0333993
0.0319866
0.0320055
0.0317737
0.0316535
0.0316626
0.0318004
0.0320466
0.032034
0.0334623
0.0332623
0.0318494
0.0318683
0.0316368
0.0315169
0.0315265
0.0316652
0.0319124
0.0319006
0.0333297
0.033254
0.0318409
0.0318597
0.0316283
0.0315087
0.0315189
0.0316583
0.0319064
0.0318955
0.033325
0.0333752
0.0319619
0.0319807
0.0317493
0.0316299
0.0316405
0.0317805
0.0320296
0.0320193
0.033449
0.0336074
0.0321944
0.0322129
0.0319814
0.0318621
0.0318731
0.0320136
0.0322635
0.0322538
0.0336834
0.0335883
0.0321718
0.0321911
0.0319594
0.0318402
0.0318513
0.0319922
0.0322426
0.0322323
0.0336651
0.035003
0.0335867
0.0336025
0.0333712
0.0332519
0.0332629
0.0334037
0.0336538
0.0336467
0.0350784
0.0325888
0.0317699
0.032111
0.0318962
0.0318329
0.0318429
0.0319253
0.0321558
0.0318182
0.0326584
0.0317504
0.0309344
0.0312808
0.0310643
0.0310013
0.0310115
0.031094
0.0313269
0.0309844
0.0318222
0.0320809
0.0312702
0.0316147
0.0313987
0.0313358
0.0313465
0.0314299
0.0316635
0.0313241
0.0321571
0.0318495
0.0310371
0.031382
0.0311666
0.0311042
0.0311156
0.0312
0.0314348
0.0310963
0.0319317
0.0317672
0.0309546
0.0312993
0.0310842
0.0310221
0.0310341
0.0311195
0.0313557
0.0310186
0.0318544
0.031758
0.0309451
0.0312896
0.0310746
0.0310127
0.0310252
0.0311115
0.0313489
0.0310128
0.0318489
0.0318231
0.0310095
0.0313539
0.0311389
0.0310772
0.03109
0.0311769
0.0314154
0.03108
0.0319163
0.0320405
0.031228
0.031572
0.0313567
0.0312951
0.0313082
0.0313957
0.0316354
0.031301
0.0321357
0.0316972
0.0308788
0.0312244
0.0310087
0.0309471
0.0309603
0.031048
0.0312886
0.0309526
0.0317922
0.0325189
0.0316969
0.0320366
0.0318219
0.0317596
0.0317723
0.0318599
0.0320988
0.0317676
0.0326089
0.0312992
0.0307095
0.0310732
0.0308466
0.0308551
0.0308685
0.0308847
0.031132
0.0307702
0.0313881
0.0306833
0.0300993
0.0304688
0.0302396
0.0302489
0.0302623
0.030278
0.0305292
0.0301626
0.0307758
0.0310342
0.0304559
0.0308226
0.0305943
0.0306037
0.0306177
0.0306348
0.030887
0.0305255
0.0311339
0.0307865
0.0302053
0.0305728
0.030345
0.0303548
0.0303698
0.0303883
0.0306426
0.0302826
0.0308951
0.0307706
0.0301897
0.0305568
0.0303291
0.030339
0.0303545
0.0303743
0.0306308
0.0302731
0.0308853
0.0307597
0.030178
0.0305447
0.0303169
0.0303268
0.0303427
0.0303635
0.0306218
0.0302656
0.0308778
0.0307548
0.0301711
0.0305376
0.0303096
0.0303194
0.0303354
0.0303567
0.0306163
0.0302608
0.0308735
0.030987
0.0304052
0.0307705
0.0305422
0.0305519
0.0305681
0.0305898
0.0308508
0.0304971
0.0311065
0.030622
0.030033
0.030401
0.0301715
0.0301811
0.0301972
0.030219
0.0304816
0.0301253
0.0307397
0.0312172
0.0306212
0.030982
0.0307542
0.0307615
0.0307765
0.0307983
0.0310577
0.0307063
0.0313231
0.030408
0.0299281
0.0302384
0.0299988
0.0300572
0.0300752
0.0300493
0.0303151
0.0300028
0.0305147
0.0298935
0.0294214
0.029737
0.0294936
0.0295534
0.0295715
0.0295446
0.0298162
0.0295006
0.0300085
0.0301871
0.0297202
0.0300319
0.0297899
0.0298496
0.0298686
0.0298438
0.0301173
0.0298098
0.0303151
0.0299192
0.0294482
0.029761
0.0295192
0.0295792
0.0295992
0.0295765
0.0298538
0.0295495
0.0300615
0.0299452
0.0294748
0.0297867
0.0295446
0.0296042
0.0296247
0.0296036
0.0298845
0.0295845
0.030096
0.0299317
0.0294598
0.029771
0.0295284
0.0295875
0.0296081
0.029588
0.0298717
0.0295743
0.0300858
0.0298791
0.0294038
0.0297145
0.0294712
0.0295295
0.0295497
0.0295299
0.0298154
0.0295188
0.0300311
0.0301281
0.029655
0.0299638
0.0297199
0.0297776
0.0297977
0.0297781
0.030065
0.0297709
0.030278
0.0298176
0.029337
0.0296491
0.0294033
0.0294608
0.0294805
0.0294607
0.0297499
0.0294527
0.029963
0.0303062
0.0298159
0.0301204
0.0298763
0.0299297
0.0299473
0.0299274
0.0302118
0.0299181
0.0304302
0.0294348
0.0290666
0.029353
0.0291254
0.0292168
0.0292416
0.0291934
0.0294531
0.0291547
0.0295508
0.0290214
0.0286632
0.0289543
0.0287221
0.0288153
0.0288403
0.0287909
0.0290587
0.0287609
0.029156
0.0292857
0.028932
0.0292186
0.028988
0.0290808
0.0291071
0.0290611
0.0293328
0.0290476
0.0294458
0.0290199
0.0286612
0.0289489
0.0287178
0.0288107
0.0288382
0.0287952
0.0290739
0.0287959
0.0292058
0.0290679
0.0287097
0.0289957
0.0287638
0.0288557
0.0288833
0.0288426
0.0291273
0.028857
0.0292688
0.029051
0.0286906
0.0289753
0.0287422
0.0288326
0.0288599
0.0288202
0.0291094
0.0288435
0.0292558
0.0289689
0.0286034
0.0288872
0.0286524
0.028741
0.028767
0.0287271
0.0290187
0.0287544
0.029167
0.0292109
0.0288474
0.0291284
0.0288926
0.0289796
0.0290047
0.0289646
0.0292578
0.0289967
0.029402
0.0289257
0.0285544
0.028839
0.0286004
0.0286869
0.0287112
0.0286704
0.0289668
0.0287022
0.0291096
0.0293073
0.0289226
0.0291992
0.0289618
0.0290423
0.0290631
0.0290217
0.0293118
0.0290498
0.0294562
0.0283997
0.0281376
0.0284151
0.0282166
0.0283347
0.0283697
0.0283109
0.0285483
0.0282385
0.0285025
0.0280793
0.0278295
0.0281108
0.0279072
0.0280273
0.0280626
0.0280029
0.028251
0.0279479
0.0282174
0.0283273
0.0280811
0.0283574
0.0281556
0.0282749
0.0283121
0.0282576
0.0285132
0.0282308
0.0285168
0.0280773
0.0278254
0.0281027
0.0278996
0.0280184
0.0280568
0.0280067
0.0282746
0.0280084
0.0283197
0.0281368
0.0278849
0.0281594
0.0279546
0.0280712
0.0281091
0.0280618
0.02834
0.0280895
0.0284091
0.028116
0.0278607
0.0281332
0.027926
0.0280397
0.028076
0.0280295
0.0283145
0.0280717
0.028394
0.0280132
0.0277511
0.028022
0.0278116
0.0279217
0.0279551
0.0279071
0.0281958
0.0279549
0.0282787
0.0282331
0.0279721
0.028239
0.0280268
0.0281338
0.0281648
0.0281158
0.0284061
0.0281692
0.0284847
0.0279596
0.0276903
0.0279608
0.0277448
0.0278506
0.0278804
0.0278301
0.0281242
0.0278856
0.0281992
0.0282413
0.027955
0.0282168
0.0280008
0.0280984
0.0281228
0.0280705
0.0283576
0.0281201
0.0284314
0.0274032
0.0272232
0.0274846
0.0273194
0.0274611
0.027512
0.0274549
0.0276691
0.0273416
0.0274377
0.0271486
0.0269828
0.0272468
0.0270763
0.0272199
0.0272711
0.0272136
0.0274408
0.0271241
0.0272399
0.0273709
0.0272074
0.027466
0.0272972
0.0274396
0.0274933
0.0274435
0.0276844
0.0274042
0.027571
0.0271367
0.0269669
0.027226
0.0270547
0.0271956
0.0272501
0.0272061
0.0274689
0.0272262
0.0274576
0.0271993
0.0270284
0.0272834
0.0271089
0.0272455
0.0272978
0.0272568
0.0275367
0.0273229
0.0275822
0.0271741
0.0269984
0.0272501
0.0270715
0.0272026
0.0272507
0.0272087
0.0274981
0.0272968
0.0275604
0.027058
0.0268734
0.0271225
0.0269386
0.0270631
0.0271051
0.0270589
0.0273523
0.0271564
0.0274207
0.0272549
0.0270701
0.0273138
0.0271266
0.0272455
0.0272826
0.0272328
0.0275274
0.0273378
0.0275917
0.0270022
0.0268087
0.0270556
0.0268634
0.0269802
0.0270149
0.0269624
0.0272625
0.0270721
0.027328
0.0272106
0.0269962
0.0272339
0.0270396
0.0271455
0.0271723
0.0271161
0.0274075
0.0272244
0.0274616
0.026451
0.026334
0.0265753
0.0264461
0.0266115
0.026687
0.0266476
0.0268494
0.0264912
0.0263207
0.0262396
0.0261381
0.0263803
0.0262455
0.026412
0.0264879
0.0264482
0.0266612
0.0263158
0.026156
0.0264291
0.0263283
0.0265647
0.0264311
0.0265959
0.0266747
0.0266458
0.0268806
0.0265994
0.0265695
0.0262081
0.0261001
0.0263361
0.0261984
0.0263598
0.0264381
0.0264161
0.0266863
0.0264882
0.02665
0.0262663
0.0261555
0.0263857
0.0262426
0.0263962
0.0264686
0.026447
0.0267414
0.0266009
0.0268473
0.0262364
0.0261189
0.0263441
0.026194
0.0263378
0.0264006
0.0263721
0.0266768
0.0265498
0.0267954
0.0261131
0.0259845
0.0262055
0.0260469
0.0261795
0.0262305
0.0261913
0.026499
0.0263744
0.0266295
0.026289
0.0261581
0.0263719
0.0262079
0.026331
0.0263722
0.0263243
0.0266306
0.0265145
0.0267716
0.0260639
0.0259239
0.0261402
0.0259697
0.0260892
0.0261261
0.0260733
0.0263846
0.0262825
0.0265326
0.026221
0.0260568
0.0262632
0.0260881
0.0261934
0.0262195
0.0261593
0.0264637
0.0263697
0.0265783
0.0255046
0.0254423
0.0256684
0.025582
0.0257763
0.0258909
0.0258931
0.0261027
0.0257488
0.0250313
0.0253244
0.0252785
0.0255038
0.0254113
0.0256054
0.0257197
0.0257207
0.0259362
0.0255688
0.0247687
0.0254829
0.0254359
0.025655
0.0255629
0.0257541
0.0258717
0.0258856
0.0261323
0.0258732
0.0254122
0.0252751
0.0252201
0.0254374
0.0253387
0.0255235
0.0256375
0.025657
0.0259545
0.0258812
0.0259903
0.0253245
0.0252644
0.0254737
0.0253663
0.0255378
0.0256385
0.0256486
0.0259721
0.0259983
0.026313
0.0252897
0.0252205
0.0254225
0.0253042
0.0254591
0.0255401
0.0255291
0.0258535
0.0258799
0.0261412
0.0251633
0.0250804
0.0252758
0.0251446
0.0252815
0.0253406
0.0253061
0.0256242
0.0256474
0.0259447
0.0253178
0.0252299
0.0254161
0.0252762
0.0253977
0.0254393
0.0253854
0.0256947
0.0257357
0.0260448
0.0251184
0.0250211
0.0252088
0.0250605
0.025176
0.0252105
0.0251462
0.0254606
0.0255345
0.0258598
0.0252368
0.0251114
0.0252882
0.025132
0.0252297
0.0252496
0.0251745
0.0254752
0.0255688
0.0257357
0.024543
0.0245325
0.0247519
0.0247164
0.0249484
0.0251208
0.0251991
0.0254471
0.0252003
0.0240081
0.0243877
0.0243944
0.0246109
0.0245689
0.0247985
0.0249686
0.0250428
0.0252777
0.0249781
0.023466
0.0245196
0.0245234
0.0247334
0.0246904
0.0249155
0.025088
0.0251767
0.0254441
0.0252731
0.0244521
0.0243258
0.0243206
0.0245268
0.0244741
0.0246882
0.0248525
0.0249419
0.0252672
0.0253781
0.0258324
0.0243641
0.0243511
0.0245466
0.0244806
0.0246737
0.0248128
0.0248706
0.0252023
0.0254173
0.0260658
0.0243244
0.0242996
0.0244847
0.0244024
0.0245693
0.0246722
0.0246792
0.0249838
0.0251399
0.0255087
0.0241968
0.0241552
0.0243308
0.0242299
0.0243694
0.0244348
0.0243948
0.024677
0.0247862
0.0252777
0.0243286
0.024279
0.0244429
0.0243289
0.0244451
0.0244813
0.0244033
0.0246539
0.0247561
0.0252769
0.024151
0.0240911
0.0242551
0.0241305
0.0242376
0.0242625
0.0241661
0.0244007
0.0245784
0.02518
0.0242366
0.0241455
0.0242977
0.0241614
0.0242467
0.0242543
0.0241428
0.0243568
0.0246081
0.0250652
0.0235586
0.0235978
0.0238168
0.0238395
0.024121
0.0243745
0.0245951
0.0250085
0.0251773
0.0252965
0.0234236
0.0234808
0.0236952
0.023711
0.0239873
0.0242346
0.0244472
0.0248375
0.0249691
0.025081
0.0235326
0.0235853
0.0237929
0.023806
0.0240749
0.0243211
0.0245429
0.0249344
0.0250536
0.0257139
0.0233527
0.0233956
0.0235972
0.0235968
0.0238485
0.024078
0.0242793
0.0246641
0.0248097
0.0260183
0.0233792
0.0234115
0.0235996
0.0235806
0.0238015
0.0239895
0.0241177
0.0244266
0.0245285
0.0252005
0.0233353
0.0233529
0.0235273
0.0234854
0.0236686
0.023798
0.0238247
0.0240497
0.02403
0.0239955
0.0232081
0.0232058
0.0233673
0.0233003
0.0234447
0.0235159
0.0234551
0.0236307
0.0234668
0.0233476
0.0233183
0.0233046
0.0234515
0.023366
0.0234773
0.023503
0.0233751
0.0234726
0.0232237
0.0231625
0.0231594
0.023135
0.0232804
0.0231818
0.0232792
0.0232874
0.0231295
0.023166
0.0229829
0.0232904
0.023219
0.0231597
0.0232919
0.0231774
0.0232484
0.0232366
0.0230687
0.0230795
0.0230862
0.0239734
0.0225486
0.022635
0.0228586
0.0229455
0.0232895
0.0236396
0.0240417
0.0247351
0.0251642
0.0260384
0.0224305
0.0225361
0.0227536
0.0228338
0.0231699
0.0235102
0.0239056
0.0245813
0.0250168
0.0263075
0.0225192
0.0226192
0.0228296
0.0229053
0.02323
0.0235628
0.0239564
0.0245902
0.0247993
0.0258915
0.0223527
0.0224422
0.0226446
0.0227029
0.0230029
0.0233084
0.0236552
0.0241864
0.0241893
0.0252011
0.0223677
0.0224441
0.0226304
0.0226647
0.0229239
0.0231736
0.023405
0.0237587
0.0236426
0.0237953
0.0223206
0.0223798
0.0225491
0.0225536
0.0227626
0.0229327
0.0229976
0.0231767
0.022917
0.0219204
0.0221952
0.0222317
0.0223846
0.0223568
0.0225154
0.0226052
0.0225206
0.0225917
0.022113
0.0205631
0.0222853
0.0223072
0.0224425
0.0223902
0.022505
0.0225299
0.0223401
0.0222734
0.0215664
0.0200071
0.022144
0.0221543
0.0222863
0.0222182
0.0223132
0.0223108
0.0220832
0.0219001
0.0210862
0.0199952
0.0221816
0.0221548
0.0222726
0.0221847
0.0222482
0.0222213
0.0219936
0.0217709
0.0210875
0.0207867
0.0215002
0.0216299
0.0218592
0.0220098
0.0224215
0.0228704
0.0234282
0.0244422
0.0252279
0.0266045
0.021397
0.0215475
0.0217701
0.0219156
0.0223199
0.02276
0.0233249
0.024349
0.0252146
0.0272498
0.0214684
0.0216128
0.0218286
0.021969
0.0223599
0.0227883
0.0233546
0.0243173
0.024873
0.0263813
0.021315
0.0214493
0.0216557
0.021777
0.0221384
0.0225351
0.0230559
0.0238689
0.0240799
0.0252709
0.0213201
0.0214398
0.0216291
0.0217234
0.0220375
0.0223746
0.0227658
0.0233167
0.0233131
0.0233389
0.0212717
0.0213727
0.0215429
0.0216019
0.0218555
0.0221021
0.0222696
0.0225172
0.022371
0.0208446
0.0211501
0.0212264
0.0213775
0.0213981
0.0215909
0.0217429
0.0216943
0.0217352
0.0213617
0.0189721
0.0212234
0.0212823
0.0214133
0.0214039
0.0215428
0.0216116
0.0214152
0.0212634
0.0205123
0.0181266
0.0210983
0.0211457
0.021272
0.0212441
0.0213563
0.021382
0.0211325
0.0208276
0.0197603
0.0179014
0.0211201
0.0211276
0.0212386
0.0211866
0.0212605
0.0212485
0.020996
0.0206297
0.0195132
0.0182192
0.0204039
0.0205712
0.0208054
0.0210151
0.0214958
0.0220525
0.0227388
0.0240439
0.0253563
0.0270952
0.0203149
0.0205051
0.0207326
0.0209409
0.0214191
0.0219756
0.0227008
0.0240688
0.0255842
0.0280395
0.020372
0.0205563
0.0207778
0.0209819
0.0214482
0.0219941
0.0227471
0.0241223
0.0255025
0.028151
0.0202319
0.0204072
0.0206191
0.020805
0.0212412
0.0217563
0.0224969
0.0237841
0.0248601
0.0274951
0.0202294
0.0203902
0.0205854
0.0207444
0.0211305
0.0215901
0.0222149
0.0231977
0.0239671
0.0251782
0.0201819
0.0203237
0.0204991
0.0206199
0.0209375
0.0213064
0.0216823
0.0222119
0.0227979
0.0224958
0.0200662
0.0201825
0.0203375
0.0204157
0.0206643
0.0209366
0.0210551
0.0212409
0.0215485
0.0205165
0.020125
0.0202222
0.0203557
0.0203992
0.020586
0.0207628
0.0206934
0.0206239
0.0203495
0.018867
0.0200159
0.0201014
0.0202288
0.0202514
0.0204058
0.0205226
0.0203744
0.0201383
0.0192837
0.0176994
0.0200243
0.0200692
0.0201807
0.0201758
0.0202856
0.0203447
0.020175
0.0198563
0.0187386
0.0170969
0.0192461
0.0194412
0.0196738
0.0199278
0.0204599
0.0211159
0.0218882
0.0233286
0.0251068
0.0268239
0.0191706
0.0193909
0.0196178
0.0198756
0.0204145
0.0210876
0.0219513
0.0235294
0.0256706
0.0284334
0.0192162
0.0194314
0.0196534
0.0199099
0.0204446
0.0211182
0.0220671
0.023848
0.026302
0.0311844
0.0190896
0.0192979
0.0195109
0.0197533
0.0202641
0.0209159
0.0219129
0.0238036
0.0263008
0.0322223
0.0190823
0.0192773
0.0194756
0.0196949
0.0201584
0.0207623
0.0216834
0.0232824
0.0253948
0.0296571
0.0190382
0.0192155
0.019395
0.0195769
0.0199669
0.0204861
0.0211712
0.0221693
0.0238036
0.0265695
0.0189306
0.0190832
0.019243
0.0193818
0.0196978
0.0201276
0.0205447
0.0210421
0.0220459
0.0240219
0.0189792
0.019112
0.0192505
0.0193527
0.0196028
0.0199339
0.0201267
0.020295
0.0205129
0.0210109
0.0188856
0.0190084
0.0191408
0.0192212
0.0194372
0.019698
0.0197824
0.0197913
0.0193429
0.018548
0.0188865
0.0189679
0.0190845
0.0191352
0.0193034
0.0194895
0.0195265
0.0194704
0.0187094
0.0171701
0.0180206
0.0182289
0.0184478
0.0187221
0.0192683
0.0199899
0.0208079
0.0222058
0.024382
0.0261637
0.0179583
0.0181939
0.0184084
0.0186924
0.0192571
0.0200114
0.0209713
0.0225625
0.0251332
0.0284768
0.0179947
0.0182264
0.0184374
0.0187242
0.0192972
0.020069
0.0211736
0.0232018
0.0265999
0.0344005
0.0178819
0.0181089
0.018312
0.01859
0.0191507
0.0199145
0.0211285
0.0235335
0.0276376
0.0385852
0.0178725
0.0180884
0.0182792
0.0185398
0.0190585
0.0197782
0.020954
0.0231415
0.0268391
0.0365281
0.0178344
0.0180347
0.0182084
0.0184346
0.0188757
0.0195076
0.0204689
0.0219485
0.0244513
0.0313058
0.0177373
0.017915
0.0180714
0.0182568
0.0186208
0.0191705
0.0198762
0.0207306
0.0218894
0.0265915
0.0177786
0.0179376
0.0180749
0.0182249
0.0185233
0.0189848
0.0194625
0.0199455
0.0203248
0.0226125
0.0177015
0.0178523
0.0179848
0.0181153
0.018385
0.0187875
0.0191614
0.0195581
0.0196421
0.0200378
0.0176969
0.0178082
0.0179275
0.0180305
0.0182596
0.0185925
0.0189306
0.019355
0.0194102
0.0186763
0.0167225
0.016924
0.0171105
0.0173706
0.0178703
0.0185808
0.0193899
0.0205591
0.0230586
0.0257717
0.0166721
0.0169023
0.017085
0.0173579
0.0178823
0.0186204
0.0195678
0.0208882
0.0234575
0.0275038
0.016701
0.016928
0.0171079
0.0173856
0.0179287
0.0186915
0.019789
0.0216584
0.025254
0.0351903
0.0166014
0.0168256
0.016998
0.0172708
0.0178139
0.0185818
0.0198163
0.0222671
0.0272605
0.0429778
0.0165921
0.0168073
0.0169697
0.0172302
0.0177394
0.018465
0.0196874
0.0220513
0.0266056
0.041997
0.0165615
0.0167637
0.0169111
0.0171416
0.0175724
0.0182033
0.0192397
0.0209351
0.0236038
0.0342911
0.016477
0.0166596
0.0167936
0.0169896
0.0173455
0.017907
0.0187335
0.0198317
0.0206313
0.0264224
0.0165153
0.0166817
0.0168014
0.0169689
0.017269
0.0177782
0.0184502
0.0192631
0.0196735
0.0231823
0.0164555
0.0166179
0.0167375
0.0168942
0.0171834
0.0176782
0.0183304
0.0192141
0.0201549
0.0230434
0.0164517
0.0165776
0.0166899
0.0168285
0.0170995
0.0175651
0.0182421
0.0193171
0.0208558
0.0232264
0.0153554
0.0155253
0.0156558
0.0158577
0.0162315
0.0168076
0.0175587
0.0182931
0.0207923
0.0283445
0.0153157
0.0155145
0.01564
0.0158528
0.0162486
0.0168225
0.017629
0.0183557
0.0202874
0.0274412
0.0153386
0.0155345
0.015657
0.0158724
0.01629
0.0168814
0.0177535
0.0188956
0.0212892
0.0334097
0.0152523
0.0154465
0.0155615
0.0157731
0.0162001
0.0168044
0.0177647
0.0194324
0.0231538
0.041977
0.0152455
0.015433
0.0155404
0.0157444
0.016149
0.0167139
0.0176503
0.019322
0.022529
0.0414762
0.0152246
0.0154019
0.0154974
0.0156782
0.0160113
0.0164827
0.0172639
0.0185309
0.0199811
0.0333561
0.015155
0.0153169
0.0154051
0.0155632
0.0158331
0.0162593
0.016923
0.0178892
0.0180038
0.0259597
0.0151936
0.0153435
0.0154255
0.015569
0.0158037
0.016233
0.0169079
0.0178661
0.0183872
0.0266092
0.0151526
0.0153034
0.0153928
0.0155401
0.0157912
0.0162686
0.0170699
0.0183351
0.0201629
0.0309573
0.0151518
0.015272
0.0153635
0.0155083
0.0157758
0.0162866
0.0172355
0.0188721
0.022102
0.0343581
0.0139328
0.0140477
0.0141033
0.0142099
0.0143972
0.0146931
0.015312
0.0158349
0.0163421
0.0303237
0.0139016
0.014044
0.0140915
0.0142006
0.0143961
0.0146459
0.0151889
0.0155072
0.0151974
0.0287576
0.0139188
0.0140575
0.0140996
0.0142025
0.0144066
0.014644
0.0150743
0.0153311
0.0141635
0.0283399
0.0138448
0.0139818
0.0140156
0.0141097
0.0143184
0.0145555
0.0149146
0.0151708
0.0136728
0.0293108
0.0138419
0.0139744
0.0140029
0.0140916
0.0142861
0.0144906
0.0147676
0.0149858
0.0128536
0.028034
0.0138317
0.013957
0.0139775
0.0140522
0.0141917
0.0143303
0.0145279
0.0148287
0.0126194
0.025746
0.0137786
0.0138935
0.0139145
0.0139838
0.0140848
0.0142249
0.0144788
0.0150951
0.0135405
0.025873
0.0138211
0.0139294
0.0139543
0.014029
0.0141262
0.0143283
0.0148093
0.0159073
0.0155455
0.0312052
0.0137998
0.013916
0.0139579
0.014055
0.014201
0.0145041
0.0152573
0.016906
0.0177996
0.0378119
0.0138081
0.0139003
0.0139561
0.0140709
0.0142738
0.0146783
0.0157016
0.0178191
0.0199606
0.0419482
0.0238018
0.0279397
0.0285194
0.0263619
0.0241939
0.0231901
0.0231363
0.0234415
0.0241541
0.0238482
0.0231064
0.0274952
0.0275454
0.0253175
0.0234671
0.0227257
0.0227198
0.0229845
0.0240478
0.024044
0.0239081
0.0262537
0.0252085
0.0234188
0.0224462
0.0223754
0.0226271
0.0228345
0.0237665
0.0229859
0.0248802
0.0257182
0.0241988
0.0224181
0.0214713
0.0214803
0.0220989
0.0225479
0.0233395
0.021528
0.0249375
0.0257786
0.024689
0.0231064
0.0215946
0.0208804
0.0213312
0.0220015
0.0228459
0.0210801
0.0243677
0.0258502
0.0250946
0.0239897
0.0225399
0.0213178
0.0211609
0.0216167
0.022359
0.0211468
0.0238913
0.0254036
0.0247353
0.0243251
0.023412
0.0222719
0.0216988
0.0217406
0.0221722
0.0212033
0.023179
0.0246795
0.0245634
0.0246163
0.0241981
0.0232266
0.0223111
0.0218481
0.0220581
0.0213981
0.0227497
0.0234431
0.0236525
0.0239113
0.0238743
0.0232115
0.0222773
0.0216139
0.0217649
0.0215099
0.0234942
0.0234909
0.0230835
0.0230714
0.0229396
0.0223819
0.0217217
0.0212297
0.0213103
0.020483
0.0244967
0.0261149
0.0256117
0.0238495
0.0226615
0.0222295
0.0223669
0.0229378
0.0240096
0.0253044
0.0243568
0.0246631
0.0233211
0.0218215
0.0212623
0.0214198
0.0217612
0.0221075
0.0233793
0.0250768
0.0249526
0.0233473
0.0217823
0.0205813
0.0202953
0.0208804
0.0215746
0.0220289
0.0231732
0.0247118
0.0247795
0.0233887
0.021568
0.020058
0.0194232
0.0195695
0.0204916
0.0213663
0.0227118
0.0239283
0.0239997
0.0237118
0.0225047
0.0211048
0.0198926
0.0192034
0.0195671
0.0204834
0.0219423
0.0228939
0.0227639
0.0233311
0.0229256
0.0221209
0.0209864
0.0198526
0.0195276
0.0199798
0.0213117
0.0222202
0.0218681
0.0223796
0.0225091
0.0222367
0.0213951
0.0203637
0.0197991
0.020219
0.0212361
0.0216693
0.0208394
0.0209207
0.0216076
0.0219854
0.0216084
0.020824
0.0202826
0.0206586
0.0213985
0.0214679
0.0203413
0.0198176
0.0203845
0.0209542
0.0211368
0.0208414
0.0204337
0.0205479
0.0212251
0.0215287
0.0220831
0.0211089
0.0207723
0.0209497
0.0209744
0.0207397
0.0206217
0.0207603
0.0212408
0.0217533
0.0255266
0.0244901
0.0226778
0.0215522
0.0212859
0.0213119
0.0215934
0.0220937
0.0230204
0.023916
0.0262722
0.022949
0.0202788
0.019489
0.0197288
0.0204184
0.0210979
0.0215005
0.0225394
0.0240458
0.0250402
0.0217171
0.0198508
0.0190815
0.0190708
0.0197779
0.020695
0.0212402
0.022266
0.0240111
0.0237482
0.0220793
0.0200531
0.0190575
0.0187995
0.0190398
0.01976
0.0204723
0.021717
0.0232622
0.0224351
0.022323
0.0211039
0.0201644
0.0195136
0.0190809
0.0192224
0.0196458
0.0208113
0.021939
0.0202003
0.0211933
0.0212865
0.0212394
0.0206135
0.0196646
0.0191188
0.0190329
0.0200571
0.0208659
0.0183368
0.0194252
0.0203067
0.0208729
0.0206589
0.0199358
0.0191502
0.0190406
0.0200006
0.0202339
0.0171033
0.0175193
0.0188978
0.02004
0.020347
0.020029
0.0195087
0.0197775
0.0205547
0.0200657
0.0170532
0.0168081
0.0175835
0.018787
0.0196451
0.0198527
0.0196791
0.019876
0.0205884
0.0201968
0.0195266
0.0187243
0.0186296
0.0193047
0.0197712
0.0199463
0.0200361
0.0202655
0.0207657
0.0207431
0.0275659
0.0236771
0.0207965
0.0201311
0.0203296
0.0206051
0.0209626
0.0211834
0.0215051
0.0217551
0.027871
0.0218744
0.0186778
0.0183285
0.0188469
0.0196633
0.0205243
0.0210234
0.0215962
0.0226412
0.0250777
0.0209067
0.0186351
0.0180353
0.0181901
0.0190937
0.0201066
0.020611
0.0213429
0.0226204
0.0237168
0.0216
0.0192075
0.0184326
0.0183437
0.0187605
0.0193045
0.0197296
0.0205713
0.0214432
0.021956
0.0218079
0.0204417
0.0197208
0.0192366
0.018823
0.0187753
0.0189104
0.0195789
0.019996
0.0186488
0.0199589
0.0203739
0.0206394
0.020131
0.019165
0.0185436
0.0183236
0.0188139
0.0187569
0.0158175
0.0174606
0.0187814
0.0198497
0.0200886
0.0195788
0.0187495
0.0182267
0.0186935
0.0181852
0.0146427
0.0155071
0.0170119
0.0185756
0.0195086
0.0196049
0.0191678
0.0190127
0.0193896
0.0182518
0.0150401
0.0150644
0.0157989
0.017285
0.018699
0.0191644
0.0190546
0.0191054
0.0195349
0.0184406
0.0173936
0.0172118
0.017253
0.0180213
0.0189391
0.0194404
0.0194447
0.0194618
0.019668
0.0188095
0.0287958
0.0229295
0.019833
0.0194391
0.0197188
0.020153
0.0205747
0.0204738
0.0205971
0.0206225
0.0271316
0.0201863
0.0178953
0.0178526
0.0183151
0.0191252
0.0201318
0.0204325
0.0209755
0.0217344
0.0247203
0.01976
0.017721
0.0173071
0.0176961
0.0187846
0.0198695
0.0202569
0.0207102
0.0214681
0.0245187
0.0213214
0.0187639
0.0179034
0.0180836
0.0186398
0.0189507
0.0191313
0.0195249
0.019929
0.0231574
0.0220779
0.0203967
0.0196374
0.0188259
0.0181216
0.01786
0.0181124
0.0184283
0.0184125
0.0195172
0.019923
0.0199526
0.0198731
0.0189707
0.0178431
0.0172172
0.0173357
0.0175961
0.0170343
0.0160136
0.0169375
0.0179304
0.0186062
0.0187693
0.0183269
0.0175538
0.0171665
0.0173812
0.0165062
0.0146533
0.0150654
0.0158949
0.0170893
0.0179684
0.0183033
0.0182029
0.0179438
0.0181302
0.0169016
0.014911
0.0147733
0.014884
0.0161561
0.0175591
0.0178544
0.017922
0.0180549
0.0183988
0.0171598
0.0163134
0.016342
0.016271
0.0168954
0.0178825
0.018074
0.0180439
0.0182024
0.0184476
0.0173782
0.0278364
0.0217378
0.0190809
0.018841
0.0192785
0.0199187
0.0200676
0.0195262
0.0197491
0.0191556
0.0246409
0.0187367
0.0173051
0.0174251
0.0180613
0.019037
0.0197269
0.0194604
0.0201045
0.0203239
0.0239829
0.0187548
0.0169395
0.0167543
0.0176365
0.0188645
0.0195782
0.0194277
0.0195397
0.0194632
0.0261092
0.0215495
0.0185449
0.0174525
0.0180708
0.0187205
0.0185823
0.0184187
0.0181349
0.0179894
0.0260174
0.0231336
0.0207386
0.0196408
0.0184209
0.0174159
0.0171558
0.0173028
0.0170892
0.0167528
0.0229577
0.0210714
0.0197556
0.0187521
0.0172377
0.0160154
0.0154512
0.0158184
0.0161435
0.0154845
0.0186109
0.0176924
0.0174037
0.0169246
0.0167585
0.016433
0.0158528
0.015783
0.01623
0.0151873
0.0161929
0.015687
0.0151509
0.0153974
0.0159244
0.0163455
0.0166423
0.0166239
0.0170287
0.0158169
0.0158229
0.015386
0.0144177
0.015084
0.0163836
0.0164781
0.0166544
0.0169361
0.0174431
0.01612
0.0161845
0.0161452
0.0156913
0.0159796
0.0169406
0.01704
0.0169072
0.0171284
0.0175109
0.0162873
0.025899
0.0204884
0.0183318
0.0181643
0.0187632
0.0194482
0.0187902
0.0171297
0.0162362
0.0135618
0.0225241
0.0177793
0.0165864
0.0168714
0.0177238
0.0186478
0.0185506
0.0169007
0.0162351
0.0143518
0.023663
0.0182668
0.0162191
0.0162332
0.0174402
0.0181467
0.0177374
0.0164963
0.015596
0.0139597
0.0279974
0.0221057
0.0184089
0.0169652
0.0175298
0.0177408
0.017195
0.0164636
0.0153121
0.0142392
0.0287022
0.0240071
0.0209112
0.0192511
0.0175324
0.0163804
0.0163542
0.0162653
0.0152701
0.014073
0.0261328
0.0219797
0.0193524
0.0174336
0.0156265
0.0147553
0.0146501
0.0149315
0.0151341
0.0136252
0.0208085
0.0183996
0.0167557
0.0153838
0.0148613
0.01494
0.014838
0.0148243
0.0155483
0.0140191
0.01717
0.0161878
0.0145109
0.0141623
0.0145273
0.0149745
0.015556
0.0158454
0.0162809
0.0148221
0.0165633
0.0161502
0.0143033
0.014328
0.0159946
0.0160655
0.0161298
0.0163976
0.0168553
0.0151353
0.0167826
0.0168242
0.0158744
0.0156819
0.017131
0.0174045
0.0169246
0.0168929
0.017078
0.0153525
0.0236875
0.0190813
0.0173129
0.0174603
0.0184973
0.0195128
0.018169
0.013629
0.00849219
0.00278877
0.0200025
0.0164542
0.0155936
0.0160755
0.0172727
0.0185594
0.0176475
0.0128054
0.00720956
0.00178925
0.0223732
0.0175002
0.0154398
0.0153686
0.0165135
0.0167434
0.0148491
0.0109972
0.00804943
0.00393661
0.0283764
0.021889
0.0179773
0.0159414
0.0156373
0.0156154
0.0144717
0.0119656
0.0107374
0.00846947
0.0289733
0.0237263
0.0201733
0.0178221
0.0160261
0.0152496
0.015007
0.0133979
0.0119407
0.00971186
0.0255757
0.0208829
0.0183402
0.0162072
0.0148162
0.0147958
0.0151413
0.0145827
0.0130771
0.0100389
0.0197617
0.0173313
0.0162502
0.0154006
0.0142906
0.0146534
0.015015
0.0153615
0.0148953
0.0118042
0.016733
0.0160761
0.0150062
0.0154777
0.0153495
0.0150997
0.0156316
0.0162764
0.0164435
0.0141739
0.017978
0.0175318
0.0159611
0.0164985
0.0179843
0.0171978
0.0164353
0.016645
0.0169327
0.0148679
0.0198106
0.0191568
0.0177039
0.0182113
0.0204178
0.0199934
0.0179121
0.0170246
0.0167645
0.0147902
0.0260216
0.0180433
0.0150488
0.0169393
0.0200524
0.0223112
0.0213499
0.0153341
0.0073797
0.0028179
0.0193023
0.0143128
0.0127647
0.0146887
0.0183048
0.0216059
0.0207363
0.0132905
0.00350657
-0.000435228
0.0216734
0.0163154
0.0135338
0.0141428
0.0166587
0.0186227
0.0153904
0.00726072
0.00256538
0.00305618
0.027968
0.0207616
0.0162401
0.0146809
0.0151538
0.0153452
0.0117909
0.00604499
0.00628333
0.0106148
0.0278483
0.02297
0.0191341
0.0164469
0.0151119
0.014211
0.0109166
0.0054281
0.00784875
0.0155753
0.0234963
0.0209965
0.0202967
0.0176108
0.0149836
0.0143093
0.0128274
0.00795251
0.00965503
0.0183608
0.0201179
0.0191315
0.0210568
0.0207996
0.016815
0.0147884
0.0138235
0.0123475
0.0130711
0.0194427
0.0228167
0.0202601
0.0214612
0.023202
0.0209471
0.0173087
0.0153785
0.0146376
0.0160158
0.0192402
0.028841
0.023942
0.0228918
0.0250971
0.0251896
0.0213368
0.0171683
0.0156204
0.0172658
0.0193466
0.0337675
0.0266883
0.0235449
0.025897
0.028519
0.0265762
0.0206047
0.0163612
0.0171845
0.0202979
0.0458141
0.0230219
0.0133854
0.0180607
0.0232689
0.0249071
0.0235401
0.019503
0.0255294
0.06453
0.0384889
0.0185013
0.0105485
0.0161815
0.0227911
0.0254812
0.0236804
0.0174999
0.0246122
0.0688657
0.0350836
0.0195604
0.0125398
0.0157409
0.02067
0.023257
0.0200518
0.0120337
0.0240629
0.0774061
0.0351715
0.0238605
0.0169135
0.0173991
0.0199636
0.0212248
0.0166859
0.00867318
0.0258056
0.0895481
0.0346741
0.0284371
0.0246727
0.0231303
0.0227332
0.022418
0.0159506
0.00632044
0.0282748
0.105488
0.0330788
0.0312233
0.030742
0.028958
0.0264937
0.0246002
0.01722
0.00606606
0.030239
0.114467
0.0390924
0.0342036