/*--------------------------------*- C++ -*----------------------------------*\
  =========                 |
  \\      /  F ield         | OpenFOAM: The Open Source CFD Toolbox
   \\    /   O peration     | Website:  https://openfoam.org
    \\  /    A nd           | Version:  6
     \\/     M anipulation  |
\*---------------------------------------------------------------------------*/
FoamFile
{
    version     2.0;
    format      ascii;
    class       surfaceScalarField;
    location    "400";
    object      phi;
}
// * * * * * * * * * * * * * * * * * * * * * * * * * * * * * * * * * * * * * //

dimensions      [0 3 -1 0 0 0 0];

internalField   nonuniform List<scalar> 
19500
(
1.56394e-07
1.57254e-07
9.96867e-05
1.71431e-08
1.57383e-07
9.99822e-05
1.14301e-08
1.57442e-07
9.98486e-05
6.02103e-09
1.5745e-07
9.98483e-05
-3.54849e-10
1.57472e-07
9.98492e-05
-6.69272e-09
1.57484e-07
9.98491e-05
-1.19598e-08
1.57484e-07
9.98481e-05
-1.74053e-08
1.57491e-07
9.98483e-05
-1.56924e-07
1.57446e-07
9.99823e-05
1.57331e-07
9.96859e-05
1.56522e-07
1.76929e-08
9.99834e-05
1.70985e-08
1.76515e-08
0.00010028
1.1453e-08
1.76658e-08
0.000100146
6.04247e-09
1.76927e-08
0.000100146
-3.36946e-10
1.77272e-08
0.000100146
-6.68225e-09
1.777e-08
0.000100146
-1.19602e-08
1.7816e-08
0.000100145
-1.73408e-08
1.78571e-08
0.000100145
-1.57036e-07
1.78912e-08
0.000100279
1.7944e-08
9.99825e-05
1.56583e-07
1.22104e-08
9.98493e-05
1.71138e-08
1.22388e-08
0.000100145
1.14758e-08
1.22591e-08
0.000100011
6.08163e-09
1.22885e-08
0.000100011
-2.95463e-10
1.23273e-08
0.000100012
-6.64364e-09
1.23743e-08
0.000100012
-1.19189e-08
1.24239e-08
0.000100011
-1.73062e-08
1.24691e-08
0.000100011
-1.57086e-07
1.25019e-08
0.000100145
1.24805e-08
9.98485e-05
1.56596e-07
6.94465e-09
9.9849e-05
1.71409e-08
6.97509e-09
0.000100145
1.15075e-08
7.01035e-09
0.000100011
6.12437e-09
7.04889e-09
0.000100011
-2.46633e-10
7.09568e-09
0.000100012
-6.59464e-09
7.1486e-09
0.000100012
-1.18744e-08
7.20223e-09
0.000100011
-1.72735e-08
7.24932e-09
0.000100011
-1.57095e-07
7.27627e-09
0.000100145
7.26139e-09
9.98483e-05
1.56626e-07
6.14043e-10
9.98501e-05
1.71736e-08
6.45598e-10
0.000100146
1.15468e-08
6.82183e-10
0.000100012
6.17354e-09
7.25197e-10
0.000100012
-1.92107e-10
7.75443e-10
0.000100013
-6.54047e-09
8.30423e-10
0.000100013
-1.18271e-08
8.85035e-10
0.000100012
-1.72366e-08
9.32888e-10
0.000100012
-1.57116e-07
9.63859e-10
0.000100146
9.57532e-10
9.98494e-05
1.56653e-07
-5.76917e-09
9.98501e-05
1.72117e-08
-5.73916e-09
0.000100146
1.15915e-08
-5.70482e-09
0.000100012
6.22551e-09
-5.66147e-09
0.000100012
-1.36234e-10
-5.6127e-09
0.000100013
-6.48612e-09
-5.56125e-09
0.000100013
-1.17809e-08
-5.51127e-09
0.000100012
-1.71999e-08
-5.46762e-09
0.000100012
-1.57126e-07
-5.43357e-09
0.000100147
-5.43262e-09
9.98495e-05
1.56674e-07
-1.11826e-08
9.98491e-05
1.72518e-08
-1.1157e-08
0.000100145
1.16374e-08
-1.11156e-08
0.000100011
6.2751e-09
-1.10722e-08
0.000100011
-8.47936e-11
-1.10262e-08
0.000100012
-6.43722e-09
-1.0981e-08
0.000100012
-1.17409e-08
-1.09399e-08
0.000100011
-1.71661e-08
-1.0905e-08
0.000100011
-1.57126e-07
-1.08839e-08
0.000100146
-1.08882e-08
9.98486e-05
1.56706e-07
-1.68665e-08
9.98493e-05
1.72892e-08
-1.67771e-08
0.000100145
1.16812e-08
-1.67367e-08
0.000100012
6.31992e-09
-1.66981e-08
0.000100011
-3.99721e-11
-1.66559e-08
0.000100012
-6.39593e-09
-1.66151e-08
0.000100012
-1.17085e-08
-1.65794e-08
0.000100011
-1.71364e-08
-1.65494e-08
0.000100011
-1.57142e-07
-1.65468e-08
0.000100146
-1.66145e-08
9.98488e-05
1.5669e-07
-1.5614e-07
9.99829e-05
1.73289e-08
-1.56223e-07
0.000100279
1.1723e-08
-1.56244e-07
0.000100145
6.35461e-09
-1.56217e-07
0.000100145
-3.98455e-12
-1.56204e-07
0.000100146
-6.36137e-09
-1.5619e-07
0.000100146
-1.1691e-08
-1.56177e-07
0.000100145
-1.71365e-08
-1.5619e-07
0.000100145
-1.57103e-07
-1.56147e-07
0.00010028
-1.55977e-07
9.99827e-05
1.56602e-07
9.96875e-05
1.74059e-08
9.99833e-05
1.1735e-08
9.98497e-05
6.36897e-09
9.98494e-05
8.86911e-12
9.98504e-05
-6.35462e-09
9.98503e-05
-1.16976e-08
9.98493e-05
-1.72051e-08
9.98494e-05
-1.56933e-07
9.99839e-05
9.96874e-05
2.23528e-07
2.24995e-07
9.92396e-05
7.0684e-08
2.25196e-07
9.99113e-05
4.3405e-08
2.24935e-07
9.96523e-05
1.84065e-08
2.24884e-07
9.96497e-05
-1.0248e-09
2.24738e-07
9.96451e-05
-2.03016e-08
2.24513e-07
9.9645e-05
-4.47883e-08
2.24215e-07
9.96495e-05
-7.13158e-08
2.23834e-07
9.96521e-05
-2.24044e-07
2.23731e-07
9.99125e-05
2.23191e-07
9.92391e-05
2.23736e-07
7.16984e-08
9.99144e-05
7.06952e-08
7.17155e-08
0.000100588
4.33416e-08
7.16218e-08
0.000100328
1.82505e-08
7.14987e-08
0.000100325
-1.24572e-09
7.13596e-08
0.00010032
-2.05841e-08
7.1183e-08
0.00010032
-4.51493e-08
7.09606e-08
0.000100324
-7.16881e-08
7.06914e-08
0.000100326
-2.246e-07
7.0384e-08
0.000100587
6.98978e-08
9.99117e-05
2.23487e-07
4.48341e-08
9.96542e-05
7.06028e-08
4.48021e-08
0.000100327
4.32582e-08
4.4737e-08
0.000100067
1.81279e-08
4.46029e-08
0.000100065
-1.42278e-09
4.44334e-08
0.00010006
-2.08234e-08
4.42135e-08
0.00010006
-4.54564e-08
4.39291e-08
0.000100064
-7.20011e-08
4.35514e-08
0.000100066
-2.24854e-07
4.30651e-08
0.000100327
4.24586e-08
9.96517e-05
2.23472e-07
2.01191e-08
9.96518e-05
7.05004e-08
2.00413e-08
0.000100324
4.31252e-08
1.99757e-08
0.000100065
1.79581e-08
1.98509e-08
0.000100062
-1.64265e-09
1.96795e-08
0.000100057
-2.11076e-08
1.94509e-08
0.000100057
-4.5834e-08
1.9142e-08
0.000100061
-7.2456e-08
1.87069e-08
0.000100063
-2.2552e-07
1.81553e-08
0.000100324
1.75045e-08
9.96484e-05
2.23409e-07
8.12567e-10
9.96475e-05
7.04202e-08
7.33468e-10
0.00010032
4.30033e-08
6.69075e-10
0.00010006
1.77885e-08
5.67775e-10
0.000100058
-1.86949e-09
4.22114e-10
0.000100053
-2.14148e-08
2.22752e-10
0.000100053
-4.62674e-08
-5.65133e-11
0.000100057
-7.29969e-08
-4.6986e-10
0.000100059
-2.2623e-07
-9.86543e-10
0.00010032
-1.61184e-09
9.96431e-05
2.23328e-07
-1.85774e-08
9.96476e-05
7.03577e-08
-1.86491e-08
0.00010032
4.29046e-08
-1.87043e-08
0.000100061
1.7645e-08
-1.877e-08
0.000100058
-2.0667e-09
-1.88731e-08
0.000100053
-2.16913e-08
-1.90194e-08
0.000100053
-4.66783e-08
-1.92355e-08
0.000100057
-7.35176e-08
-1.95711e-08
0.000100059
-2.26898e-07
-1.99821e-08
0.00010032
-2.05233e-08
9.96424e-05
2.23239e-07
-4.35322e-08
9.96522e-05
7.03201e-08
-4.36272e-08
0.000100325
4.28398e-08
-4.3662e-08
0.000100065
1.75428e-08
-4.36852e-08
0.000100063
-2.21216e-09
-4.37428e-08
0.000100058
-2.19058e-08
-4.38354e-08
0.000100058
-4.70127e-08
-4.39871e-08
0.000100062
-7.39459e-08
-4.42468e-08
0.000100063
-2.27463e-07
-4.45706e-08
0.000100325
-4.49613e-08
9.96465e-05
2.23122e-07
-7.07453e-08
9.96548e-05
7.03239e-08
-7.08646e-08
0.000100327
4.28168e-08
-7.08499e-08
0.000100068
1.74849e-08
-7.08504e-08
0.000100065
-2.3056e-09
-7.08887e-08
0.00010006
-2.2058e-08
-7.09577e-08
0.00010006
-4.72727e-08
-7.10795e-08
0.000100064
-7.431e-08
-7.13114e-08
0.000100066
-2.27873e-07
-7.15898e-08
0.000100327
-7.16643e-08
9.96488e-05
2.23269e-07
-2.23639e-07
9.99138e-05
7.03391e-08
-2.23905e-07
0.000100586
4.27786e-08
-2.23784e-07
0.000100327
1.74309e-08
-2.23951e-07
0.000100325
-2.37352e-09
-2.24116e-07
0.00010032
-2.2164e-08
-2.24305e-07
0.00010032
-4.74654e-08
-2.24541e-07
0.000100324
-7.45865e-08
-2.24764e-07
0.000100326
-2.28239e-07
-2.25034e-07
0.000100588
-2.24878e-07
9.99085e-05
2.23015e-07
9.92418e-05
7.02106e-08
9.9913e-05
4.26464e-08
9.96543e-05
1.72988e-08
9.96515e-05
-2.54324e-09
9.96467e-05
-2.23867e-08
9.96463e-05
-4.76659e-08
9.96502e-05
-7.45465e-08
9.9652e-05
-2.28072e-07
9.99129e-05
9.92351e-05
2.51969e-07
2.54698e-07
9.87342e-05
9.13849e-08
2.55168e-07
9.9818e-05
5.90744e-08
2.54401e-07
9.94315e-05
2.5825e-08
2.54436e-07
9.94296e-05
-1.96432e-09
2.54203e-07
9.94197e-05
-2.94291e-08
2.53879e-07
9.94196e-05
-6.17553e-08
2.53461e-07
9.94295e-05
-9.25811e-08
2.52796e-07
9.94316e-05
-2.52977e-07
2.52997e-07
9.98207e-05
2.52149e-07
9.87345e-05
2.5245e-07
9.3402e-08
9.98246e-05
9.16527e-08
9.36797e-08
0.000100911
5.90341e-08
9.34377e-08
0.000100523
2.56331e-08
9.31991e-08
0.000100521
-2.29505e-09
9.29393e-08
0.000100511
-2.99003e-08
9.25922e-08
0.00010051
-6.2351e-08
9.21454e-08
0.000100519
-9.34225e-08
9.16595e-08
0.00010052
-2.53842e-07
9.1192e-08
0.00010091
9.02081e-08
9.98202e-05
2.51696e-07
6.17906e-08
9.94355e-05
9.14098e-08
6.18022e-08
0.00010052
5.88691e-08
6.1678e-08
0.000100133
2.53801e-08
6.14161e-08
0.000100131
-2.64151e-09
6.10858e-08
0.000100121
-3.03478e-08
6.06453e-08
0.00010012
-6.29041e-08
6.00732e-08
0.000100129
-9.38944e-08
5.93766e-08
0.00010013
-2.53841e-07
5.85232e-08
0.00010052
5.7509e-08
9.94309e-05
2.51786e-07
2.89677e-08
9.94342e-05
9.12092e-08
2.8901e-08
0.000100519
5.86049e-08
2.8763e-08
0.000100132
2.5036e-08
2.85096e-08
0.00010013
-3.08522e-09
2.81621e-08
0.00010012
-3.0909e-08
2.76937e-08
0.000100119
-6.36002e-08
2.70739e-08
0.000100128
-9.46899e-08
2.628e-08
0.000100129
-2.54993e-07
2.53129e-08
0.000100519
2.42667e-08
9.94273e-05
2.51682e-07
1.25637e-09
9.94249e-05
9.10611e-08
1.15078e-09
0.00010051
5.83627e-08
1.02237e-09
0.000100122
2.4688e-08
8.0431e-10
0.00010012
-3.55364e-09
4.88818e-10
0.00010011
-3.1524e-08
6.13103e-11
0.000100109
-6.43994e-08
-5.10149e-10
0.000100118
-9.56626e-08
-1.26794e-09
0.000100118
-2.56059e-07
-2.17146e-09
0.000100509
-3.13364e-09
9.94153e-05
2.51583e-07
-2.65706e-08
9.94252e-05
9.09298e-08
-2.67052e-08
0.00010051
5.8147e-08
-2.68111e-08
0.000100122
2.43741e-08
-2.69711e-08
0.000100121
-3.97823e-09
-2.72214e-08
0.00010011
-3.20884e-08
-2.75625e-08
0.00010011
-6.51491e-08
-2.80221e-08
0.000100118
-9.65754e-08
-2.86454e-08
0.000100118
-2.57085e-07
-2.9363e-08
0.000100509
-3.01294e-08
9.94134e-05
2.51497e-07
-5.9753e-08
9.94352e-05
9.08267e-08
-5.99354e-08
0.00010052
5.79775e-08
-6.00174e-08
0.000100132
2.41241e-08
-6.01039e-08
0.000100131
-4.31775e-09
-6.02762e-08
0.00010012
-3.2543e-08
-6.05155e-08
0.000100119
-6.57554e-08
-6.08447e-08
0.000100128
-9.73075e-08
-6.13188e-08
0.000100128
-2.57951e-07
-6.18277e-08
0.000100519
-6.23143e-08
9.94219e-05
2.51237e-07
-9.18635e-08
9.94369e-05
9.08124e-08
-9.2256e-08
0.000100521
5.78901e-08
-9.21717e-08
0.000100134
2.39591e-08
-9.21939e-08
0.000100132
-4.55986e-09
-9.23118e-08
0.000100122
-3.28814e-08
-9.24767e-08
0.000100121
-6.62269e-08
-9.27091e-08
0.000100129
-9.78943e-08
-9.30869e-08
0.000100129
-2.58398e-07
-9.35436e-08
0.00010052
-9.35991e-08
9.94226e-05
2.51884e-07
-2.52177e-07
9.98235e-05
9.09014e-08
-2.52691e-07
0.000100909
5.7802e-08
-2.52101e-07
0.000100521
2.38427e-08
-2.5243e-07
0.00010052
-4.71579e-09
-2.52624e-07
0.00010051
-3.30963e-08
-2.52889e-07
0.000100509
-6.65182e-08
-2.53236e-07
0.000100518
-9.83416e-08
-2.53402e-07
0.000100518
-2.59546e-07
-2.54439e-07
0.00010091
-2.53709e-07
9.98109e-05
2.51382e-07
9.87389e-05
9.0485e-08
9.9822e-05
5.75761e-08
9.94358e-05
2.36329e-08
9.94336e-05
-4.9469e-09
9.94231e-05
-3.33592e-08
9.94221e-05
-6.67207e-08
9.94304e-05
-9.82605e-08
9.94299e-05
-2.58812e-07
9.98205e-05
9.87234e-05
2.68972e-07
2.73357e-07
9.81931e-05
1.01634e-07
2.74201e-07
9.97123e-05
6.49633e-08
2.72897e-07
9.91963e-05
2.86504e-08
2.73085e-07
9.91939e-05
-3.09728e-09
2.72724e-07
9.91797e-05
-3.42779e-08
2.72299e-07
9.91795e-05
-6.88989e-08
2.71806e-07
9.91937e-05
-1.03359e-07
2.70727e-07
9.91966e-05
-2.69576e-07
2.7129e-07
9.97172e-05
2.69762e-07
9.81951e-05
2.69839e-07
1.05068e-07
9.97243e-05
1.02222e-07
1.05673e-07
0.000101248
6.5e-08
1.05249e-07
0.000100729
2.84979e-08
1.04917e-07
0.000100727
-3.52564e-09
1.04562e-07
0.000100712
-3.49899e-08
1.04051e-07
0.000100711
-6.98156e-08
1.03356e-07
0.000100724
-1.0471e-07
1.0255e-07
0.000100724
-2.71115e-07
1.0184e-07
0.000101247
1.0008e-07
9.97188e-05
2.6855e-07
6.94982e-08
9.92038e-05
1.01795e-07
6.9614e-08
0.000100724
6.47493e-08
6.94314e-08
0.000100207
2.81059e-08
6.90753e-08
0.000100205
-4.0385e-09
6.86216e-08
0.00010019
-3.56462e-08
6.79773e-08
0.000100189
-7.06873e-08
6.70898e-08
0.000100202
-1.05429e-07
6.59275e-08
0.000100203
-2.71057e-07
6.45123e-08
0.000100724
6.28345e-08
9.91973e-05
2.68819e-07
3.3825e-08
9.92023e-05
1.01522e-07
3.3863e-08
0.000100723
6.43887e-08
3.36589e-08
0.000100206
2.76187e-08
3.33174e-08
0.000100204
-4.68982e-09
3.28408e-08
0.000100189
-3.65119e-08
3.21612e-08
0.000100188
-7.1841e-08
3.12135e-08
0.0001002
-1.06779e-07
2.98898e-08
0.000100201
-2.73004e-07
2.83463e-08
0.000100722
2.65245e-08
9.9191e-05
2.6865e-07
2.08937e-09
9.91892e-05
1.01346e-07
2.01038e-09
0.00010071
6.40758e-08
1.85408e-09
0.000100192
2.71407e-08
1.56808e-09
0.00010019
-5.36774e-09
1.13859e-09
0.000100175
-3.74522e-08
5.2888e-10
0.000100174
-7.31652e-08
-3.27521e-10
0.000100186
-1.08363e-07
-1.55321e-09
0.000100186
-2.74747e-07
-2.97462e-09
0.000100708
-4.48803e-09
9.91728e-05
2.68572e-07
-2.98373e-08
9.91897e-05
1.01186e-07
-3.00225e-08
0.00010071
6.37962e-08
-3.01142e-08
0.000100193
2.67134e-08
-3.03142e-08
0.000100191
-5.97239e-09
-3.06502e-08
0.000100176
-3.82957e-08
-3.11246e-08
0.000100174
-7.43641e-08
-3.17878e-08
0.000100186
-1.09787e-07
-3.27514e-08
0.000100185
-2.76395e-07
-3.38582e-08
0.000100707
-3.49348e-08
9.91691e-05
2.68591e-07
-6.61045e-08
9.9204e-05
1.01056e-07
-6.63426e-08
0.000100725
6.35761e-08
-6.64126e-08
0.000100207
2.63785e-08
-6.65117e-08
0.000100205
-6.44322e-09
-6.67405e-08
0.00010019
-3.89484e-08
-6.70617e-08
0.000100188
-7.52808e-08
-6.75056e-08
0.0001002
-1.10852e-07
-6.81928e-08
0.000100199
-2.77808e-07
-6.89474e-08
0.000100722
-6.95867e-08
9.91804e-05
2.68179e-07
-1.0246e-07
9.92061e-05
1.01058e-07
-1.03159e-07
0.000100726
6.34735e-08
-1.0293e-07
0.000100209
2.61635e-08
-1.02938e-07
0.000100207
-6.77552e-09
-1.0309e-07
0.000100192
-3.94216e-08
-1.03295e-07
0.00010019
-7.59584e-08
-1.03579e-07
0.000100202
-1.11685e-07
-1.04094e-07
0.000100201
-2.78416e-07
-1.04846e-07
0.000100724
-1.0427e-07
9.91811e-05
2.69357e-07
-2.6928e-07
9.97219e-05
1.01291e-07
-2.70027e-07
0.000101245
6.33881e-08
-2.68894e-07
0.000100726
2.60468e-08
-2.69385e-07
0.000100725
-6.97689e-09
-2.69504e-07
0.00010071
-3.97352e-08
-2.69792e-07
0.000100709
-7.63744e-08
-2.7028e-07
0.000100721
-1.12418e-07
-2.70377e-07
0.00010072
-2.79842e-07
-2.71542e-07
0.000101247
-2.70675e-07
9.9699e-05
2.68622e-07
9.82018e-05
1.00596e-07
9.97206e-05
6.31156e-08
9.92049e-05
2.5788e-08
9.92021e-05
-7.19213e-09
9.9187e-05
-3.99336e-08
9.91852e-05
-7.65279e-08
9.91965e-05
-1.11557e-07
9.91954e-05
-2.78993e-07
9.97168e-05
9.81747e-05
2.81539e-07
2.88048e-07
9.76244e-05
1.09643e-07
2.89342e-07
9.95958e-05
6.85026e-08
2.87533e-07
9.89509e-05
2.99575e-08
2.87907e-07
9.89454e-05
-4.44214e-09
2.87363e-07
9.89276e-05
-3.78536e-08
2.86802e-07
9.89272e-05
-7.37114e-08
2.8619e-07
9.89448e-05
-1.10783e-07
2.84583e-07
9.89518e-05
-2.80839e-07
2.85158e-07
9.96029e-05
2.83028e-07
9.76315e-05
2.82881e-07
1.14937e-07
9.96156e-05
1.10573e-07
1.15887e-07
0.000101595
6.8641e-08
1.15277e-07
0.000100944
2.98812e-08
1.14843e-07
0.00010094
-4.99338e-09
1.14357e-07
0.000100921
-3.89259e-08
1.13608e-07
0.000100919
-7.50582e-08
1.12519e-07
0.000100935
-1.12985e-07
1.11177e-07
0.000100938
-2.83026e-07
1.09838e-07
0.000101593
1.06967e-07
9.96113e-05
2.81084e-07
7.53991e-08
9.89633e-05
1.09954e-07
7.56562e-08
0.000100937
6.82817e-08
7.5411e-08
0.000100289
2.92948e-08
7.49523e-08
0.000100284
-5.75516e-09
7.43455e-08
0.000100266
-3.993e-08
7.3419e-08
0.000100264
-7.64591e-08
7.20371e-08
0.00010028
-1.14321e-07
7.01153e-08
0.000100284
-2.83283e-07
6.76522e-08
0.000100936
6.45439e-08
9.89559e-05
2.81579e-07
3.77456e-08
9.89595e-05
1.09615e-07
3.79606e-08
0.000100934
6.78153e-08
3.76816e-08
0.000100286
2.86289e-08
3.72503e-08
0.000100281
-6.69588e-09
3.66273e-08
0.000100263
-4.12772e-08
3.56699e-08
0.000100261
-7.83607e-08
3.4225e-08
0.000100276
-1.16703e-07
3.21157e-08
0.000100278
-2.8686e-07
2.93062e-08
0.000100931
2.62207e-08
9.89433e-05
2.81332e-07
3.20046e-09
9.89435e-05
1.09418e-07
3.19679e-09
0.000100918
6.74342e-08
3.02428e-09
0.00010027
2.80038e-08
2.68114e-09
0.000100265
-7.64777e-09
2.14019e-09
0.000100246
-4.27012e-08
1.31231e-09
0.000100244
-8.04627e-08
6.23645e-11
0.000100259
-1.19571e-07
-1.80373e-09
0.00010026
-2.89741e-07
-4.25694e-09
0.000100913
-6.81292e-09
9.89178e-05
2.81308e-07
-3.16254e-08
9.89442e-05
1.09244e-07
-3.18451e-08
0.000100918
6.71036e-08
-3.18933e-08
0.000100271
2.74622e-08
-3.21104e-08
0.000100266
-8.46584e-09
-3.2511e-08
0.000100247
-4.39315e-08
-3.31219e-08
0.000100245
-8.22787e-08
-3.40311e-08
0.000100259
-1.21995e-07
-3.54162e-08
0.000100259
-2.92562e-07
-3.72404e-08
0.000100912
-3.89248e-08
9.89111e-05
2.81514e-07
-7.01822e-08
9.89619e-05
1.09114e-07
-7.04388e-08
0.000100936
6.68593e-08
-7.047e-08
0.000100289
2.7063e-08
-7.05522e-08
0.000100284
-9.06627e-09
-7.07973e-08
0.000100265
-4.48236e-08
-7.11678e-08
0.000100263
-8.35681e-08
-7.17146e-08
0.000100277
-1.23697e-07
-7.25999e-08
0.000100276
-2.94944e-07
-7.36816e-08
0.000100931
-7.4436e-08
9.89238e-05
2.80947e-07
-1.1095e-07
9.89667e-05
1.09153e-07
-1.11866e-07
0.00010094
6.67696e-08
-1.11468e-07
0.000100293
2.68329e-08
-1.11427e-07
0.000100288
-9.45919e-09
-1.11562e-07
0.000100269
-4.54239e-08
-1.11763e-07
0.000100267
-8.44313e-08
-1.12054e-07
0.000100281
-1.24839e-07
-1.12611e-07
0.00010028
-2.95649e-07
-1.13335e-07
0.000100935
-1.12763e-07
9.89262e-05
2.82709e-07
-2.81971e-07
9.96111e-05
1.09555e-07
-2.83034e-07
0.00010159
6.67248e-08
-2.81352e-07
0.000100939
2.67635e-08
-2.82004e-07
0.000100936
-9.67524e-09
-2.81954e-07
0.000100917
-4.58134e-08
-2.82225e-07
0.000100915
-8.48822e-08
-2.82824e-07
0.000100931
-1.25515e-07
-2.82547e-07
0.00010093
-2.98058e-07
-2.84682e-07
0.000101591
-2.82795e-07
9.95737e-05
2.81661e-07
9.76385e-05
1.08626e-07
9.9611e-05
6.64514e-08
9.89661e-05
2.64944e-08
9.89603e-05
-9.80495e-09
9.89415e-05
-4.58127e-08
9.89388e-05
-8.47178e-08
9.89521e-05
-1.2466e-07
9.89511e-05
-2.96257e-07
9.96055e-05
9.7597e-05
2.88963e-07
2.98266e-07
9.70379e-05
1.15065e-07
3.00046e-07
9.94704e-05
7.07725e-08
2.97738e-07
9.86982e-05
3.0521e-08
2.98316e-07
9.8688e-05
-6.1105e-09
2.97566e-07
9.86673e-05
-4.11054e-08
2.96833e-07
9.86665e-05
-7.64859e-08
2.96066e-07
9.86867e-05
-1.14727e-07
2.937e-07
9.86989e-05
-2.83688e-07
2.94277e-07
9.94802e-05
2.90796e-07
9.70546e-05
2.90837e-07
1.22815e-07
9.95009e-05
1.16373e-07
1.24144e-07
0.000101946
7.10624e-08
1.23355e-07
0.000101164
3.05625e-08
1.22823e-07
0.000101156
-6.80529e-09
1.22169e-07
0.000101134
-4.26302e-08
1.21087e-07
0.000101132
-7.85334e-08
1.19407e-07
0.00010115
-1.17911e-07
1.16999e-07
0.000101156
-2.87285e-07
1.1435e-07
0.000101944
1.0937e-07
9.95043e-05
2.88536e-07
8.07808e-08
9.87176e-05
1.15565e-07
8.12314e-08
0.000101153
7.05806e-08
8.09339e-08
0.000100377
2.97334e-08
8.03768e-08
0.000100368
-7.91994e-09
7.95924e-08
0.000100347
-4.41977e-08
7.82702e-08
0.000100344
-8.09664e-08
7.61262e-08
0.000100362
-1.20566e-07
7.27556e-08
0.000100369
-2.88714e-07
6.81477e-08
0.000101151
6.26e-08
9.87125e-05
2.89288e-07
4.1716e-08
9.871e-05
1.15177e-07
4.21837e-08
0.000101148
7.00099e-08
4.1844e-08
0.000100371
2.88564e-08
4.13351e-08
0.000100362
-9.26332e-09
4.05568e-08
0.00010034
-4.63007e-08
3.92388e-08
0.000100337
-8.42814e-08
3.70483e-08
0.000100354
-1.25097e-07
3.33465e-08
0.000100359
-2.9495e-07
2.86729e-08
0.000101142
2.25754e-08
9.86882e-05
2.8898e-07
4.63611e-09
9.86922e-05
1.14974e-07
4.77106e-09
0.00010113
6.95752e-08
4.60512e-09
0.000100353
2.80716e-08
4.23212e-09
0.000100344
-1.05625e-08
3.59812e-09
0.000100322
-4.84593e-08
2.51601e-09
0.000100319
-8.79088e-08
7.19938e-10
0.000100335
-1.29779e-07
-2.35056e-09
0.000100337
-3.00772e-07
-6.33428e-09
0.00010112
-1.09586e-08
9.86534e-05
2.89057e-07
-3.28579e-08
9.86932e-05
1.14815e-07
-3.30626e-08
0.000101131
6.922e-08
-3.30358e-08
0.000100355
2.74272e-08
-3.32307e-08
0.000100345
-1.16324e-08
-3.36568e-08
0.000100323
-5.02316e-08
-3.43939e-08
0.00010032
-9.08655e-08
-3.56081e-08
0.000100335
-1.33623e-07
-3.77482e-08
0.000100337
-3.06031e-07
-4.06928e-08
0.000101121
-4.34895e-08
9.86418e-05
2.89536e-07
-7.32468e-08
9.87132e-05
1.14729e-07
-7.34632e-08
0.000101152
6.89957e-08
-7.3432e-08
0.000100375
2.70031e-08
-7.3461e-08
0.000100366
-1.23474e-08
-7.36781e-08
0.000100344
-5.14148e-08
-7.40697e-08
0.000100341
-9.28426e-08
-7.47054e-08
0.000100356
-1.363e-07
-7.5953e-08
0.000100357
-3.10171e-07
-7.74321e-08
0.000101143
-7.86796e-08
9.86527e-05
2.88864e-07
-1.17012e-07
9.8722e-05
1.14825e-07
-1.18164e-07
0.000101159
6.89542e-08
-1.1759e-07
0.000100383
2.67955e-08
-1.17487e-07
0.000100374
-1.27742e-08
-1.17566e-07
0.000100353
-5.21382e-08
-1.1773e-07
0.000100349
-9.40384e-08
-1.18012e-07
0.000100364
-1.37744e-07
-1.18497e-07
0.000100365
-3.11531e-07
-1.1945e-07
0.000101152
-1.17889e-07
9.8658e-05
2.91183e-07
-2.89896e-07
9.94931e-05
1.15403e-07
-2.91141e-07
0.000101939
6.89573e-08
-2.88872e-07
0.000101157
2.67887e-08
-2.89632e-07
0.00010115
-1.2994e-08
-2.89337e-07
0.000101129
-5.26112e-08
-2.89537e-07
0.000101126
-9.44478e-08
-2.90195e-07
0.000101142
-1.38628e-07
-2.89723e-07
0.000101143
-3.14036e-07
-2.91326e-07
0.00010194
-2.88656e-07
9.9434e-05
2.89959e-07
9.7059e-05
1.14288e-07
9.94957e-05
6.87503e-08
9.87229e-05
2.65636e-08
9.87129e-05
-1.29568e-08
9.86915e-05
-5.22954e-08
9.86879e-05
-9.40553e-08
9.87019e-05
-1.36163e-07
9.87039e-05
-3.11537e-07
9.94896e-05
9.69964e-05
2.91387e-07
3.04382e-07
9.64426e-05
1.17315e-07
3.06714e-07
9.93383e-05
7.09241e-08
3.03938e-07
9.84412e-05
2.96668e-08
3.04729e-07
9.84251e-05
-8.28622e-09
3.03778e-07
9.84023e-05
-4.34408e-08
3.02851e-07
9.84005e-05
-7.68426e-08
3.01816e-07
9.84219e-05
-1.11852e-07
2.98406e-07
9.84419e-05
-2.77305e-07
2.98112e-07
9.93467e-05
2.94881e-07
9.64837e-05
2.93892e-07
1.28345e-07
9.93836e-05
1.1907e-07
1.301e-07
0.000102298
7.14434e-08
1.2913e-07
0.000101387
2.98903e-08
1.28497e-07
0.000101375
-9.12357e-09
1.27626e-07
0.00010135
-4.56033e-08
1.26058e-07
0.000101347
-8.00139e-08
1.23394e-07
0.000101366
-1.1724e-07
1.19125e-07
0.000101378
-2.80936e-07
1.14256e-07
0.000102293
1.04941e-07
9.9409e-05
2.91102e-07
8.50666e-08
9.84703e-05
1.18057e-07
8.57896e-08
0.000101371
7.08072e-08
8.54464e-08
0.000100469
2.87495e-08
8.4797e-08
0.000100455
-1.0765e-08
8.37954e-08
0.000100431
-4.8134e-08
8.19182e-08
0.000100427
-8.42798e-08
7.85431e-08
0.000100446
-1.22109e-07
7.28524e-08
0.000100458
-2.85744e-07
6.44388e-08
0.000101363
5.30218e-08
9.84759e-05
2.92138e-07
4.53805e-08
9.84581e-05
1.17641e-07
4.61924e-08
0.000101363
7.0134e-08
4.5816e-08
0.000100459
2.76132e-08
4.5255e-08
0.000100445
-1.26743e-08
4.43201e-08
0.000100421
-5.1442e-08
4.25165e-08
0.000100417
-8.98215e-08
3.91827e-08
0.000100433
-1.30357e-07
3.32883e-08
0.000100442
-2.98131e-07
2.44562e-08
0.000101348
1.28455e-08
9.84323e-05
2.91815e-07
6.4519e-09
9.84398e-05
1.17459e-07
6.81548e-09
0.000101344
6.96716e-08
6.69711e-09
0.000100441
2.66615e-08
6.34545e-09
0.000100426
-1.44469e-08
5.66119e-09
0.000100402
-5.47038e-08
4.29109e-09
0.000100398
-9.55027e-08
1.75118e-09
0.000100413
-1.3904e-07
-2.70072e-09
0.000100417
-3.09591e-07
-9.53535e-09
0.000101327
-1.80238e-08
9.83789e-05
2.92065e-07
-3.30427e-08
9.84409e-05
1.1736e-07
-3.31596e-08
0.000101346
6.93399e-08
-3.30067e-08
0.000100442
2.59424e-08
-3.31107e-08
0.000100429
-1.58035e-08
-3.34844e-08
0.000100405
-5.72041e-08
-3.43182e-08
0.0001004
-9.96962e-08
-3.58861e-08
0.000100415
-1.45585e-07
-3.88666e-08
0.000100416
-3.19129e-07
-4.31874e-08
0.000101331
-4.85536e-08
9.8358e-05
2.9291e-07
-7.45553e-08
9.8462e-05
1.17385e-07
-7.46789e-08
0.000101369
6.9211e-08
-7.45236e-08
0.000100465
2.55675e-08
-7.44236e-08
0.000100451
-1.6592e-08
-7.45132e-08
0.000100428
-5.87231e-08
-7.48418e-08
0.000100423
-1.02347e-07
-7.55398e-08
0.000100438
-1.49393e-07
-7.70114e-08
0.000100438
-3.26507e-07
-7.90587e-08
0.000101357
-8.0619e-08
9.83642e-05
2.92208e-07
-1.20274e-07
9.84756e-05
1.17593e-07
-1.21522e-07
0.00010138
6.92922e-08
-1.20704e-07
0.000100478
2.54726e-08
-1.20455e-07
0.000100464
-1.69714e-08
-1.20369e-07
0.000100441
-5.95443e-08
-1.20399e-07
0.000100437
-1.03717e-07
-1.20509e-07
0.000100451
-1.51253e-07
-1.20722e-07
0.000100452
-3.2867e-07
-1.21069e-07
0.000101373
-1.18149e-07
9.83729e-05
2.95214e-07
-2.93091e-07
9.93709e-05
1.18408e-07
-2.94578e-07
0.000102289
6.94261e-08
-2.91654e-07
0.000101377
2.56111e-08
-2.9243e-07
0.000101366
-1.7118e-08
-2.91764e-07
0.000101342
-5.99624e-08
-2.91772e-07
0.000101339
-1.03885e-07
-2.92291e-07
0.000101356
-1.51352e-07
-2.90721e-07
0.000101357
-3.30994e-07
-2.92335e-07
0.000102292
-2.88381e-07
9.92733e-05
2.93765e-07
9.64719e-05
1.17188e-07
9.93775e-05
6.93689e-08
9.84788e-05
2.55542e-08
9.8464e-05
-1.67627e-08
9.84416e-05
-5.90816e-08
9.84373e-05
-1.02406e-07
9.84511e-05
-1.47998e-07
9.84541e-05
-3.27616e-07
9.93746e-05
9.63823e-05
2.90265e-07
3.08176e-07
9.58443e-05
1.17105e-07
3.11114e-07
9.92004e-05
6.88372e-08
3.07955e-07
9.81817e-05
2.69004e-08
3.09015e-07
9.81583e-05
-1.13824e-08
3.07955e-07
9.81335e-05
-4.49969e-08
3.06891e-07
9.813e-05
-7.31589e-08
3.05491e-07
9.81513e-05
-1.043e-07
3.00722e-07
9.81768e-05
-2.50692e-07
3.01384e-07
9.92016e-05
2.95103e-07
9.59405e-05
2.93499e-07
1.32566e-07
9.92659e-05
1.19394e-07
1.34809e-07
0.000102649
6.97326e-08
1.33694e-07
0.000101612
2.74596e-08
1.33005e-07
0.000101593
-1.22735e-08
1.31924e-07
0.000101567
-4.79039e-08
1.29748e-07
0.000101562
-7.79546e-08
1.25562e-07
0.000101582
-1.10252e-07
1.18537e-07
0.000101599
-2.57807e-07
1.07847e-07
0.000102633
9.17632e-08
9.93637e-05
2.90288e-07
8.85996e-08
9.82241e-05
1.18199e-07
8.97123e-08
0.000101589
6.89515e-08
8.93728e-08
0.000100563
2.59772e-08
8.86987e-08
0.000100542
-1.45942e-08
8.75203e-08
0.000100516
-5.20043e-08
8.49556e-08
0.000100511
-8.49652e-08
7.98897e-08
0.000100529
-1.21336e-07
6.97086e-08
0.000100544
-2.6815e-07
5.40866e-08
0.000101562
3.19444e-08
9.82787e-05
2.91661e-07
4.8779e-08
9.82063e-05
1.17812e-07
5.00746e-08
0.000101576
6.82383e-08
4.97365e-08
0.000100548
2.46005e-08
4.92238e-08
0.000100528
-1.72093e-08
4.8227e-08
0.000100502
-5.69821e-08
4.5928e-08
0.000100496
-9.46907e-08
4.10357e-08
0.000100511
-1.36325e-07
3.09614e-08
0.00010052
-2.91686e-07
1.60478e-08
0.000101545
-9.6753e-09
9.81885e-05
2.91434e-07
8.76369e-09
9.81882e-05
1.17733e-07
9.49637e-09
0.000101558
6.78485e-08
9.51781e-09
0.00010053
2.35599e-08
9.31872e-09
0.00010051
-1.94716e-08
8.73848e-09
0.000100485
-6.17532e-08
7.18297e-09
0.000100478
-1.0423e-07
3.91352e-09
0.000100491
-1.50414e-07
-3.30922e-09
0.000100496
-3.18655e-07
-1.39775e-08
0.000101527
-3.22222e-08
9.8086e-05
2.91974e-07
-3.2033e-08
9.81894e-05
1.17793e-07
-3.19297e-08
0.000101561
6.76664e-08
-3.15499e-08
0.000100533
2.28995e-08
-3.14209e-08
0.000100514
-2.10258e-08
-3.15692e-08
0.000100488
-6.49599e-08
-3.23469e-08
0.000100482
-1.10911e-07
-3.42423e-08
0.000100494
-1.60032e-07
-3.86485e-08
0.000100497
-3.39208e-07
-4.60222e-08
0.000101542
-5.57043e-08
9.8044e-05
2.93323e-07
-7.43566e-08
9.82105e-05
1.18047e-07
-7.42669e-08
0.000101586
6.77832e-08
-7.38966e-08
0.000100557
2.27426e-08
-7.354e-08
0.000100538
-2.17405e-08
-7.33434e-08
0.000100513
-6.68167e-08
-7.34655e-08
0.000100507
-1.14906e-07
-7.41168e-08
0.000100519
-1.67109e-07
-7.59669e-08
0.000100522
-3.52332e-07
-7.83328e-08
0.000101576
-8.06037e-08
9.80362e-05
2.92737e-07
-1.21562e-07
9.82295e-05
1.18458e-07
-1.22894e-07
0.000101602
6.81166e-08
-1.2178e-07
0.000100575
2.29106e-08
-1.21308e-07
0.000100556
-2.19267e-08
-1.20945e-07
0.000100532
-6.7649e-08
-1.20731e-07
0.000100527
-1.16584e-07
-1.20418e-07
0.00010054
-1.69124e-07
-1.19733e-07
0.000100542
-3.55439e-07
-1.18228e-07
0.000101601
-1.1491e-07
9.80447e-05
2.96383e-07
-2.93496e-07
9.92457e-05
1.19563e-07
-2.95003e-07
0.000102637
6.8446e-08
-2.91382e-07
0.000101597
2.32672e-08
-2.92029e-07
0.000101581
-2.19237e-08
-2.90871e-07
0.000101556
-6.77804e-08
-2.90504e-07
0.000101552
-1.15739e-07
-2.90579e-07
0.000101567
-1.66659e-07
-2.87581e-07
0.000101571
-3.57666e-07
-2.87384e-07
0.000102647
-2.74082e-07
9.90712e-05
2.94937e-07
9.58832e-05
1.1834e-07
9.92586e-05
6.86645e-08
9.82365e-05
2.35139e-08
9.82164e-05
-2.10227e-08
9.81943e-05
-6.60326e-08
9.81896e-05
-1.12966e-07
9.82022e-05
-1.60995e-07
9.82104e-05
-3.45768e-07
9.92719e-05
9.57525e-05
2.86578e-07
3.10953e-07
9.52466e-05
1.15038e-07
3.14582e-07
9.90573e-05
6.46829e-08
3.11186e-07
9.79209e-05
2.19847e-08
3.12604e-07
9.78887e-05
-1.57913e-08
3.11609e-07
9.7861e-05
-4.59655e-08
3.10537e-07
9.7854e-05
-6.81795e-08
3.08753e-07
9.78713e-05
-8.31874e-08
3.02985e-07
9.79059e-05
-1.91309e-07
2.99181e-07
9.90336e-05
3.00166e-07
9.54777e-05
2.90696e-07
1.36477e-07
9.91496e-05
1.17988e-07
1.3928e-07
0.000102997
6.6158e-08
1.38085e-07
0.000101837
2.31169e-08
1.37404e-07
0.000101812
-1.65225e-08
1.36135e-07
0.000101783
-4.96603e-08
1.33131e-07
0.000101776
-7.43285e-08
1.26759e-07
0.000101795
-9.55247e-08
1.14285e-07
0.00010182
-1.91066e-07
9.5062e-08
0.000102966
6.95921e-08
9.94273e-05
2.8717e-07
9.20641e-08
9.79813e-05
1.16651e-07
9.37116e-08
0.000101805
6.52519e-08
9.3458e-08
0.000100659
2.12559e-08
9.2857e-08
0.000100631
-1.98235e-08
9.15463e-08
0.000100603
-5.60885e-08
8.80908e-08
0.000100595
-8.71121e-08
8.02635e-08
0.00010061
-1.16117e-07
6.34862e-08
0.00010063
-2.10948e-07
3.53556e-08
0.000101748
-2.9274e-08
9.81805e-05
2.88963e-07
5.22991e-08
9.7957e-05
1.16379e-07
5.42512e-08
0.000101788
6.45839e-08
5.40691e-08
0.000100639
1.96506e-08
5.3763e-08
0.000100612
-2.33995e-08
5.2848e-08
0.000100584
-6.38722e-08
4.99242e-08
0.000100576
-1.02907e-07
4.29039e-08
0.000100588
-1.42555e-07
2.83742e-08
0.0001006
-2.7613e-07
2.90682e-10
0.000101723
-6.85207e-08
9.79447e-05
2.8899e-07
1.16329e-08
9.79395e-05
1.16529e-07
1.29294e-08
0.000101771
6.44226e-08
1.3234e-08
0.000100623
1.8638e-08
1.33975e-08
0.000100596
-2.63188e-08
1.31642e-08
0.000100569
-7.07789e-08
1.1575e-08
0.00010056
-1.16038e-07
7.35927e-09
0.00010057
-1.6909e-07
-1.82031e-09
0.000100574
-3.47103e-07
-1.59626e-08
0.000101715
-4.33011e-08
9.76899e-05
2.89986e-07
-3.00631e-08
9.79406e-05
1.16897e-07
-2.95537e-08
0.000101776
6.45933e-08
-2.87995e-08
0.000100627
1.82479e-08
-2.82077e-08
0.000100601
-2.79502e-08
-2.78379e-08
0.000100575
-7.49296e-08