/*--------------------------------*- C++ -*----------------------------------*\
  =========                 |
  \\      /  F ield         | OpenFOAM: The Open Source CFD Toolbox
   \\    /   O peration     | Website:  https://openfoam.org
    \\  /    A nd           | Version:  6
     \\/     M anipulation  |
\*---------------------------------------------------------------------------*/
FoamFile
{
    version     2.0;
    format      ascii;
    class       volVectorField;
    location    "400";
    object      U;
}
// * * * * * * * * * * * * * * * * * * * * * * * * * * * * * * * * * * * * * //

dimensions      [0 1 -1 0 0 0 0];

internalField   nonuniform List<vector> 
7000
(
(0.000600864 0.00060428 0.997867)
(0.000760414 0.000605364 0.999409)
(0.000218293 0.00060505 0.998944)
(8.82801e-05 0.000605143 0.998944)
(2.75348e-05 0.000605254 0.998946)
(-3.42442e-05 0.000605343 0.998946)
(-9.41223e-05 0.000605393 0.998942)
(-0.000222496 0.000605425 0.998941)
(-0.000764218 0.000605846 0.999407)
(-0.000603047 0.000604815 0.997861)
(0.000601941 0.000766956 0.999413)
(0.000760898 0.00076747 1.00096)
(0.000218234 0.000767642 1.00049)
(8.83939e-05 0.000767795 1.00049)
(2.77265e-05 0.000768074 1.00049)
(-3.4084e-05 0.000768381 1.00049)
(-9.39394e-05 0.000768673 1.00049)
(-0.000222194 0.000768991 1.00049)
(-0.000764511 0.000769174 1.00096)
(-0.000604049 0.000768789 0.999409)
(0.000601631 0.000225264 0.998946)
(0.000761073 0.00022526 1.00049)
(0.000218545 0.000225568 1.00002)
(8.87444e-05 0.000225877 1.00002)
(2.81329e-05 0.000226274 1.00003)
(-3.36616e-05 0.000226741 1.00003)
(-9.35511e-05 0.000227221 1.00002)
(-0.000221921 0.000227654 1.00002)
(-0.00076432 0.000227879 1.00049)
(-0.000603625 0.000228007 0.998941)
(0.000601738 9.66641e-05 0.998946)
(0.000761232 9.68593e-05 1.00049)
(0.000218847 9.71904e-05 1.00002)
(8.91236e-05 9.75571e-05 1.00002)
(2.85986e-05 9.80164e-05 1.00003)
(-3.3147e-05 9.85499e-05 1.00003)
(-9.30514e-05 9.90997e-05 1.00002)
(-0.000221526 9.95933e-05 1.00002)
(-0.000764075 9.98833e-05 1.00049)
(-0.000603628 9.98311e-05 0.998943)
(0.000601875 3.68543e-05 0.998949)
(0.000761519 3.71627e-05 1.00049)
(0.000219213 3.75274e-05 1.00003)
(8.95695e-05 3.79498e-05 1.00003)
(2.91267e-05 3.84575e-05 1.00003)
(-3.2576e-05 3.90272e-05 1.00003)
(-9.2504e-05 3.96043e-05 1.00003)
(-0.000221098 4.01167e-05 1.00003)
(-0.000763861 4.04415e-05 1.00049)
(-0.00060361 4.03601e-05 0.998947)
(0.000602007 -2.48935e-05 0.998949)
(0.000761839 -2.45737e-05 1.00049)
(0.000219619 -2.42088e-05 1.00003)
(9.00516e-05 -2.37648e-05 1.00003)
(2.96757e-05 -2.32533e-05 1.00003)
(-3.19983e-05 -2.26997e-05 1.00003)
(-9.19584e-05 -2.21514e-05 1.00003)
(-0.000220665 -2.16681e-05 1.00003)
(-0.000763616 -2.13311e-05 1.00049)
(-0.000603548 -2.13465e-05 0.998949)
(0.000602123 -8.56583e-05 0.998946)
(0.000762162 -8.52705e-05 1.00049)
(0.000220026 -8.49302e-05 1.00002)
(9.05227e-05 -8.44987e-05 1.00002)
(3.01903e-05 -8.40202e-05 1.00003)
(-3.14738e-05 -8.35239e-05 1.00003)
(-9.14713e-05 -8.30476e-05 1.00003)
(-0.000220276 -8.26401e-05 1.00003)
(-0.000763359 -8.23041e-05 1.00049)
(-0.00060344 -8.23901e-05 0.998947)
(0.000602243 -0.000215533 0.998945)
(0.000762546 -0.000214988 1.00049)
(0.000220411 -0.000214705 1.00002)
(9.09584e-05 -0.000214314 1.00002)
(3.06478e-05 -0.000213895 1.00003)
(-3.10259e-05 -0.000213477 1.00003)
(-9.10742e-05 -0.000213101 1.00003)
(-0.000219939 -0.000212776 1.00003)
(-0.000763227 -0.000212527 1.00049)
(-0.000603384 -0.00021282 0.998948)
(0.00060277 -0.000757796 0.99941)
(0.000762864 -0.000757854 1.00095)
(0.000220692 -0.000757542 1.00049)
(9.12999e-05 -0.000757157 1.00049)
(3.10112e-05 -0.000756828 1.00049)
(-3.06745e-05 -0.000756518 1.00049)
(-9.07487e-05 -0.000756255 1.00049)
(-0.0002197 -0.000756154 1.00049)
(-0.000763189 -0.000756107 1.00095)
(-0.00060376 -0.000755541 0.999412)
(0.000601845 -0.000599705 0.997869)
(0.000762706 -0.0006006 0.999413)
(0.000221101 -0.000600082 0.998947)
(9.15395e-05 -0.000599965 0.998948)
(3.11514e-05 -0.00059985 0.998951)
(-3.05759e-05 -0.00059973 0.998952)
(-9.08191e-05 -0.000599612 0.998949)
(-0.000219996 -0.000599573 0.99895)
(-0.000762614 -0.000599939 0.999415)
(-0.000602483 -0.000598658 0.997875)
(0.00146847 0.00147682 0.994336)
(0.00172847 0.00148253 0.999181)
(0.000435474 0.00147923 0.997313)
(0.000271443 0.00147918 0.997302)
(8.84847e-05 0.00147843 0.997291)
(-0.000108383 0.00147735 0.997291)
(-0.000287864 0.00147594 0.9973)
(-0.00044522 0.00147386 0.99731)
(-0.00173477 0.0014754 0.999187)
(-0.00147195 0.00146804 0.994333)
(0.00147422 0.0017417 0.9992)
(0.00173031 0.00174354 1.00405)
(0.000434085 0.00174183 1.00218)
(0.000270306 0.00174076 1.00217)
(8.66751e-05 0.00173933 1.00216)
(-0.000110959 0.00173735 1.00216)
(-0.000291046 0.0017348 1.00217)
(-0.000447753 0.00173177 1.00217)
(-0.0017401 0.00172969 1.00405)
(-0.00147938 0.00172383 0.999188)
(0.00147098 0.000447491 0.997324)
(0.00172867 0.000446291 1.00218)
(0.000433508 0.000445806 1.0003)
(0.000269235 0.000444622 1.00029)
(8.51734e-05 0.000443114 1.00028)
(-0.000113016 0.000441143 1.00028)
(-0.000293726 0.000438598 1.00029)
(-0.000451148 0.000435284 1.0003)
(-0.00174293 0.000431012 1.00218)
(-0.00147855 0.000426668 0.997313)
(0.00147113 0.000287219 0.997315)
(0.00172789 0.000286633 1.00217)
(0.000432422 0.000285944 1.0003)
(0.000267701 0.000284641 1.00029)
(8.32242e-05 0.000282937 1.00027)
(-0.000115519 0.000280713 1.00027)
(-0.000297004 0.000277782 1.00028)
(-0.000455384 0.000273761 1.00029)
(-0.00174824 0.000268639 1.00217)
(-0.00148196 0.0002624 0.997299)
(0.00147079 0.000106483 0.997306)
(0.00172717 0.000105778 1.00216)
(0.000431433 0.000105128 1.00029)
(0.000266229 0.000104008 1.00028)
(8.12445e-05 0.000102441 1.00027)
(-0.000118176 0.000100329 1.00026)
(-0.000300684 9.74228e-05 1.00027)
(-0.000460251 9.32238e-05 1.00028)
(-0.00175436 8.79289e-05 1.00216)
(-0.00148534 8.15108e-05 0.997286)
(0.00147043 -9.0351e-05 0.997306)
(0.00172649 -9.11635e-05 1.00216)
(0.000430622 -9.17387e-05 1.00029)
(0.000265016 -9.25538e-05 1.00028)
(7.95453e-05 -9.37773e-05 1.00027)
(-0.000120539 -9.54852e-05 1.00026)
(-0.00030411 -9.79401e-05 1.00027)
(-0.000464886 -0.000101666 1.00028)
(-0.00176019 -0.000106277 1.00216)
(-0.00148854 -0.000112007 0.997283)
(0.00147008 -0.000272963 0.997317)
(0.00172592 -0.000273753 1.00217)
(0.000430079 -0.000274158 1.0003)
(0.000264193 -0.000274581 1.00029)
(7.83137e-05 -0.000275369 1.00028)
(-0.000122338 -0.000276559 1.00027)
(-0.000306864 -0.000278408 1.00028)
(-0.00046865 -0.000281379 1.00029)
(-0.00176507 -0.000285078 1.00217)
(-0.00149129 -0.000289786 0.99729)
(0.00146935 -0.00043634 0.997326)
(0.00172561 -0.000436295 1.00218)
(0.000429885 -0.000436709 1.00031)
(0.000263807 -0.000436929 1.0003)
(7.75674e-05 -0.000437442 1.00029)
(-0.000123577 -0.000438262 1.00028)
(-0.000308927 -0.000439612 1.00029)
(-0.00047166 -0.000441989 1.00029)
(-0.00176908 -0.000444729 1.00218)
(-0.00149303 -0.00044817 0.997298)
(0.00147215 -0.00172891 0.999195)
(0.00172641 -0.00173152 1.00405)
(0.000429462 -0.00173084 1.00218)
(0.000263389 -0.00173142 1.00217)
(7.69683e-05 -0.00173236 1.00216)
(-0.000124446 -0.00173361 1.00216)
(-0.000310459 -0.00173539 1.00216)
(-0.000473725 -0.00173785 1.00217)
(-0.00177215 -0.0017405 1.00405)
(-0.00149677 -0.00173934 0.999171)
(0.00146626 -0.00146869 0.99435)
(0.00172382 -0.00147463 0.999195)
(0.000429272 -0.00147195 0.997328)
(0.000262104 -0.00147291 0.997317)
(7.54048e-05 -0.00147362 0.997305)
(-0.000126333 -0.0014745 0.997303)
(-0.000312632 -0.00147567 0.997309)
(-0.00047564 -0.00147652 0.997315)
(-0.00177034 -0.00147983 0.999195)
(-0.00149122 -0.00147433 0.994322)
(0.00199454 0.00201152 0.990131)
(0.00215578 0.00202371 0.998782)
(0.000440377 0.00201581 0.995507)
(0.000423608 0.0020167 0.995483)
(0.000127762 0.00201545 0.995422)
(-0.000166082 0.00201383 0.995421)
(-0.000455745 0.0020118 0.995482)
(-0.000458095 0.00200773 0.995507)
(-0.00216829 0.00201281 0.998802)
(-0.00200326 0.0019988 0.990131)
(0.00200683 0.00218158 0.998827)
(0.00216055 0.00218635 1.0075)
(0.000438918 0.00218137 1.00421)
(0.000422867 0.00218006 1.00419)
(0.000125223 0.00217765 1.00412)
(-0.000170183 0.00217428 1.00412)
(-0.000461548 0.00216985 1.00417)
(-0.000462745 0.00216434 1.00419)
(-0.00217779 0.00216289 1.00749)
(-0.00201733 0.00215276 0.998793)
(0.00199899 0.000462993 0.995534)
(0.00215566 0.000461833 1.00419)
(0.000437691 0.000460801 1.00091)
(0.000420626 0.000458338 1.00089)
(0.00012224 0.00045536 1.00083)
(-0.000174194 0.000451403 1.00082)
(-0.000466439 0.000446305 1.00088)
(-0.000468722 0.000440321 1.0009)
(-0.0021802 0.000432885 1.0042)
(-0.00201317 0.000425437 0.995501)
(0.00200019 0.000453333 0.995514)
(0.00215485 0.000453468 1.00418)
(0.000435424 0.000451994 1.00089)
(0.000417505 0.000449325 1.00087)
(0.000118291 0.000445868 1.00081)
(-0.000179267 0.000441293 1.0008)
(-0.000472718 0.000435342 1.00086)
(-0.00047625 0.00042794 1.00087)
(-0.00218963 0.000418981 1.00417)
(-0.00201959 0.000408252 0.995466)
(0.00199962 0.000160192 0.995457)
(0.0021537 0.000159406 1.00412)
(0.00043347 0.000158091 1.00084)
(0.0004145 0.000155732 1.00081)
(0.00011419 0.00015241 1.00075)
(-0.00018474 0.000147916 1.00074)
(-0.000479813 0.000141948 1.0008)
(-0.000485123 0.000134185 1.00081)
(-0.00219984 0.000124836 1.00411)
(-0.00202472 0.000114752 0.995391)
(0.00199917 -0.000135177 0.995459)
(0.0021526 -0.000136447 1.00412)
(0.000431741 -0.000137635 1.00084)
(0.000411838 -0.000139536 1.00081)
(0.000110473 -0.000142378 1.00075)
(-0.000189739 -0.000146233 1.00075)
(-0.000486457 -0.000151397 1.0008)
(-0.000493448 -0.000158294 1.00081)
(-0.00220948 -0.000166377 1.00411)
(-0.00202976 -0.000174927 0.995379)
(0.00199888 -0.000431181 0.995521)
(0.00215164 -0.000433211 1.00418)
(0.000430394 -0.000434014 1.0009)
(0.000409769 -0.000435196 1.00088)
(0.0001075 -0.000437299 1.00081)
(-0.000193758 -0.000440238 1.00081)
(-0.000491861 -0.000444246 1.00086)
(-0.000500176 -0.000449833 1.00087)
(-0.00221737 -0.000456113 1.00417)
(-0.00203408 -0.000461925 0.995431)
(0.00199694 -0.000445996 0.995543)
(0.00215062 -0.000446285 1.0042)
(0.000429834 -0.000447093 1.00092)
(0.000408565 -0.000447704 1.0009)
(0.00010544 -0.000449157 1.00083)
(-0.000196688 -0.000451187 1.00083)
(-0.000496042 -0.000454035 1.00088)
(-0.000505426 -0.000458244 1.00089)
(-0.00222282 -0.00046224 1.0042)
(-0.00203557 -0.000467744 0.995447)
(0.00200434 -0.00215863 0.99882)
(0.00215432 -0.00216408 1.00748)
(0.000429015 -0.00216073 1.0042)
(0.000407683 -0.00216217 1.00418)
(0.000104062 -0.00216377 1.00412)
(-0.000198562 -0.00216592 1.00412)
(-0.000498753 -0.00216876 1.00417)
(-0.000508293 -0.00217181 1.00418)
(-0.00223079 -0.0021793 1.0075)
(-0.00204543 -0.00217484 0.998735)
(0.00199211 -0.00199547 0.990162)
(0.00214879 -0.00200776 0.998807)
(0.000428381 -0.00200068 0.995535)
(0.000405081 -0.00200298 0.995509)
(0.000101784 -0.00200383 0.995444)
(-0.000200947 -0.00200515 0.995437)
(-0.000500648 -0.00200694 0.995488)
(-0.000511713 -0.00200709 0.995497)
(-0.00222559 -0.00201645 0.998801)
(-0.0020316 -0.00200263 0.990058)
(0.00233965 0.00236808 0.984908)
(0.00234228 0.00238767 0.997819)
(0.000384378 0.00237415 0.993263)
(0.000543684 0.0023767 0.993238)
(0.000132667 0.0023747 0.993117)
(-0.000192902 0.00237261 0.993116)
(-0.000593255 0.00237036 0.993236)
(-0.000408962 0.00236331 0.993266)
(-0.00235678 0.00237318 0.997858)
(-0.00235072 0.00235016 0.984919)
(0.00235944 0.00238496 0.997908)
(0.00235057 0.00239323 1.01086)
(0.000383496 0.00238413 1.00627)
(0.000544251 0.00238312 1.00625)
(0.000129655 0.00237972 1.00612)
(-0.000198486 0.00237503 1.00612)
(-0.000602664 0.00236889 1.00623)
(-0.000416382 0.00235967 1.00624)
(-0.00237216 0.00235935 1.01084)
(-0.00237373 0.00234186 0.997858)
(0.00234599 0.000421934 0.993317)
(0.00234157 0.000421515 1.00624)
(0.000381887 0.000420236 1.00167)
(0.000540751 0.000416578 1.00165)
(0.000125216 0.000412442 1.00152)
(-0.000204452 0.000406597 1.00152)
(-0.000610103 0.000398664 1.00163)
(-0.000426226 0.000388948 1.00164)
(-0.00237495 0.000376412 1.00624)
(-0.00236623 0.000363184 0.993264)
(0.00234899 0.000593247 0.9933)
(0.00234132 0.000595136 1.00623)
(0.000378544 0.000592892 1.00166)
(0.000536402 0.000589269 1.00163)
(0.000119538 0.000584517 1.00151)
(-0.000212149 0.000577839 1.0015)
(-0.000620227 0.00056866 1.00161)
(-0.000438702 0.000556287 1.00162)
(-0.002391 0.000541796 1.00622)
(-0.0023773 0.000523187 0.99321)
(0.002348 0.000185546 0.993186)
(0.00233986 0.000185233 1.00611)
(0.000376057 0.000183525 1.00154)
(0.000532373 0.000180421 1.00152)
(0.000113741 0.000175895 1.00139)
(-0.000220341 0.00016943 1.00138)
(-0.000631677 0.00016038 1.00149)
(-0.000453314 0.000147601 1.00149)
(-0.00240757 0.000132764 1.00609)
(-0.00238549 0.000116283 0.993059)
(0.00234772 -0.000143834 0.993191)
(0.00233878 -0.000145022 1.00611)
(0.000373845 -0.000146346 1.00155)
(0.000528806 -0.000148824 1.00152)
(0.000108546 -0.000152681 1.00139)
(-0.000227675 -0.000158112 1.00138)
(-0.000642051 -0.000165701 1.00149)
(-0.000466555 -0.000176591 1.00149)
(-0.00242269 -0.000189112 1.00609)
(-0.00239338 -0.000202084 0.993031)
(0.00234818 -0.000556392 0.993312)
(0.00233819 -0.000559699 1.00623)
(0.000372117 -0.000560249 1.00167)
(0.000526049 -0.000561696 1.00164)
(0.000104464 -0.000564539 1.00152)
(-0.000233353 -0.000568592 1.0015)
(-0.000650099 -0.000574247 1.00161)
(-0.000476636 -0.000582636 1.0016)
(-0.00243469 -0.000592237 1.00621)
(-0.0024004 -0.000599731 0.993131)
(0.00234468 -0.000393787 0.993335)
(0.00233656 -0.000394517 1.00625)
(0.000371772 -0.000395563 1.00169)
(0.00052453 -0.000395992 1.00166)
(0.000101662 -0.000397933 1.00153)
(-0.000237404 -0.000400651 1.00152)
(-0.000656071 -0.000404421 1.00163)
(-0.000484485 -0.000410706 1.00162)
(-0.00244208 -0.000416621 1.00623)
(-0.00240171 -0.000421107 0.993142)
(0.00235779 -0.00234702 0.997892)
(0.00234424 -0.00235505 1.01083)
(0.000370668 -0.00234767 1.00625)
(0.000523792 -0.00234979 1.00623)
(9.9979e-05 -0.00235122 1.00611)
(-0.00023991 -0.00235362 1.0061)
(-0.000660095 -0.00235731 1.00621)
(-0.000488659 -0.00236071 1.00621)
(-0.00245323 -0.00237077 1.01084)
(-0.00241561 -0.00236235 0.997718)
(0.00233896 -0.0023416 0.984971)
(0.00233627 -0.00236048 0.997875)
(0.000369793 -0.00234764 0.993322)
(0.000519977 -0.00235154 0.993293)
(9.77655e-05 -0.00235177 0.993165)
(-0.000242083 -0.00235309 0.993151)
(-0.000660827 -0.00235569 0.99325)
(-0.000489277 -0.00235453 0.993247)
(-0.00244342 -0.00236727 0.997849)
(-0.00239559 -0.00234714 0.984761)
(0.00259866 0.00264201 0.979171)
(0.00245356 0.0026696 0.996587)
(0.000344723 0.00265016 0.990778)
(0.000642994 0.0026549 0.990742)
(0.000108647 0.00265169 0.990576)
(-0.000194107 0.00264899 0.990574)
(-0.000711822 0.00264656 0.990738)
(-0.000369691 0.00263552 0.990784)
(-0.00246047 0.00264883 0.996649)
(-0.00260978 0.00261682 0.979215)
(0.00262667 0.00251809 0.99674)
(0.00246573 0.00253013 1.01422)
(0.000344725 0.00251688 1.00836)
(0.000645376 0.00251639 1.00833)
(0.000105053 0.00251146 1.00816)
(-0.000201664 0.00250495 1.00814)
(-0.000726168 0.0024962 1.00829)
(-0.0003823 0.00248149 1.00831)
(-0.00248309 0.00247861 1.01421)
(-0.00264195 0.00245269 0.996691)
(0.00260726 0.000401677 0.990872)
(0.00245256 0.000402354 1.0083)
(0.000342905 0.000401089 1.00248)
(0.00064006 0.000395929 1.00244)
(9.8497e-05 0.000390351 1.00227)
(-0.000210713 0.000381811 1.00226)
(-0.000737695 0.000369277 1.00241)
(-0.000399401 0.000353433 1.00243)
(-0.00248972 0.000331141 1.0083)
(-0.00263245 0.000306497 0.990805)
(0.00261267 0.000718248 0.99085)
(0.00245323 0.000722625 1.00829)
(0.000338256 0.000719377 1.00246)
(0.000634321 0.000714808 1.00243)
(9.0521e-05 0.000708537 1.00225)
(-0.000222346 0.000699039 1.00224)
(-0.000754133 0.000684882 1.00239)
(-0.000420504 0.000664787 1.00239)
(-0.00251884 0.000639144 1.00827)
(-0.00265261 0.00060624 0.990714)
(0.00261102 0.000187504 0.990698)
(0.00245137 0.000188083 1.00814)
(0.000335343 0.000186016 1.0023)
(0.000629209 0.000182229 1.00227)
(8.26364e-05 0.00017644 1.0021)
(-0.000234422 0.000167504 1.00208)
(-0.000771967 0.000154001 1.00222)
(-0.000445767 0.000134114 1.00222)
(-0.00254714 0.000107717 1.0081)
(-0.00266545 8.03473e-05 0.990491)
(0.00261116 -0.000123345 0.990705)
(0.00245062 -0.000123902 1.00814)
(0.000332757 -0.000125153 1.00231)
(0.000624808 -0.000128035 1.00228)
(7.57945e-05 -0.00013277 1.0021)
(-0.000244796 -0.000139959 1.00209)
(-0.000787486 -0.000150698 1.00222)
(-0.000467364 -0.000166844 1.00221)
(-0.0025727 -0.000187927 1.00809)
(-0.00267853 -0.000209514 0.990439)
(0.00261309 -0.000661632 0.99087)
(0.00245107 -0.000666155 1.00831)
(0.000330779 -0.000665995 1.00248)
(0.000621598 -0.000667506 1.00245)
(7.07267e-05 -0.00067079 1.00227)
(-0.000252336 -0.000675814 1.00225)
(-0.000798721 -0.00068323 1.00239)
(-0.000482645 -0.000694698 1.00237)
(-0.00259243 -0.000709874 1.00826)
(-0.00269011 -0.000719977 0.990565)
(0.00260775 -0.000358991 0.990901)
(0.00244889 -0.00035962 1.00832)
(0.00033105 -0.00036103 1.0025)
(0.000620026 -0.000360811 1.00247)
(6.75046e-05 -0.000362957 1.0023)
(-0.000257289 -0.00036604 1.00228)
(-0.000806327 -0.000370464 1.00241)
(-0.000493663 -0.000378564 1.0024)
(-0.00260155 -0.000384688 1.00829)
(-0.00269003 -0.000391533 0.990577)
(0.00262743 -0.00246092 0.996708)
(0.00246119 -0.0024712 1.01418)
(0.000329599 -0.0024594 1.00833)
(0.000620042 -0.00246202 1.0083)
(6.59411e-05 -0.00246239 1.00813)
(-0.000260162 -0.00246455 1.00812)
(-0.000811365 -0.00246872 1.00826)
(-0.000496516 -0.00247036 1.00825)
(-0.00261791 -0.00248589 1.01418)
(-0.00271217 -0.00247232 0.99641)
(0.00260145 -0.0026021 0.979281)
(0.00245085 -0.00262815 0.996697)
(0.000328825 -0.00260892 0.99089)
(0.000615265 -0.00261464 0.990851)
(6.45364e-05 -0.00261339 0.990675)
(-0.000261283 -0.00261439 0.990653)
(-0.00080852 -0.00261769 0.990782)
(-0.000497386 -0.00261326 0.990769)
(-0.00260319 -0.0026344 0.996647)
(-0.00268084 -0.00260247 0.978942)
(0.00279309 0.00285616 0.973309)
(0.00251547 0.00289199 0.995323)
(0.000317219 0.00286655 0.988241)
(0.000721444 0.00287389 0.98817)
(6.37495e-05 0.00286914 0.987974)
(-0.000179972 0.00286571 0.987968)
(-0.000808311 0.00286312 0.988162)
(-0.000332724 0.00284659 0.98825)
(-0.002495 0.00286301 0.995413)
(-0.00278995 0.0028178 0.973423)
(0.00282974 0.00260873 0.995567)
(0.00253181 0.0026247 1.01768)
(0.000318595 0.00260746 1.01052)
(0.000726273 0.00260767 1.01047)
(5.95439e-05 0.00260087 1.01026)
(-0.000189851 0.00259186 1.01024)
(-0.00082948 0.0025794 1.01041)
(-0.000352552 0.0025552 1.01045)
(-0.00252958 0.00254603 1.01767)
(-0.00283552 0.0025023 0.995557)
(0.00280425 0.000399756 0.988395)
(0.00251461 0.000402017 1.01043)
(0.000316678 0.000401 1.00332)
(0.000718655 0.00039418 1.00326)
(5.01455e-05 0.00038693 1.00305)
(-0.000203572 0.000374582 1.00304)
(-0.000848562 0.000354928 1.00321)
(-0.000383003 0.000327003 1.00326)
(-0.00254832 0.000285794 1.01042)
(-0.00282784 0.000239372 0.988333)
(0.00281254 0.000830484 0.988345)
(0.00251654 0.000838133 1.0104)
(0.000310656 0.000833806 1.00328)
(0.000711472 0.00082845 1.00322)
(3.91355e-05 0.000820478 1.00301)
(-0.000221088 0.00080718 1.00299)
(-0.000876109 0.000785525 1.00316)
(-0.000421787 0.000750191 1.00318)
(-0.00260104 0.000705248 1.01036)
(-0.00286203 0.000644501 0.988156)
(0.00281015 0.000176031 0.988171)
(0.00251443 0.000178042 1.01022)
(0.000307574 0.000175836 1.00311)
(0.000705303 0.000171553 1.00304)
(2.87183e-05 0.000164549 1.00284)
(-0.000238626 0.000152546 1.00281)
(-0.000905569 0.000132616 1.00297)
(-0.000464641 9.87672e-05 1.00298)
(-0.00265179 5.5672e-05 1.01015)
(-0.00288742 4.18369e-06 0.987851)
(0.00281104 -8.28964e-05 0.98818)
(0.00251445 -8.20591e-05 1.01023)
(0.00030485 -8.2981e-05 1.00312)
(0.000700284 -8.58928e-05 1.00305)
(2.01306e-05 -9.11897e-05 1.00285)
(-0.000253035 -0.00010023 1.00282)
(-0.000929787 -0.000115199 1.00297)
(-0.000499877 -0.000141013 1.00297)
(-0.00269512 -0.000175246 1.01015)
(-0.00291183 -0.000212778 0.98776)
(0.00281525 -0.000748554 0.988373)
(0.00251674 -0.000753893 1.01043)
(0.000302902 -0.00075252 1.00331)
(0.000697086 -0.000753772 1.00325)
(1.43971e-05 -0.000757033 1.00304)
(-0.000262618 -0.000762795 1.00302)
(-0.000946104 -0.000772195 1.00317)
(-0.000524021 -0.000789157 1.00316)
(-0.00272752 -0.000812358 1.01035)
(-0.00293213 -0.00082959 0.987889)
(0.00280814 -0.000338375 0.988434)
(0.00251437 -0.00033883 1.01047)
(0.000304196 -0.000340694 1.00337)
(0.000695781 -0.0003395 1.00331)
(1.11316e-05 -0.00034165 1.0031)
(-0.0002683 -0.000344941 1.00307)
(-0.000956065 -0.000349857 1.00322)
(-0.000539288 -0.000360332 1.00321)
(-0.00274088 -0.000368717 1.01042)
(-0.00293305 -0.000375197 0.987923)
(0.00283453 -0.00252813 0.995509)
(0.00253114 -0.00253981 1.01762)
(0.000302243 -0.0025234 1.01047)
(0.000696914 -0.00252618 1.01042)
(9.80283e-06 -0.00252477 1.01022)
(-0.000271448 -0.00252618 1.0102)
(-0.000961803 -0.00253054 1.01036)
(-0.000542178 -0.00253072 1.01035)
(-0.00275941 -0.00254537 1.01763)
(-0.00295808 -0.00252275 0.995041)
(0.00280212 -0.00280052 0.973481)
(0.00251965 -0.00283304 0.995518)
(0.000302046 -0.00280692 0.988434)
(0.000691618 -0.00281433 0.988361)
(1.01244e-05 -0.0028108 0.988156)
(-0.000270616 -0.00281099 0.988125)
(-0.000955458 -0.00281483 0.988266)
(-0.000535584 -0.00280767 0.988265)
(-0.00273275 -0.00282903 0.995454)
(-0.00291608 -0.002786 0.972975)
(0.00292808 0.00301718 0.967404)
(0.00252634 0.00306149 0.994047)
(0.000285089 0.00303017 0.985695)
(0.000774034 0.00304035 0.985568)
(1.77079e-06 0.00303395 0.985349)
(-0.000156695 0.00302968 0.985337)
(-0.0008806 0.0030266 0.985548)
(-0.000269934 0.00300243 0.985704)
(-0.00243791 0.00301705 0.994151)
(-0.00289672 0.00296379 0.967677)
(0.00297386 0.00265763 0.994416)
(0.00254756 0.00267793 1.02122)
(0.00028869 0.00265693 1.01275)
(0.000782155 0.00265789 1.01265)
(-2.84192e-06 0.00264895 1.01241)
(-0.000169454 0.00263652 1.01238)
(-0.000911615 0.00261781 1.01257)
(-0.000304696 0.00257838 1.01266)
(-0.00248496 0.00255288 1.02119)
(-0.00295127 0.0024864 0.99454)
(0.00294231 0.00040179 0.98593)
(0.00252644 0.000406391 1.01261)
(0.000286544 0.000405684 1.00422)
(0.000771626 0.000397083 1.00411)
(-1.61761e-05 0.000387754 1.00388)
(-0.00019086 0.000369954 1.00385)
(-0.000943909 0.000338644 1.00403)
(-0.000357409 0.00029047 1.00412)
(-0.00253076 0.000217426 1.01258)
(-0.00295871 0.000121533 0.985927)
(0.00295384 0.000928066 0.985835)
(0.00252992 0.000939922 1.01255)
(0.000279168 0.000934541 1.00414)
(0.000762878 0.000928633 1.00403)
(-3.12835e-05 0.000918725 1.0038)
(-0.000217363 0.00090022 1.00376)
(-0.000989351 0.000866771 1.00394)
(-0.000426112 0.000808868 1.004)
(-0.00263136 0.000725591 1.01246)
(-0.0030231 0.00060831 0.985599)
(0.00295084 0.000157855 0.985652)
(0.00252797 0.000162074 1.01236)
(0.000276278 0.000160137 1.00396)
(0.000755762 0.000155702 1.00384)
(-4.48349e-05 0.000147691 1.00361)
(-0.000243007 0.00013181 1.00357)
(-0.00103527 0.000102426 1.00373)
(-0.000501143 5.08969e-05 1.00377)
(-0.0027272 -2.70478e-05 1.01223)
(-0.00307221 -0.000123085 0.985166)
(0.00295297 -2.80095e-05 0.985663)
(0.00252941 -2.47789e-05 1.01238)
(0.000273852 -2.49696e-05 1.00397)
(0.000750574 -2.72434e-05 1.00386)
(-5.51629e-05 -3.24639e-05 1.00363)
(-0.000262648 -4.33743e-05 1.00359)
(-0.00107003 -6.37423e-05 1.00374)
(-0.000557577 -0.00010066 1.00376)
(-0.00280357 -0.00015528 1.01224)
(-0.00311194 -0.000225503 0.985002)
(0.00296028 -0.000813669 0.985872)
(0.00253449 -0.000819282 1.0126)
(0.000272474 -0.000815956 1.00419)
(0.000748241 -0.000816274 1.00408)
(-6.09485e-05 -0.000818543 1.00385)
(-0.000274277 -0.00082444 1.00381)
(-0.00109213 -0.000835932 1.00396)
(-0.000591712 -0.000857998 1.00397)
(-0.00285659 -0.000891587 1.01248)
(-0.00314412 -0.000921836 0.98509)
(0.00295171 -0.000316665 0.98598)
(0.00253262 -0.000316148 1.01268)
(0.0002755 -0.000318004 1.00429)
(0.000747993 -0.000315022 1.00418)
(-6.32936e-05 -0.000316371 1.00395)
(-0.000280201 -0.000319065 1.00392)
(-0.00110345 -0.000323524 1.00407)
(-0.000611889 -0.000334919 1.00407)
(-0.00287464 -0.000342107 1.0126)
(-0.0031462 -0.000344671 0.985162)
(0.00298571 -0.00254759 0.994318)
(0.00255483 -0.00255998 1.02113)
(0.000273624 -0.0025383 1.01266)
(0.000751255 -0.00254028 1.01257)
(-6.362e-05 -0.00253572 1.01235)
(-0.000282351 -0.00253518 1.01232)
(-0.00110852 -0.0025379 1.01249)
(-0.000608978 -0.0025312 1.0125)
(-0.00288821 -0.00254393 1.02114)
(-0.00317428 -0.00250933 0.993555)
(0.0029468 -0.00294171 0.967653)
(0.00254258 -0.00298081 0.99436)
(0.000274646 -0.00294719 0.985998)
(0.000746416 -0.00295581 0.985878)
(-5.9955e-05 -0.0029489 0.985656)
(-0.00027767 -0.00294742 0.985617)
(-0.00109257 -0.00295085 0.985759)
(-0.000593767 -0.00293609 0.985782)
(-0.0028539 -0.00296163 0.994301)
(-0.00312202 -0.00290661 0.966908)
(0.0030143 0.00313784 0.961446)
(0.00249784 0.00319073 0.992713)
(0.000244954 0.00315401 0.983122)
(0.000798679 0.00316742 0.982927)
(-7.72042e-05 0.00315975 0.982688)
(-0.000132262 0.00315498 0.982664)
(-0.000922905 0.00315102 0.98288)
(-0.000174289 0.00311773 0.983106)
(-0.00225479 0.00313823 0.992797)
(-0.00286091 0.00306048 0.962098)
(0.00306969 0.00267984 0.993252)
(0.00252481 0.00270497 1.02475)
(0.000252113 0.00268085 1.01499)
(0.000811682 0.00268303 1.01484)
(-8.10408e-05 0.00267238 1.01458)
(-0.000147859 0.00265621 1.01454)
(-0.000966239 0.00262798 1.01474)
(-0.000218347 0.002567 1.01488)
(-0.00232491 0.00251446 1.02466)
(-0.00294265 0.00239108 0.993781)
(0.00303243 0.000408243 0.98347)
(0.00250029 0.000416229 1.0148)
(0.000249919 0.00041622 1.00515)
(0.000798115 0.000406306 1.00498)
(-9.9053e-05 0.000395129 1.00473)
(-0.000180601 0.00037043 1.00469)
(-0.00101932 0.000322255 1.00487)
(-0.000316848 0.000238017 1.00501)
(-0.0024324 9.83037e-05 1.01466)
(-0.00297362 -8.59832e-05 0.983736)
(0.0030476 0.00101414 0.983322)
(0.00250592 0.00103152 1.0147)
(0.000241772 0.00102564 1.00503)
(0.000788397 0.0010201 1.00486)
(-0.000118836 0.00100891 1.00461)
(-0.000219081 0.000984451 1.00456)
(-0.00109569 0.000934838 1.00472)
(-0.000442592 0.00083379 1.00481)
(-0.0026167 0.000687055 1.01449)
(-0.00309078 0.000451109 0.983056)
(0.00304453 0.000138622 0.983137)
(0.00250514 0.000146355 1.01451)
(0.000240056 0.000145633 1.00485)
(0.000781298 0.000142162 1.00468)
(-0.000135059 0.000134402 1.00443)
(-0.000255024 0.000115093 1.00437)
(-0.00116997 7.41965e-05 1.00452)
(-0.000569181 -1.16947e-05 1.00456)
(-0.00280741 -0.000138066 1.01427)
(-0.00321164 -0.000344464 0.982296)
(0.00304865 3.77725e-05 0.98315)
(0.00250918 4.49242e-05 1.01454)
(0.000239009 4.63583e-05 1.00487)
(0.000777347 4.61919e-05 1.0047)
(-0.000145873 4.27277e-05 1.00445)
(-0.00027931 3.12866e-05 1.0044)
(-0.00122199 5.71784e-06 1.00454)
(-0.000657812 -5.23022e-05 1.00457)
(-0.0029464 -0.000141453 1.01436)
(-0.00330195 -0.00028457 0.982075)
(0.00306011 -0.000858607 0.983363)
(0.00251847 -0.00086325 1.01478)
(0.000239397 -0.000856868 1.0051)
(0.000777604 -0.000854912 1.00494)
(-0.000149948 -0.000854397 1.0047)
(-0.00029205 -0.000858826 1.00464)
(-0.00125286 -0.000871704 1.00478)
(-0.00071509 -0.000902884 1.0048)
(-0.00304555 -0.000955667 1.01466)
(-0.00336268 -0.00101623 0.982111)
(0.00305091 -0.00029281 0.983526)
(0.00251841 -0.000290887 1.01491)
(0.000245232 -0.000292122 1.00525)
(0.000779818 -0.000286401 1.00509)
(-0.000149732 -0.000285811 1.00486)
(-0.000296861 -0.000286778 1.00481)
(-0.00126582 -0.000289006 1.00495)
(-0.000739587 -0.000298756 1.00496)
(-0.00306861 -0.000295637 1.01486)
(-0.00336633 -0.000297154 0.982185)
(0.00309248 -0.00253406 0.993095)
(0.00254612 -0.00254579 1.02464)
(0.000243932 -0.0025183 1.01487)
(0.000786063 -0.00251826 1.01473)
(-0.000148341 -0.00250928 1.0145)
(-0.000296436 -0.00250526 1.01446)
(-0.00126549 -0.00250351 1.01462)
(-0.000719222 -0.00248515 1.01464)
(-0.00306729 -0.00248097 1.0247)
(-0.00339573 -0.00239993 0.991857)
(0.0030485 -0.00303913 0.961785)
(0.00253498 -0.00308344 0.993187)
(0.000247106 -0.00304187 0.983574)
(0.000782979 -0.00305081 0.9834)
(-0.00013937 -0.00303948 0.983174)
(-0.000285044 -0.00303514 0.983129)
(-0.00123689 -0.00303644 0.983262)
(-0.000686946 -0.00301278 0.983319)
(-0.00298189 -0.00303503 0.993222)
(-0.003297 -0.00293118 0.960725)
(0.0030623 0.00323084 0.955458)
(0.00244258 0.00329251 0.991309)
(0.000197184 0.00325136 0.98052)
(0.000794517 0.00326847 0.980245)
(-0.000174464 0.00326042 0.979984)
(-0.000112904 0.0032559 0.979936)
(-0.000951096 0.00325145 0.980133)
(-8.53582e-06 0.00321039 0.980434)
(-0.00182093 0.00320971 0.991258)
(-0.00268656 0.00315703 0.956967)
(0.00312805 0.00269172 0.992078)
(0.00247672 0.0027224 1.02824)
(0.00020968 0.0026963 1.01724)
(0.000814731 0.0027004 1.01703)
(-0.000175327 0.00268901 1.01675)
(-0.000129897 0.00266857 1.01669)
(-0.00100545 0.00262744 1.01689)
(-8.81257e-05 0.002533 1.01709)
(-0.00190044 0.00240985 1.02805)
(-0.00272285 0.00225864 0.993694)
(0.00308578 0.000423891 0.981022)
(0.00244965 0.000436477 1.01697)
(0.000207737 0.00043778 1.0061)
(0.000798101 0.000427291 1.00586)
(-0.000199343 0.000414463 1.0056)
(-0.000179192 0.000380491 1.00553)
(-0.00109641 0.000306084 1.0057)
(-0.0002641 0.000161309 1.00586)
(-0.00210468 -8.89648e-05 1.01663)
(-0.00282083 -0.000532682 0.982055)
(0.00310507 0.00109384 0.980813)
(0.00245829 0.00111836 1.01683)
(0.000199733 0.00111293 1.00593)
(0.000788109 0.0011091 1.0057)
(-0.000224753 0.00109751 1.00543)
(-0.000236184 0.00106537 1.00536)
(-0.00122007 0.000991279 1.0055)
(-0.000483723 0.000834588 1.0056)
(-0.0025468 0.000565085 1.01639)
(-0.00312784 -9.53383e-05 0.980727)
(0.00310283 0.000122933 0.980634)
(0.00246022 0.000135973 1.01665)
(0.000200629 0.000137885 1.00576)
(0.000782543 0.000137172 1.00553)
(-0.000243554 0.000131633 1.00526)
(-0.000286034 0.000108968 1.00519)
(-0.00132714 5.25243e-05 1.00531)
(-0.000698016 -6.50336e-05 1.00536)
(-0.00301445 -0.000268273 1.01621)
(-0.00342602 -0.000718225 0.979166)
(0.00310996 0.000111242 0.980646)
(0.00246857 0.000124351 1.01669)
(0.000202683 0.000128803 1.00579)
(0.000782062 0.000133071 1.00557)