/*--------------------------------*- C++ -*----------------------------------*\
  =========                 |
  \\      /  F ield         | OpenFOAM: The Open Source CFD Toolbox
   \\    /   O peration     | Website:  https://openfoam.org
    \\  /    A nd           | Version:  6
     \\/     M anipulation  |
\*---------------------------------------------------------------------------*/
FoamFile
{
    version     2.0;
    format      ascii;
    class       volScalarField;
    location    "0.045";
    object      T;
}
// * * * * * * * * * * * * * * * * * * * * * * * * * * * * * * * * * * * * * //

dimensions      [0 0 0 1 0 0 0];

internalField   nonuniform List<scalar> 
7000
(
95.1418
95.1415
95.1413
95.1413
95.1412
95.1412
95.1413
95.1413
95.1414
95.1415
95.1415
95.1412
95.141
95.141
95.1409
95.1409
95.141
95.141
95.1411
95.1413
95.1413
95.141
95.1409
95.1408
95.1408
95.1408
95.1408
95.1409
95.141
95.1412
95.1413
95.141
95.1408
95.1407
95.1407
95.1407
95.1407
95.1408
95.1409
95.1411
95.1412
95.1409
95.1408
95.1407
95.1407
95.1407
95.1407
95.1408
95.1409
95.1411
95.1412
95.1409
95.1408
95.1407
95.1407
95.1407
95.1407
95.1408
95.1409
95.1411
95.1413
95.141
95.1408
95.1407
95.1407
95.1407
95.1407
95.1408
95.141
95.1411
95.1413
95.141
95.1409
95.1408
95.1408
95.1408
95.1408
95.1409
95.141
95.1412
95.1414
95.1411
95.141
95.1409
95.1409
95.1409
95.141
95.141
95.1412
95.1413
95.1415
95.1413
95.1412
95.1411
95.1411
95.1411
95.1411
95.1412
95.1413
95.1415
67.1343
67.1336
67.1332
67.133
67.1329
67.1329
67.133
67.1332
67.1335
67.1338
67.1336
67.133
67.1326
67.1324
67.1323
67.1323
67.1324
67.1326
67.1329
67.1333
67.1332
67.1326
67.1322
67.132
67.1319
67.1319
67.132
67.1322
67.1326
67.133
67.133
67.1324
67.132
67.1318
67.1317
67.1317
67.1318
67.132
67.1324
67.1329
67.1329
67.1323
67.1319
67.1317
67.1316
67.1316
67.1317
67.132
67.1323
67.1328
67.1329
67.1323
67.1319
67.1317
67.1316
67.1316
67.1317
67.132
67.1323
67.1328
67.133
67.1324
67.132
67.1318
67.1317
67.1317
67.1319
67.1321
67.1325
67.133
67.1332
67.1326
67.1322
67.132
67.132
67.132
67.1321
67.1323
67.1327
67.1332
67.1335
67.1329
67.1326
67.1324
67.1323
67.1323
67.1325
67.1327
67.1331
67.1336
67.1338
67.1333
67.133
67.1329
67.1328
67.1328
67.133
67.1332
67.1336
67.1341
43.6609
43.6601
43.6597
43.6594
43.6593
43.6593
43.6594
43.6597
43.6601
43.6606
43.6601
43.6594
43.6589
43.6586
43.6585
43.6585
43.6587
43.659
43.6594
43.6601
43.6597
43.6589
43.6584
43.6582
43.6581
43.6581
43.6582
43.6585
43.659
43.6597
43.6594
43.6586
43.6582
43.6579
43.6578
43.6578
43.658
43.6583
43.6588
43.6595
43.6593
43.6585
43.6581
43.6578
43.6577
43.6577
43.6579
43.6582
43.6587
43.6595
43.6593
43.6585
43.6581
43.6578
43.6577
43.6578
43.6579
43.6582
43.6588
43.6595
43.6594
43.6587
43.6582
43.658
43.6579
43.6579
43.6581
43.6584
43.6589
43.6597
43.6597
43.659
43.6585
43.6583
43.6582
43.6582
43.6584
43.6587
43.6593
43.66
43.6601
43.6594
43.659
43.6588
43.6587
43.6588
43.6589
43.6593
43.6598
43.6605
43.6606
43.6601
43.6597
43.6595
43.6595
43.6595
43.6597
43.66
43.6605
43.6613
26.1141
26.1134
26.1129
26.1127
26.1126
26.1126
26.1127
26.113
26.1134
26.114
26.1134
26.1127
26.1122
26.112
26.1119
26.1119
26.1121
26.1124
26.1128
26.1136
26.1129
26.1122
26.1118
26.1116
26.1115
26.1115
26.1116
26.112
26.1125
26.1133
26.1127
26.112
26.1116
26.1113
26.1112
26.1113
26.1114
26.1118
26.1123
26.1131
26.1126
26.1119
26.1115
26.1112
26.1111
26.1112
26.1113
26.1117
26.1122
26.113
26.1126
26.1119
26.1115
26.1113
26.1112
26.1112
26.1114
26.1117
26.1123
26.1131
26.1127
26.1121
26.1116
26.1114
26.1113
26.1114
26.1116
26.1119
26.1125
26.1133
26.113
26.1124
26.112
26.1118
26.1117
26.1117
26.1119
26.1122
26.1128
26.1136
26.1134
26.1128
26.1125
26.1123
26.1122
26.1123
26.1125
26.1128
26.1134
26.1142
26.114
26.1136
26.1133
26.1131
26.113
26.1131
26.1133
26.1136
26.1142
26.115
14.3628
14.3623
14.362
14.3618
14.3617
14.3617
14.3618
14.3621
14.3625
14.363
14.3623
14.3618
14.3614
14.3613
14.3612
14.3612
14.3613
14.3616
14.362
14.3627
14.362
14.3614
14.3611
14.3609
14.3609
14.3609
14.361
14.3613
14.3617
14.3624
14.3618
14.3613
14.3609
14.3607
14.3607
14.3607
14.3608
14.3611
14.3616
14.3623
14.3617
14.3612
14.3609
14.3607
14.3606
14.3606
14.3608
14.3611
14.3616
14.3623
14.3617
14.3612
14.3609
14.3607
14.3606
14.3607
14.3608
14.3611
14.3616
14.3623
14.3618
14.3613
14.361
14.3608
14.3608
14.3608
14.361
14.3613
14.3618
14.3625
14.3621
14.3616
14.3613
14.3611
14.3611
14.3611
14.3613
14.3616
14.3621
14.3628
14.3625
14.362
14.3618
14.3616
14.3616
14.3616
14.3618
14.3621
14.3625
14.3633
14.363
14.3627
14.3624
14.3623
14.3623
14.3623
14.3625
14.3628
14.3633
14.364
7.2743
7.27396
7.27374
7.27362
7.27357
7.27359
7.27368
7.27386
7.27415
7.27455
7.27396
7.27362
7.2734
7.27328
7.27323
7.27325
7.27335
7.27354
7.27386
7.27435
7.27374
7.2734
7.27318
7.27306
7.27302
7.27304
7.27314
7.27334
7.27368
7.2742
7.27362
7.27328
7.27306
7.27294
7.2729
7.27292
7.27303
7.27324
7.27359
7.27412
7.27357
7.27323
7.27302
7.2729
7.27285
7.27288
7.27299
7.27321
7.27356
7.27409
7.27359
7.27325
7.27304
7.27292
7.27288
7.27291
7.27302
7.27324
7.2736
7.27413
7.27368
7.27335
7.27314
7.27303
7.27299
7.27302
7.27314
7.27335
7.27371
7.27425
7.27387
7.27355
7.27335
7.27324
7.27321
7.27324
7.27336
7.27357
7.27393
7.27447
7.27416
7.27387
7.27369
7.2736
7.27357
7.27361
7.27372
7.27394
7.2743
7.27483
7.27457
7.27436
7.27421
7.27413
7.27411
7.27414
7.27426
7.27448
7.27484
7.27538
3.40068
3.40048
3.40036
3.40028
3.40026
3.40027
3.40033
3.40044
3.40062
3.40086
3.40048
3.40029
3.40016
3.40009
3.40006
3.40008
3.40014
3.40026
3.40045
3.40075
3.40036
3.40016
3.40003
3.39996
3.39994
3.39995
3.40002
3.40014
3.40035
3.40067
3.40028
3.40009
3.39996
3.39989
3.39987
3.39989
3.39995
3.40008
3.40029
3.40062
3.40026
3.40006
3.39994
3.39987
3.39985
3.39986
3.39993
3.40006
3.40028
3.40061
3.40028
3.40008
3.39996
3.39989
3.39987
3.39989
3.39995
3.40009
3.4003
3.40063
3.40034
3.40014
3.40002
3.39996
3.39994
3.39996
3.40003
3.40016
3.40038
3.40071
3.40046
3.40027
3.40016
3.4001
3.40008
3.4001
3.40017
3.4003
3.40052
3.40085
3.40065
3.40049
3.40038
3.40033
3.40031
3.40034
3.40041
3.40054
3.40076
3.40109
3.40092
3.40081
3.40072
3.40068
3.40066
3.40069
3.40076
3.40089
3.40111
3.40145
1.47184
1.47173
1.47167
1.47163
1.47161
1.47162
1.47164
1.47168
1.47171
1.47177
1.47173
1.47163
1.47156
1.47153
1.47151
1.47152
1.47154
1.47158
1.47162
1.47171
1.47167
1.47156
1.4715
1.47146
1.47145
1.47145
1.47148
1.47152
1.47157
1.47167
1.47163
1.47153
1.47146
1.47142
1.47141
1.47142
1.47145
1.47149
1.47154
1.47164
1.47162
1.47151
1.47145
1.47141
1.4714
1.47141
1.47144
1.47148
1.47154
1.47164
1.47163
1.47153
1.47146
1.47143
1.47141
1.47142
1.47145
1.47149
1.47155
1.47165
1.47166
1.47156
1.4715
1.47147
1.47146
1.47147
1.47149
1.47154
1.4716
1.4717
1.47173
1.47164
1.47158
1.47155
1.47154
1.47155
1.47158
1.47162
1.47168
1.47178
1.47185
1.47176
1.47171
1.47168
1.47167
1.47168
1.47171
1.47176
1.47182
1.47192
1.47201
1.47195
1.47191
1.47188
1.47188
1.47189
1.47192
1.47196
1.47202
1.47212
0.591696
0.591647
0.591615
0.591597
0.591589
0.591583
0.591562
0.591478
0.591241
0.590841
0.591647
0.591598
0.591567
0.591549
0.591541
0.591535
0.591515
0.591433
0.5912
0.590815
0.591616
0.591567
0.591536
0.591518
0.59151
0.591505
0.591485
0.591405
0.591176
0.590795
0.591598
0.59155
0.591519
0.591501
0.591493
0.591488
0.591469
0.59139
0.591163
0.590784
0.591593
0.591545
0.591514
0.591497
0.591489
0.591484
0.591466
0.591387
0.591161
0.590782
0.591599
0.591551
0.591521
0.591504
0.591496
0.591491
0.591473
0.591395
0.591169
0.590791
0.591618
0.591571
0.591542
0.591525
0.591518
0.591514
0.591496
0.591418
0.591192
0.590814
0.591656
0.59161
0.591582
0.591567
0.59156
0.591557
0.591539
0.591461
0.591235
0.590857
0.591716
0.591675
0.59165
0.591637
0.591631
0.591627
0.59161
0.591532
0.591306
0.590929
0.5918
0.591774
0.591754
0.591742
0.591737
0.591734
0.591716
0.591639
0.591413
0.591036
0.221695
0.221674
0.22166
0.221651
0.221643
0.221622
0.221538
0.221233
0.220275
0.218058
0.221674
0.221653
0.221639
0.221631
0.221622
0.221601
0.221518
0.221214
0.220258
0.218048
0.22166
0.22164
0.221626
0.221617
0.221609
0.221588
0.221505
0.221202
0.220247
0.218039
0.221653
0.221632
0.221619
0.22161
0.221602
0.221581
0.221499
0.221196
0.220242
0.218035
0.221651
0.22163
0.221617
0.221608
0.2216
0.221579
0.221497
0.221195
0.220241
0.218034
0.221654
0.221633
0.22162
0.221612
0.221604
0.221583
0.221501
0.221199
0.220245
0.218038
0.221663
0.221643
0.22163
0.221622
0.221614
0.221594
0.221512
0.221209
0.220256
0.218049
0.221681
0.221662
0.221649
0.221642
0.221634
0.221614
0.221532
0.22123
0.220276
0.218069
0.22171
0.221692
0.221682
0.221675
0.221668
0.221647
0.221565
0.221263
0.220309
0.218102
0.22175
0.221739
0.22173
0.221724
0.221718
0.221697
0.221616
0.221313
0.22036
0.218152
0.077677
0.0776686
0.0776629
0.0776581
0.077649
0.0776142
0.0774671
0.0768528
0.0743179
0.0637262
0.0776687
0.0776603
0.0776546
0.0776499
0.0776408
0.0776061
0.0774591
0.0768453
0.0743115
0.0637224
0.0776634
0.0776551
0.0776494
0.0776447
0.0776356
0.077601
0.0774541
0.0768407
0.0743076
0.0637197
0.0776605
0.0776522
0.0776465
0.0776418
0.0776328
0.0775983
0.0774515
0.0768383
0.0743056
0.0637182
0.0776598
0.0776515
0.0776459
0.0776412
0.0776322
0.0775977
0.077451
0.076838
0.0743054
0.0637181
0.0776612
0.0776529
0.0776474
0.0776428
0.0776338
0.0775994
0.0774528
0.0768397
0.0743071
0.0637196
0.0776653
0.0776571
0.0776517
0.0776472
0.0776384
0.077604
0.0774574
0.0768443
0.0743116
0.0637234
0.077673
0.0776652
0.0776601
0.0776558
0.077647
0.0776127
0.0774661
0.076853
0.0743199
0.0637305
0.0776855
0.0776786
0.077674
0.07767
0.0776614
0.0776271
0.0774805
0.0768673
0.0743338
0.0637424
0.0777033
0.0776989
0.0776952
0.0776915
0.077683
0.0776487
0.0775022
0.0768888
0.0743547
0.0637608
0.0255343
0.0255312
0.0255289
0.0255262
0.0255188
0.02549
0.0253759
0.0249477
0.0234577
0.0188349
0.0255313
0.0255281
0.0255258
0.0255232
0.0255158
0.0254871
0.025373
0.024945
0.0234555
0.0188336
0.0255293
0.0255262
0.0255239
0.0255212
0.0255139
0.0254852
0.0253712
0.0249433
0.0234541
0.0188326
0.0255283
0.0255252
0.0255229
0.0255202
0.0255129
0.0254842
0.0253702
0.0249425
0.0234534
0.0188322
0.025528
0.0255249
0.0255227
0.02552
0.0255127
0.025484
0.0253701
0.0249424
0.0234534
0.0188322
0.0255286
0.0255255
0.0255233
0.0255207
0.0255134
0.0254847
0.0253708
0.0249431
0.023454
0.0188327
0.0255303
0.0255272
0.025525
0.0255225
0.0255152
0.0254866
0.0253726
0.0249449
0.0234557
0.0188341
0.0255334
0.0255305
0.0255284
0.0255259
0.0255187
0.02549
0.0253761
0.0249483
0.0234589
0.0188366
0.0255384
0.0255358
0.0255339
0.0255315
0.0255244
0.0254958
0.0253818
0.0249539
0.0234642
0.0188409
0.0255455
0.0255439
0.0255424
0.0255401
0.025533
0.0255044
0.0253904
0.0249624
0.0234722
0.0188476
0.00789951
0.00789841
0.00789751
0.00789611
0.00789173
0.00787515
0.00781461
0.00761117
0.00700127
0.00546386
0.00789846
0.00789737
0.00789647
0.00789508
0.0078907
0.00787413
0.00781363
0.00761028
0.00700055
0.0054634
0.0078978
0.00789671
0.00789581
0.00789442
0.00789005
0.00787349
0.00781302
0.00760972
0.00700009
0.0054631
0.00789745
0.00789636
0.00789547
0.00789408
0.00788971
0.00787317
0.00781271
0.00760944
0.00699987
0.00546295
0.00789737
0.0078963
0.00789541
0.00789402
0.00788966
0.00787312
0.00781267
0.00760942
0.00699986
0.00546295
0.0078976
0.00789653
0.00789565
0.00789428
0.00788992
0.00787338
0.00781294
0.00760968
0.00700011
0.00546315
0.00789822
0.00789716
0.0078963
0.00789494
0.00789059
0.00787406
0.00781361
0.00761034
0.00700071
0.00546363
0.00789937
0.00789836
0.00789753
0.0078962
0.00789186
0.00787534
0.00781489
0.00761158
0.00700185
0.00546453
0.00790123
0.00790033
0.00789958
0.00789829
0.00789397
0.00787745
0.00781698
0.00761362
0.00700374
0.00546602
0.0079039
0.00790333
0.00790269
0.00790143
0.00789713
0.00788061
0.00782013
0.0076167
0.0070066
0.00546833
0.00230672
0.00230636
0.00230602
0.00230538
0.00230327
0.00229572
0.00227016
0.00219208
0.00198413
0.00153148
0.00230638
0.00230603
0.00230569
0.00230505
0.00230295
0.0022954
0.00226985
0.0021918
0.0019839
0.00153134
0.00230617
0.00230581
0.00230548
0.00230484
0.00230274
0.00229519
0.00226966
0.00219162
0.00198376
0.00153124
0.00230606
0.0023057
0.00230537
0.00230473
0.00230263
0.00229509
0.00226956
0.00219154
0.00198369
0.0015312
0.00230604
0.00230569
0.00230535
0.00230472
0.00230262
0.00229508
0.00226956
0.00219153
0.00198369
0.0015312
0.00230612
0.00230577
0.00230544
0.00230481
0.00230271
0.00229517
0.00226965
0.00219162
0.00198378
0.00153127
0.00230634
0.00230599
0.00230566
0.00230503
0.00230294
0.00229541
0.00226988
0.00219185
0.00198398
0.00153143
0.00230674
0.0023064
0.00230609
0.00230547
0.00230338
0.00229584
0.00227032
0.00219227
0.00198436
0.00153173
0.00230738
0.00230708
0.00230679
0.00230618
0.0023041
0.00229657
0.00227103
0.00219296
0.00198499
0.00153222
0.0023083
0.00230811
0.00230786
0.00230726
0.00230519
0.00229765
0.0022721
0.002194
0.00198594
0.00153299
0.000637534
0.000637421
0.000637301
0.000637042
0.000636188
0.000633274
0.000624058
0.000598065
0.000535053
0.000411778
0.000637434
0.000637322
0.000637202
0.000636943
0.00063609
0.000633177
0.000623966
0.000597982
0.000534987
0.000411734
0.00063737
0.000637259
0.000637139
0.000636881
0.000636028
0.000633117
0.000623909
0.000597931
0.000534946
0.000411706
0.000637338
0.000637226
0.000637107
0.000636849
0.000635997
0.000633086
0.00062388
0.000597906
0.000534926
0.000411693
0.000637333
0.000637222
0.000637103
0.000636845
0.000635994
0.000633084
0.000623879
0.000597906
0.000534928
0.000411695
0.00063736
0.00063725
0.000637132
0.000636875
0.000636024
0.000633115
0.00062391
0.000597935
0.000534955
0.000411717
0.00063743
0.000637321
0.000637205
0.000636949
0.000636099
0.00063319
0.000623984
0.000598007
0.000535019
0.000411767
0.000637558
0.000637453
0.000637342
0.000637088
0.00063624
0.000633331
0.000624123
0.00059814
0.000535138
0.00041186
0.000637767
0.000637673
0.000637568
0.000637319
0.000636471
0.000633562
0.000624351
0.000598359
0.000535336
0.000412016
0.000638065
0.000638004
0.000637911
0.000637665
0.000636819
0.000633909
0.000624694
0.00059869
0.000535635
0.000412254
0.000167203
0.00016717
0.00016713
0.000167036
0.000166732
0.000165743
0.000162792
0.000155011
0.000137517
0.00010591
0.000167175
0.000167142
0.000167102
0.000167008
0.000166704
0.000165715
0.000162766
0.000154988
0.000137499
0.000105897
0.000167157
0.000167124
0.000167084
0.000166991
0.000166687
0.000165698
0.00016275
0.000154974
0.000137487
0.000105889
0.000167148
0.000167115
0.000167075
0.000166982
0.000166678
0.00016569
0.000162743
0.000154967
0.000137482
0.000105886
0.000167147
0.000167114
0.000167074
0.000166981
0.000166678
0.00016569
0.000162743
0.000154967
0.000137482
0.000105887
0.000167155
0.000167122
0.000167083
0.00016699
0.000166687
0.000165699
0.000162752
0.000154976
0.000137491
0.000105893
0.000167176
0.000167144
0.000167105
0.000167013
0.00016671
0.000165722
0.000162774
0.000154998
0.00013751
0.000105908
0.000167215
0.000167184
0.000167147
0.000167055
0.000166752
0.000165764
0.000162816
0.000155037
0.000137545
0.000105936
0.000167278
0.00016725
0.000167215
0.000167124
0.000166822
0.000165834
0.000162885
0.000155103
0.000137604
0.000105982
0.000167369
0.000167351
0.000167318
0.000167229
0.000166927
0.000165938
0.000162987
0.000155201
0.000137692
0.000106052
4.17118e-05
4.17024e-05
4.169e-05
4.16594e-05
4.15622e-05
4.12592e-05
4.04007e-05
3.82611e-05
3.37362e-05
2.60423e-05
4.17042e-05
4.16948e-05
4.16825e-05
4.1652e-05
4.15548e-05
4.1252e-05
4.03938e-05
3.82551e-05
3.37314e-05
2.6039e-05
4.16994e-05
4.16901e-05
4.16778e-05
4.16473e-05
4.15502e-05
4.12475e-05
4.03896e-05
3.82513e-05
3.37284e-05
2.6037e-05
4.1697e-05
4.16877e-05
4.16754e-05
4.16449e-05
4.15479e-05
4.12453e-05
4.03875e-05
3.82495e-05
3.3727e-05
2.60361e-05
4.16968e-05
4.16876e-05
4.16753e-05
4.16449e-05
4.15479e-05
4.12453e-05
4.03876e-05
3.82497e-05
3.37272e-05
2.60363e-05
4.16993e-05
4.16901e-05
4.16779e-05
4.16475e-05
4.15506e-05
4.1248e-05
4.03903e-05
3.82523e-05
3.37296e-05
2.60382e-05
4.17053e-05
4.16963e-05
4.16842e-05
4.16539e-05
4.1557e-05
4.12545e-05
4.03967e-05
3.82583e-05
3.37349e-05
2.60424e-05
4.17165e-05
4.17077e-05
4.1696e-05
4.16659e-05
4.15691e-05
4.12665e-05
4.04085e-05
3.82695e-05
3.37449e-05
2.60502e-05
4.17346e-05
4.17266e-05
4.17155e-05
4.16857e-05
4.1589e-05
4.12863e-05
4.04279e-05
3.8288e-05
3.37613e-05
2.60632e-05
4.17605e-05
4.17552e-05
4.17449e-05
4.17154e-05
4.16187e-05
4.13159e-05
4.0457e-05
3.83156e-05
3.3786e-05
2.60828e-05
9.92011e-06
9.9176e-06
9.91403e-06
9.90488e-06
9.8765e-06
9.79142e-06
9.56082e-06
9.01318e-06
7.91173e-06
6.12552e-06
9.91818e-06
9.91569e-06
9.91212e-06
9.90299e-06
9.87462e-06
9.78959e-06
9.55911e-06
9.01166e-06
7.91052e-06
6.12469e-06
9.91697e-06
9.91449e-06
9.91092e-06
9.9018e-06
9.87345e-06
9.78845e-06
9.55804e-06
9.01072e-06
7.90977e-06
6.12417e-06
9.91637e-06
9.91389e-06
9.91033e-06
9.90121e-06
9.87288e-06
9.78791e-06
9.55753e-06
9.01028e-06
7.90943e-06
6.12394e-06
9.91636e-06
9.91389e-06
9.91034e-06
9.90123e-06
9.8729e-06
9.78794e-06
9.55758e-06
9.01035e-06
7.90951e-06
6.12403e-06
9.91704e-06
9.91458e-06
9.91105e-06
9.90195e-06
9.87364e-06
9.78868e-06
9.55831e-06
9.01105e-06
7.91014e-06
6.12453e-06
9.91868e-06
9.91625e-06
9.91276e-06
9.90369e-06
9.87539e-06
9.79043e-06
9.56002e-06
9.01267e-06
7.91157e-06
6.12566e-06
9.9217e-06
9.91935e-06
9.91593e-06
9.90692e-06
9.87864e-06
9.79366e-06
9.56319e-06
9.01566e-06
7.91421e-06
6.12774e-06
9.92657e-06
9.92445e-06
9.92118e-06
9.91223e-06
9.88397e-06
9.79897e-06
9.56838e-06
9.02057e-06
7.91856e-06
6.13119e-06
9.9336e-06
9.93214e-06
9.92908e-06
9.92021e-06
9.89196e-06
9.8069e-06
9.57615e-06
9.02794e-06
7.92512e-06
6.13641e-06
2.25383e-06
2.25319e-06
2.25222e-06
2.2497e-06
2.24204e-06
2.21987e-06
2.1621e-06
2.03046e-06
1.77667e-06
1.38103e-06
2.25337e-06
2.25273e-06
2.25176e-06
2.24924e-06
2.24159e-06
2.21944e-06
2.16169e-06
2.03009e-06
1.77638e-06
1.38083e-06
2.25307e-06
2.25244e-06
2.25148e-06
2.24895e-06
2.24131e-06
2.21916e-06
2.16143e-06
2.02987e-06
1.77621e-06
1.3807e-06
2.25293e-06
2.2523e-06
2.25134e-06
2.24882e-06
2.24117e-06
2.21903e-06
2.16131e-06
2.02977e-06
1.77613e-06
1.38065e-06
2.25293e-06
2.25231e-06
2.25134e-06
2.24882e-06
2.24118e-06
2.21905e-06
2.16133e-06
2.02979e-06
1.77615e-06
1.38067e-06
2.25311e-06
2.25249e-06
2.25153e-06
2.24901e-06
2.24137e-06
2.21924e-06
2.16152e-06
2.02997e-06
1.77631e-06
1.3808e-06
2.25353e-06
2.25292e-06
2.25197e-06
2.24946e-06
2.24182e-06
2.21969e-06
2.16196e-06
2.03038e-06
1.77667e-06
1.38109e-06
2.25431e-06
2.25371e-06
2.25278e-06
2.25028e-06
2.24265e-06
2.22051e-06
2.16276e-06
2.03114e-06
1.77734e-06
1.38162e-06
2.25556e-06
2.25501e-06
2.25412e-06
2.25164e-06
2.24401e-06
2.22186e-06
2.16408e-06
2.03238e-06
1.77844e-06
1.38249e-06
2.25736e-06
2.25698e-06
2.25613e-06
2.25367e-06
2.24605e-06
2.22388e-06
2.16605e-06
2.03424e-06
1.78009e-06
1.38381e-06
4.90133e-07
4.89979e-07
4.89731e-07
4.8908e-07
4.87154e-07
4.81753e-07
4.68157e-07
4.38335e-07
3.83314e-07
3.03281e-07
4.90026e-07
4.89873e-07
4.89625e-07
4.88975e-07
4.87051e-07
4.81652e-07
4.68062e-07
4.38252e-07
3.83248e-07
3.03234e-07
4.89959e-07
4.89807e-07
4.89559e-07
4.8891e-07
4.86986e-07
4.8159e-07
4.68004e-07
4.38201e-07
3.83207e-07
3.03205e-07
4.89927e-07
4.89775e-07
4.89528e-07
4.88879e-07
4.86956e-07
4.81561e-07
4.67978e-07
4.38178e-07
3.8319e-07
3.03193e-07
4.89929e-07
4.89777e-07
4.89531e-07
4.88882e-07
4.8696e-07
4.81566e-07
4.67983e-07
4.38185e-07
3.83197e-07
3.03199e-07
4.89973e-07
4.89822e-07
4.89577e-07
4.88929e-07
4.87007e-07
4.81613e-07
4.68029e-07
4.38229e-07
3.83236e-07
3.03232e-07
4.90076e-07
4.89927e-07
4.89683e-07
4.89037e-07
4.87116e-07
4.81721e-07
4.68135e-07
4.38328e-07
3.83324e-07
3.03303e-07
4.90264e-07
4.9012e-07
4.89881e-07
4.89237e-07
4.87317e-07
4.81921e-07
4.6833e-07
4.38511e-07
3.83485e-07
3.03433e-07
4.90568e-07
4.90437e-07
4.90206e-07
4.89566e-07
4.87647e-07
4.82248e-07
4.68648e-07
4.3881e-07
3.83749e-07
3.03647e-07
4.91008e-07
4.90914e-07
4.90695e-07
4.9006e-07
4.8814e-07
4.82737e-07
4.69125e-07
4.39259e-07
3.84146e-07
3.03968e-07
0.0176656
0.00480197
0.0012712
0.000339648
0.000151148
0.000322113
0.00123873
0.00484022
0.0183286
0.067436
0.0176644
0.00480161
0.00127109
0.000339607
0.000151098
0.000321957
0.0012382
0.00483848
0.0183232
0.0674203
0.0176636
0.00480138
0.00127103
0.000339583
0.00015107
0.000321876
0.00123793
0.00483761
0.0183206
0.0674129
0.0176632
0.00480127
0.00127099
0.000339572
0.000151058
0.000321838
0.00123781
0.00483722
0.0183195
0.0674095
0.0176632
0.00480128
0.001271
0.000339574
0.000151056
0.000321828
0.00123777
0.00483712
0.0183192
0.0674086
0.0176637
0.00480145
0.00127106
0.000339591
0.000151063
0.000321838
0.00123781
0.00483724
0.0183196
0.06741
0.017665
0.00480186
0.00127118
0.000339631
0.00015108
0.000321868
0.00123791
0.0048376
0.0183208
0.0674139
0.0176674
0.00480262
0.00127142
0.000339703
0.000151111
0.000321918
0.00123808
0.00483822
0.018323
0.067421
0.0176713
0.00480387
0.00127181
0.00033982
0.000151157
0.000321984
0.00123831
0.00483906
0.018326
0.0674315
0.0176771
0.00480569
0.00127236
0.000339984
0.000151215
0.000322049
0.00123852
0.00483985
0.0183289
0.0674425
0.00766698
0.00255529
0.000765889
0.00022316
0.000106374
0.000222799
0.000808527
0.00291255
0.00974757
0.0292533
0.00766643
0.00255509
0.000765823
0.000223132
0.000106339
0.000222693
0.000808186
0.00291152
0.00974477
0.0292467
0.00766605
0.00255496
0.000765782
0.000223116
0.00010632
0.000222636
0.000808004
0.00291098
0.00974329
0.0292431
0.00766586
0.0025549
0.000765763
0.000223109
0.00010631
0.000222609
0.00080792
0.00291073
0.00974261
0.0292414
0.00766588
0.00255491
0.000765768
0.00022311
0.000106309
0.000222602
0.000807897
0.00291066
0.00974244
0.029241
0.00766614
0.00255502
0.000765805
0.000223123
0.000106314
0.000222609
0.000807921
0.00291074
0.00974269
0.0292417
0.00766677
0.00255526
0.000765889
0.000223151
0.000106327
0.000222631
0.000807992
0.00291098
0.0097434
0.0292436
0.00766796
0.00255571
0.000766045
0.000223202
0.00010635
0.000222669
0.000808114
0.00291139
0.00974467
0.0292472
0.00766994
0.00255647
0.000766304
0.000223286
0.000106386
0.000222721
0.000808285
0.00291197
0.00974653
0.0292525
0.00767299
0.00255762
0.000766697
0.000223413
0.000106436
0.000222786
0.000808489
0.00291268
0.00974887
0.0292595
0.00268139
0.00103874
0.000348995
0.000111713
5.78142e-05
0.000118378
0.000401017
0.00132506
0.00396027
0.0102274
0.00268118
0.00103865
0.000348964
0.000111698
5.77948e-05
0.000118322
0.000400848
0.00132459
0.00395913
0.010225
0.00268103
0.0010386
0.000348944
0.00011169
5.77837e-05
0.000118291
0.000400755
0.00132433
0.00395849
0.0102236
0.00268096
0.00103857
0.000348936
0.000111686
5.77785e-05
0.000118276
0.00040071
0.00132421
0.00395818
0.010223
0.00268097
0.00103858
0.000348938
0.000111687
5.77776e-05
0.000118272
0.000400698
0.00132418
0.0039581
0.0102228
0.00268108
0.00103863
0.000348957
0.000111694
5.77807e-05
0.000118277
0.000400711
0.00132422
0.00395822
0.0102231
0.00268134
0.00103874
0.000349001
0.000111709
5.77884e-05
0.000118289
0.00040075
0.00132434
0.00395855
0.0102239
0.00268183
0.00103895
0.00034908
0.000111738
5.78023e-05
0.000118312
0.000400818
0.00132455
0.00395914
0.0102253
0.00268263
0.0010393
0.000349214
0.000111785
5.78241e-05
0.000118344
0.000400918
0.00132486
0.00396003
0.0102275
0.00268389
0.00103985
0.000349418
0.000111856
5.78554e-05
0.000118387
0.000401048
0.00132528
0.00396127
0.0102307
0.000835756
0.000360644
0.000133041
4.63922e-05
2.59633e-05
5.19424e-05
0.000164788
0.000504185
0.0013742
0.0031867
0.000835682
0.000360613
0.000133028
4.6386e-05
2.59544e-05
5.19177e-05
0.000164718
0.000504004
0.0013738
0.00318594
0.000835634
0.000360592
0.00013302
4.63822e-05
2.59492e-05
5.19036e-05
0.000164678
0.000503901
0.00137356
0.00318548
0.000835611
0.000360582
0.000133017
4.63805e-05
2.59467e-05
5.18968e-05
0.000164659
0.000503851
0.00137345
0.00318525
0.000835615
0.000360585
0.000133018
4.63809e-05
2.59463e-05
5.18949e-05
0.000164653
0.000503837
0.00137342
0.0031852
0.000835656
0.000360605
0.000133027
4.63841e-05
2.59478e-05
5.1897e-05
0.000164659
0.000503855
0.00137346
0.0031853
0.000835749
0.00036065
0.000133045
4.63912e-05
2.59516e-05
5.19031e-05
0.000164677
0.000503905
0.00137359
0.00318558
0.000835925
0.000360734
0.000133079
4.64044e-05
2.59585e-05
5.19142e-05
0.000164709
0.000503997
0.00137383
0.0031861
0.000836218
0.000360874
0.000133137
4.64262e-05
2.59695e-05
5.19308e-05
0.000164757
0.000504137
0.0013742
0.00318693
0.00083667
0.000361089
0.000133225
4.64594e-05
2.59854e-05
5.19536e-05
0.000164822
0.000504333
0.00137472
0.00318815
0.000240167
0.000112168
4.46228e-05
1.67707e-05
1.00636e-05
1.96943e-05
5.89082e-05
0.000168749
0.000427144
0.000915435
0.000240144
0.000112158
4.46183e-05
1.67683e-05
1.006e-05
1.96848e-05
5.88827e-05
0.000168688
0.000427014
0.000915208
0.000240129
0.000112151
4.46155e-05
1.67668e-05
1.00579e-05
1.96793e-05
5.88678e-05
0.000168651
0.000426937
0.000915066
0.000240122
0.000112148
4.46143e-05
1.67662e-05
1.00569e-05
1.96766e-05
5.88605e-05
0.000168633
0.000426898
0.000914993
0.000240124
0.000112149
4.46149e-05
1.67664e-05
1.00567e-05
1.96758e-05
5.88584e-05
0.000168629
0.000426888
0.000914976
0.000240138
0.000112156
4.46181e-05
1.67676e-05
1.00573e-05
1.96767e-05
5.88608e-05
0.000168635
0.000426904
0.00091501
0.000240169
0.000112172
4.46251e-05
1.67705e-05
1.0059e-05
1.96793e-05
5.88679e-05
0.000168654
0.00042695
0.000915103
0.000240227
0.000112202
4.46381e-05
1.67758e-05
1.00619e-05
1.9684e-05
5.88807e-05
0.000168689
0.000427034
0.000915277
0.000240324
0.000112251
4.46598e-05
1.67846e-05
1.00667e-05
1.96913e-05
5.89006e-05
0.000168744
0.000427168
0.000915558
0.000240473
0.000112327
4.4693e-05
1.6798e-05
1.00736e-05
1.97015e-05
5.89287e-05
0.000168822
0.000427365
0.000915981
6.46068e-05
3.20277e-05
1.35478e-05
5.43367e-06
3.46474e-06
6.64396e-06
1.88692e-05
5.11141e-05
0.000121881
0.000246168
6.45999e-05
3.20244e-05
1.35464e-05
5.43283e-06
3.46346e-06
6.64071e-06
1.88608e-05
5.10949e-05
0.000121842
0.000246103
6.45955e-05
3.20223e-05
1.35455e-05
5.43231e-06
3.4627e-06
6.63878e-06
1.88559e-05
5.10833e-05
0.000121819
0.000246063
6.45936e-05
3.20214e-05
1.35451e-05
5.43209e-06
3.46233e-06
6.63781e-06
1.88534e-05
5.10775e-05
0.000121807
0.000246042
6.45943e-05
3.20219e-05
1.35453e-05
5.43217e-06
3.46228e-06
6.63755e-06
1.88527e-05
5.1076e-05
0.000121804
0.000246037
6.45985e-05
3.20242e-05
1.35464e-05
5.43263e-06
3.46252e-06
6.63789e-06
1.88536e-05
5.10783e-05
0.000121809
0.000246047
6.46082e-05
3.20294e-05
1.35488e-05
5.43366e-06
3.46314e-06
6.63887e-06
1.88561e-05
5.10848e-05
0.000121824
0.000246076
6.46261e-05
3.2039e-05
1.35532e-05
5.43558e-06
3.46427e-06
6.64065e-06
1.88608e-05
5.10968e-05
0.000121852
0.00024613
6.46559e-05
3.2055e-05
1.35606e-05
5.43874e-06
3.46609e-06
6.64345e-06
1.88681e-05
5.11159e-05
0.000121896
0.000246218
6.47015e-05
3.20794e-05
1.35719e-05
5.44353e-06
3.46878e-06
6.64746e-06
1.88786e-05
5.11439e-05
0.000121962
0.000246352
1.6405e-05
8.51642e-06
3.78921e-06
1.60805e-06
1.08063e-06
2.03416e-06
5.5207e-06
1.42602e-05
3.23849e-05
6.24818e-05
1.64031e-05
8.51549e-06
3.78878e-06
1.60778e-06
1.08022e-06
2.03314e-06
5.5182e-06
1.42546e-05
3.23743e-05
6.24647e-05
1.64019e-05
8.5149e-06
3.78851e-06
1.60762e-06
1.07997e-06
2.03253e-06
5.51668e-06
1.42513e-05
3.23677e-05
6.24537e-05
1.64014e-05
8.51466e-06
3.7884e-06
1.60755e-06
1.07985e-06
2.03222e-06
5.51591e-06
1.42495e-05
3.23644e-05
6.24479e-05
1.64016e-05
8.51481e-06
3.78848e-06
1.60758e-06
1.07983e-06
2.03214e-06
5.51571e-06
1.42491e-05
3.23635e-05
6.24466e-05
1.64028e-05
8.51551e-06
3.78883e-06
1.60773e-06
1.07992e-06
2.03225e-06
5.51599e-06
1.42498e-05
3.23651e-05
6.24497e-05
1.64056e-05
8.51707e-06
3.78958e-06
1.60807e-06
1.08013e-06
2.03258e-06
5.51683e-06
1.42519e-05
3.23696e-05
6.24581e-05
1.64108e-05
8.51994e-06
3.79096e-06
1.6087e-06
1.08052e-06
2.0332e-06
5.51836e-06
1.42557e-05
3.23779e-05
6.24738e-05
1.64194e-05
8.52473e-06
3.79327e-06
1.60973e-06
1.08115e-06
2.03417e-06
5.52081e-06
1.42618e-05
3.23915e-05
6.24996e-05
1.64325e-05
8.53202e-06
3.79677e-06
1.6113e-06
1.08208e-06
2.03558e-06
5.52437e-06
1.42708e-05
3.24119e-05
6.25389e-05
3.95344e-06
2.12905e-06
9.88174e-07
4.40593e-07
3.09843e-07
5.73496e-07
1.49563e-06
3.70889e-06
8.08941e-06
1.50509e-05
3.95295e-06
2.1288e-06
9.88054e-07
4.40513e-07
3.0972e-07
5.73202e-07
1.49493e-06
3.7074e-06
8.08667e-06
1.50466e-05
3.95264e-06
2.12865e-06
9.8798e-07
4.40465e-07
3.09646e-07
5.73024e-07
1.49451e-06
3.70649e-06
8.08494e-06
1.50438e-05
3.95251e-06
2.12858e-06
9.87951e-07
4.40445e-07
3.0961e-07
5.72933e-07
1.49429e-06
3.70601e-06
8.08405e-06
1.50423e-05
3.95258e-06
2.12863e-06
9.87975e-07
4.40454e-07
3.09605e-07
5.72909e-07
1.49423e-06
3.70589e-06
8.08384e-06
1.5042e-05
3.95292e-06
2.12883e-06
9.88076e-07
4.405e-07
3.09632e-07
5.72946e-07
1.49432e-06
3.70611e-06
8.0843e-06
1.50428e-05
3.95369e-06
2.12927e-06
9.88294e-07
4.40603e-07
3.09699e-07
5.7305e-07
1.49457e-06
3.7067e-06
8.08556e-06
1.50451e-05
3.95509e-06
2.13007e-06
9.88697e-07
4.40793e-07
3.09822e-07
5.73243e-07
1.49504e-06
3.70782e-06
8.08792e-06
1.50494e-05
3.95742e-06
2.13141e-06
9.89364e-07
4.41106e-07
3.10022e-07
5.73552e-07
1.49579e-06
3.70962e-06
8.09178e-06
1.50565e-05
3.96096e-06
2.13344e-06
9.90376e-07
4.41578e-07
3.10319e-07
5.74004e-07
1.49689e-06
3.71231e-06
8.0976e-06
1.50674e-05
9.12395e-07
5.07337e-07
2.4438e-07
1.13932e-07
8.34196e-08
1.52001e-07
3.82392e-07
9.14584e-07
1.92591e-06
3.47185e-06
9.12273e-07
5.07273e-07
2.44348e-07
1.1391e-07
8.33852e-08
1.51921e-07
3.82208e-07
9.14204e-07
1.92523e-06
3.4708e-06
9.12198e-07
5.07234e-07
2.44328e-07
1.13896e-07
8.33644e-08
1.51872e-07
3.82094e-07
9.13967e-07
1.9248e-06
3.47012e-06
9.12168e-07
5.07219e-07
2.44321e-07
1.13891e-07
8.33541e-08
1.51847e-07
3.82036e-07
9.13845e-07
1.92457e-06
3.46975e-06
9.12188e-07
5.07232e-07
2.44328e-07
1.13893e-07
8.33529e-08
1.5184e-07
3.82021e-07
9.13815e-07
1.92452e-06
3.46968e-06
9.12278e-07
5.07286e-07
2.44356e-07
1.13907e-07