/*--------------------------------*- C++ -*----------------------------------*\
  =========                 |
  \\      /  F ield         | OpenFOAM: The Open Source CFD Toolbox
   \\    /   O peration     | Website:  https://openfoam.org
    \\  /    A nd           | Version:  6
     \\/     M anipulation  |
\*---------------------------------------------------------------------------*/
FoamFile
{
    version     2.0;
    format      ascii;
    class       surfaceScalarField;
    location    "100";
    object      phi;
}
// * * * * * * * * * * * * * * * * * * * * * * * * * * * * * * * * * * * * * //

dimensions      [0 3 -1 0 0 0 0];

internalField   nonuniform List<scalar> 
8300
(
1.5649e-07
1.57262e-07
9.96862e-05
1.70834e-08
1.57396e-07
9.9982e-05
1.13168e-08
1.57452e-07
9.98483e-05
5.82522e-09
1.57464e-07
9.9848e-05
-6.42126e-10
1.57488e-07
9.98489e-05
-7.05411e-09
1.57503e-07
9.98489e-05
-1.23582e-08
1.57504e-07
9.98478e-05
-1.77974e-08
1.57509e-07
9.98479e-05
-1.57806e-07
1.57458e-07
9.99825e-05
1.57322e-07
9.96848e-05
1.56624e-07
1.75451e-08
9.99831e-05
1.7032e-08
1.74961e-08
0.000100279
1.13381e-08
1.74962e-08
0.000100146
5.84391e-09
1.75052e-08
0.000100145
-6.27172e-10
1.75172e-08
0.000100146
-7.0462e-09
1.75331e-08
0.000100146
-1.23615e-08
1.7551e-08
0.000100145
-1.77367e-08
1.75655e-08
0.000100145
-1.5794e-07
1.7582e-08
0.00010028
1.76489e-08
9.99817e-05
1.56685e-07
1.20405e-08
9.98488e-05
1.7032e-08
1.20698e-08
0.000100145
1.13451e-08
1.20803e-08
0.000100011
5.86322e-09
1.20994e-08
0.000100011
-6.08842e-10
1.21268e-08
0.000100012
-7.03115e-09
1.21599e-08
0.000100012
-1.23414e-08
1.21952e-08
0.000100011
-1.77205e-08
1.22278e-08
0.000100011
-1.57978e-07
1.2257e-08
0.000100146
1.22753e-08
9.98474e-05
1.56708e-07
6.73753e-09
9.98486e-05
1.70443e-08
6.77111e-09
0.000100145
1.13647e-08
6.79914e-09
0.000100011
5.89278e-09
6.83333e-09
0.000100011
-5.74784e-10
6.87759e-09
0.000100012
-6.99611e-09
6.92825e-09
0.000100012
-1.23078e-08
6.98041e-09
0.00010001
-1.76977e-08
7.0276e-09
0.000100011
-1.57941e-07
7.06468e-09
0.000100145
7.1134e-09
9.98472e-05
1.56753e-07
3.74291e-10
9.98496e-05
1.70636e-08
4.12144e-10
0.000100146
1.13974e-08
4.45154e-10
0.000100012
5.93732e-09
4.89862e-10
0.000100012
-5.23778e-10
5.46869e-10
0.000100013
-6.94317e-09
6.11883e-10
0.000100013
-1.22585e-08
6.79211e-10
0.000100012
-1.76613e-08
7.4093e-10
0.000100012
-1.57883e-07
7.95164e-10
0.000100146
8.70915e-10
9.98483e-05
1.56799e-07
-6.02478e-09
9.98496e-05
1.70914e-08
-5.98632e-09
0.000100146
1.14416e-08
-5.95175e-09
0.000100012
5.99402e-09
-5.9012e-09
0.000100012
-4.59135e-10
-5.83747e-09
0.000100013
-6.87573e-09
-5.76512e-09
0.000100013
-1.21969e-08
-5.69013e-09
0.000100012
-1.76159e-08
-5.62094e-09
0.000100012
-1.57788e-07
-5.55583e-09
0.000100146
-5.46288e-09
9.98485e-05
1.56841e-07
-1.14461e-08
9.98485e-05
1.71249e-08
-1.14156e-08
0.000100145
1.14924e-08
-1.13743e-08
0.000100011
6.05661e-09
-1.13236e-08
0.000100011
-3.88117e-10
-1.12622e-08
0.000100012
-6.80156e-09
-1.11946e-08
0.000100012
-1.21302e-08
-1.11262e-08
0.000100011
-1.75671e-08
-1.10644e-08
0.000100011
-1.57667e-07
-1.1011e-08
0.000100146
-1.09164e-08
9.98478e-05
1.56891e-07
-1.71493e-08
9.98488e-05
1.71564e-08
-1.7061e-08
0.000100145
1.15422e-08
-1.70271e-08
0.000100011
6.1157e-09
-1.69904e-08
0.000100011
-3.2157e-10
-1.69444e-08
0.000100012
-6.73221e-09
-1.6895e-08
0.000100012
-1.20692e-08
-1.68461e-08
0.000100011
-1.75208e-08
-1.68006e-08
0.000100011
-1.57559e-07
-1.67648e-08
0.000100146
-1.67604e-08
9.98483e-05
1.56886e-07
-1.56553e-07
9.99825e-05
1.71905e-08
-1.56616e-07
0.000100279
1.15888e-08
-1.56613e-07
0.000100145
6.16437e-09
-1.56544e-07
0.000100145
-2.6334e-10
-1.56467e-07
0.000100146
-6.66851e-09
-1.56369e-07
0.000100146
-1.20185e-08
-1.56256e-07
0.000100145
-1.74857e-08
-1.5616e-07
0.000100145
-1.57415e-07
-1.56025e-07
0.000100279
-1.55772e-07
9.99816e-05
1.56821e-07
9.96866e-05
1.72829e-08
9.99829e-05
1.16324e-08
9.9849e-05
6.22773e-09
9.98488e-05
-1.86621e-10
9.98499e-05
-6.58358e-09
9.985e-05
-1.19333e-08
9.98491e-05
-1.74871e-08
9.98494e-05
-1.57161e-07
9.99836e-05
9.9687e-05
2.2353e-07
2.25293e-07
9.92372e-05
7.0383e-08
2.25579e-07
9.99094e-05
4.28959e-08
2.25415e-07
9.96502e-05
1.76596e-08
2.25511e-07
9.96476e-05
-1.99189e-09
2.25558e-07
9.96429e-05
-2.14804e-08
2.25568e-07
9.96427e-05
-4.62246e-08
2.25534e-07
9.96468e-05
-7.28827e-08
2.25433e-07
9.9649e-05
-2.26723e-07
2.25569e-07
9.99107e-05
2.25226e-07
9.92328e-05
2.23816e-07
7.19042e-08
9.99125e-05
7.04895e-08
7.20247e-08
0.000100586
4.29763e-08
7.20156e-08
0.000100326
1.76942e-08
7.20183e-08
0.000100324
-1.97881e-09
7.20487e-08
0.000100319
-2.1497e-08
7.20824e-08
0.000100319
-4.63063e-08
7.21129e-08
0.000100323
-7.30127e-08
7.21535e-08
0.000100325
-2.27072e-07
7.21825e-08
0.000100587
7.20862e-08
9.99077e-05
2.23662e-07
4.50808e-08
9.96518e-05
7.04797e-08
4.51962e-08
0.000100325
4.30151e-08
4.52483e-08
0.000100065
1.77367e-08
4.52927e-08
0.000100063
-1.95008e-09
4.53633e-08
0.000100058
-2.14873e-08
4.54427e-08
0.000100058
-4.63072e-08
4.55219e-08
0.000100062
-7.29856e-08
4.5598e-08
0.000100064
-2.26912e-07
4.56242e-08
0.000100326
4.56254e-08
9.96468e-05
2.2379e-07
2.03498e-08
9.96494e-05
7.04948e-08
2.04473e-08
0.000100323
4.30594e-08
2.05222e-08
0.000100063
1.78051e-08
2.0611e-08
0.00010006
-1.87237e-09
2.07273e-08
0.000100056
-2.14093e-08
2.08579e-08
0.000100056
-4.62309e-08
2.09915e-08
0.00010006
-7.29197e-08
2.11132e-08
0.000100062
-2.26942e-07
2.1189e-08
0.000100324
2.13233e-08
9.96445e-05
2.23895e-07
1.00448e-09
9.96449e-05
7.05558e-08
1.11264e-09
0.000100319
4.31506e-08
1.19538e-09
0.000100059
1.79212e-08
1.31736e-09
0.000100056
-1.74213e-09
1.47257e-09
0.000100052
-2.12765e-08
1.64938e-09
0.000100051
-4.61076e-08
1.83472e-09
0.000100055
-7.28247e-08
2.00629e-09
0.000100057
-2.26839e-07
2.14297e-09
0.000100319
2.37645e-09
9.96404e-05
2.23996e-07
-1.84331e-08
9.96449e-05
7.06413e-08
-1.83247e-08
0.000100319
4.32752e-08
-1.82428e-08
0.000100059
1.80769e-08
-1.80999e-08
0.000100056
-1.56509e-09
-1.79217e-08
0.000100052
-2.10913e-08
-1.77175e-08
0.000100052
-4.59324e-08
-1.75011e-08
0.000100056
-7.26834e-08
-1.72996e-08
0.000100058
-2.26625e-07
-1.71179e-08
0.00010032
-1.68151e-08
9.9641e-05
2.24081e-07
-4.3435e-08
9.96493e-05
7.07427e-08
-4.33746e-08
0.000100323
4.34206e-08
-4.32937e-08
0.000100063
1.82561e-08
-4.31421e-08
0.000100061
-1.36005e-09
-4.29643e-08
0.000100056
-2.08745e-08
-4.27627e-08
0.000100056
-4.57255e-08
-4.255e-08
0.000100061
-7.25129e-08
-4.23588e-08
0.000100063
-2.26327e-07
-4.21735e-08
0.000100324
-4.18188e-08
9.96464e-05
2.24114e-07
-7.07065e-08
9.96518e-05
7.08627e-08
-7.07008e-08
0.000100326
4.35725e-08
-7.05966e-08
0.000100066
1.84321e-08
-7.04598e-08
0.000100063
-1.16169e-09
-7.03145e-08
0.000100059
-2.06662e-08
-7.01509e-08
0.000100059
-4.55333e-08
-6.99786e-08
0.000100063
-7.23655e-08
-6.98365e-08
0.000100065
-2.25974e-07
-6.9722e-08
0.000100327
-6.93839e-08
9.96498e-05
2.24376e-07
-2.2379e-07
9.9911e-05
7.09679e-08
-2.23919e-07
0.000100586
4.36714e-08
-2.23638e-07
0.000100325
1.8559e-08
-2.2356e-07
0.000100323
-1.00079e-09
-2.23389e-07
0.000100318
-2.04809e-08
-2.23159e-07
0.000100318
-4.53522e-08
-2.22882e-07
0.000100322
-7.22504e-08
-2.22564e-07
0.000100324
-2.25922e-07
-2.22536e-07
0.000100586
-2.21922e-07
9.99081e-05
2.24252e-07
9.92385e-05
7.09961e-08
9.99121e-05
4.37853e-08
9.96525e-05
1.87631e-08
9.96502e-05
-7.49299e-10
9.96459e-05
-2.0198e-08
9.96462e-05
-4.50277e-08
9.96509e-05
-7.19311e-08
9.96536e-05
-2.25307e-07
9.99144e-05
9.92398e-05
2.52156e-07
2.55034e-07
9.87299e-05
9.11329e-08
2.55612e-07
9.98147e-05
5.85121e-08
2.54967e-07
9.94277e-05
2.48207e-08
2.55213e-07
9.94259e-05
-3.47037e-09
2.5525e-07
9.94158e-05
-3.14838e-08
2.55254e-07
9.94153e-05
-6.43373e-08
2.5521e-07
9.94244e-05
-9.55554e-08
2.54917e-07
9.94252e-05
-2.57504e-07
2.55472e-07
9.9817e-05
2.54699e-07
9.87206e-05
2.52737e-07
9.37795e-08
9.98209e-05
9.15485e-08
9.42239e-08
0.000100909
5.86854e-08
9.41305e-08
0.00010052
2.49134e-08
9.4134e-08
0.000100519
-3.45883e-09
9.42011e-08
0.000100509
-3.15714e-08
9.42584e-08
0.000100508
-6.45501e-08
9.42934e-08
0.000100517
-9.60571e-08
9.43557e-08
0.000100517
-2.58283e-07
9.44593e-08
0.000100911
9.402e-08
9.981e-05
2.52109e-07
6.22922e-08
9.9431e-05
9.14532e-08
6.25363e-08
0.000100517
5.87482e-08
6.26238e-08
0.000100129
2.49713e-08
6.27101e-08
0.000100128
-3.41787e-09
6.28478e-08
0.000100118
-3.15577e-08
6.29912e-08
0.000100117
-6.45702e-08
6.31238e-08
0.000100126
-9.59568e-08
6.32538e-08
0.000100126
-2.57692e-07
6.3282e-08
0.000100519
6.32341e-08
9.94199e-05
2.52411e-07
2.94854e-08
9.94296e-05
9.14801e-08
2.97063e-08
0.000100516
5.88332e-08
2.98246e-08
0.000100128
2.50961e-08
2.99903e-08
0.000100127
-3.27659e-09
3.02099e-08
0.000100117
-3.14184e-08
3.04535e-08
0.000100116
-6.44422e-08
3.07015e-08
0.000100125
-9.58453e-08
3.09341e-08
0.000100125
-2.57856e-07
3.1072e-08
0.000100518
3.12988e-08
9.94185e-05
2.52557e-07
1.75018e-09
9.94199e-05
9.16065e-08
1.9577e-09
0.000100507
5.90105e-08
2.10088e-09
0.000100119
2.53147e-08
2.33043e-09
0.000100117
-3.03371e-09
2.62239e-09
0.000100107
-3.11733e-08
2.95747e-09
0.000100107
-6.42204e-08
3.31457e-09
0.000100116
-9.56794e-08
3.65478e-09
0.000100116
-2.57638e-07
3.9057e-09
0.000100508
4.39043e-09
9.94096e-05
2.52733e-07
-2.61464e-08
9.94199e-05
9.17665e-08
-2.59727e-08
0.000100507
5.92428e-08
-2.58197e-08
0.000100119
2.56072e-08
-2.55495e-08
0.000100118
-2.69755e-09
-2.52163e-08
0.000100108
-3.08177e-08
-2.4827e-08
0.000100107
-6.38789e-08
-2.44019e-08
0.000100116
-9.53961e-08
-2.39962e-08
0.000100117
-2.57224e-07
-2.36648e-08
0.000100509
-2.29869e-08
9.94111e-05
2.52921e-07
-5.94195e-08
9.94295e-05
9.19456e-08
-5.93266e-08
0.000100518
5.95078e-08
-5.91844e-08
0.000100129
2.59443e-08
-5.89016e-08
0.000100128
-2.30321e-09
-5.85741e-08
0.000100118
-3.03904e-08
-5.81882e-08
0.000100118
-6.34568e-08
-5.77624e-08
0.000100127
-9.5031e-08
-5.73692e-08
0.000100127
-2.5667e-07
-5.7016e-08
0.000100519
-5.62414e-08
9.94229e-05
2.52903e-07
-9.16706e-08
9.9431e-05
9.21753e-08
-9.18695e-08
0.000100519
5.97932e-08
-9.16114e-08
0.00010013
2.62829e-08
-9.13506e-08
0.000100129
-1.91645e-09
-9.10862e-08
0.000100119
-2.99772e-08
-9.07701e-08
0.000100119
-6.30612e-08
-9.0417e-08
0.000100129
-9.47153e-08
-9.01208e-08
0.00010013
-2.55894e-07
-8.99698e-08
0.000100521
-8.90487e-08
9.94266e-05
2.53705e-07
-2.5253e-07
9.98181e-05
9.24338e-08
-2.52824e-07
0.000100908
5.99659e-08
-2.51988e-07
0.000100518
2.65172e-08
-2.51923e-07
0.000100517
-1.62744e-09
-2.5158e-07
0.000100507
-2.96498e-08
-2.51163e-07
0.000100506
-6.27213e-08
-2.5069e-07
0.000100516
-9.45592e-08
-2.50014e-07
0.000100516
-2.56115e-07
-2.50304e-07
0.000100907
-2.49041e-07
9.9812e-05
2.5342e-07
9.87324e-05
9.22809e-08
9.98204e-05
6.01649e-08
9.94325e-05
2.68814e-08
9.94315e-05
-1.13256e-09
9.94223e-05
-2.90503e-08
9.94229e-05
-6.20445e-08
9.94331e-05
-9.36972e-08
9.94352e-05
-2.54863e-07
9.98252e-05
9.87359e-05
2.69409e-07
2.73517e-07
9.81869e-05
1.01546e-07
2.74467e-07
9.97079e-05
6.4447e-08
2.73296e-07
9.91914e-05
2.74349e-08
2.73732e-07
9.91891e-05
-5.21216e-09
2.73687e-07
9.91747e-05
-3.74503e-08
2.73652e-07
9.91738e-05
-7.32291e-08
2.73595e-07
9.91864e-05
-1.08279e-07
2.72973e-07
9.91871e-05
-2.77389e-07
2.73875e-07
9.97122e-05
2.7234e-07
9.81708e-05
2.7037e-07
1.05453e-07
9.97184e-05
1.023e-07
1.06257e-07
0.000101245
6.47348e-08
1.06027e-07
0.000100725
2.7625e-08
1.06039e-07
0.000100723
-5.23415e-09
1.06145e-07
0.000100709
-3.77229e-08
1.06217e-07
0.000100708
-7.36927e-08
1.0623e-07
0.00010072
-1.09308e-07
1.0627e-07
0.000100719
-2.7892e-07
1.06436e-07
0.000101247
1.05496e-07
9.96979e-05
2.69224e-07
7.00129e-08
9.91971e-05
1.02066e-07
7.04252e-08
0.00010072
6.47941e-08
7.05263e-08
0.000100202
2.76644e-08
7.06668e-08
0.0001002
-5.19581e-09
7.08848e-08
0.000100186
-3.77067e-08
7.11006e-08
0.000100185
-7.37536e-08
7.12835e-08
0.000100197
-1.09145e-07
7.14544e-08
0.000100196
-2.77983e-07
7.1466e-08
0.000100722
7.12748e-08
9.91761e-05
2.69759e-07
3.435e-08
9.91954e-05
1.02118e-07
3.47706e-08
0.00010072
6.49313e-08
3.49142e-08
0.000100201
2.78569e-08
3.51807e-08
0.000100199
-4.98072e-09
3.55363e-08
0.000100185
-3.75043e-08
3.59284e-08
0.000100184
-7.35895e-08
3.63247e-08
0.000100196
-1.09026e-07
3.67048e-08
0.000100195
-2.78409e-07
3.69369e-08
0.000100722
3.7241e-08
9.91741e-05
2.69903e-07
2.59186e-09
9.91816e-05
1.02329e-07
2.93036e-09
0.000100706
6.5219e-08
3.14863e-09
0.000100187
2.82103e-08
3.52427e-09
0.000100186
-4.59007e-09
4.00213e-09
0.000100172
-3.71138e-08
4.55832e-09
0.000100171
-7.3242e-08
5.16238e-09
0.000100183
-1.08773e-07
5.76007e-09
0.000100182
-2.78002e-07
6.18557e-09
0.000100708
7.08534e-09
9.91617e-05
2.70176e-07
-2.94088e-08
9.91816e-05
1.02588e-07
-2.91853e-08
0.000100707
6.55946e-08
-2.89151e-08
0.000100188
2.86891e-08
-2.84699e-08
0.000100186
-4.03119e-09
-2.79232e-08
0.000100172
-3.65121e-08
-2.72679e-08
0.000100171
-7.26519e-08
-2.65307e-08
0.000100184
-1.08265e-07
-2.57962e-08
0.000100184
-2.7726e-07
-2.52395e-08
0.000100709
-2.38807e-08
9.91648e-05
2.70549e-07
-6.57595e-08
9.91952e-05
1.0287e-07
-6.56241e-08
0.000100722
6.60209e-08
-6.5376e-08
0.000100202
2.92439e-08
-6.4916e-08
0.000100201
-3.36479e-09
-6.43794e-08
0.000100187
-3.57692e-08
-6.37268e-08
0.000100186
-7.18929e-08
-6.29808e-08
0.000100199
-1.07574e-07
-6.22513e-08
0.000100199
-2.76294e-07
-6.16445e-08
0.000100724
-6.01468e-08
9.91828e-05
2.70461e-07
-1.02302e-07
9.91969e-05
1.03239e-07
-1.02703e-07
0.000100723
6.64875e-08
-1.02221e-07
0.000100204
2.98148e-08
-1.018e-07
0.000100203
-2.69917e-09
-1.01368e-07
0.000100189
-3.50392e-08
-1.0083e-07
0.000100189
-7.11588e-08
-1.00202e-07
0.000100202
-1.06943e-07
-9.96358e-08
0.000100203
-2.74805e-07
-9.94027e-08
0.000100726
-9.7624e-08
9.91893e-05
2.71858e-07
-2.69868e-07
9.97136e-05
1.03718e-07
-2.70378e-07
0.000101243
6.6783e-08
-2.68923e-07
0.000100722
3.02192e-08
-2.68875e-07
0.00010072
-2.23096e-09
-2.68241e-07
0.000100706
-3.45247e-08
-2.67553e-07
0.000100705
-7.06001e-08
-2.66834e-07
0.000100718
-1.06696e-07
-2.65614e-07
0.000100718
-2.75154e-07
-2.66144e-07
0.000101242
-2.63869e-07
9.9703e-05
2.7137e-07
9.81911e-05
1.03397e-07
9.97179e-05
6.71036e-08
9.91998e-05
3.07766e-08
9.91988e-05
-1.37948e-09
9.91861e-05
-3.34185e-08
9.91873e-05
-6.93835e-08
9.92022e-05
-1.05086e-07
9.92052e-05
-2.72921e-07
9.97269e-05
9.81991e-05
2.82445e-07
2.87912e-07
9.76164e-05
1.09884e-07
2.89293e-07
9.95911e-05
6.81765e-08
2.87615e-07
9.89454e-05
2.85719e-08
2.88256e-07
9.89403e-05
-7.33707e-09
2.88061e-07
9.89224e-05
-4.26974e-08
2.87925e-07
9.89211e-05
-8.06154e-08
2.87777e-07
9.89365e-05
-1.19518e-07
2.86612e-07
9.89393e-05
-2.93694e-07
2.8761e-07
9.95986e-05
2.84677e-07
9.75923e-05
2.83848e-07
1.15226e-07
9.96071e-05
1.10983e-07
1.16406e-07
0.00010159
6.85836e-08
1.16049e-07
0.000100938
2.88526e-08
1.16073e-07
0.000100935
-7.46173e-09
1.16207e-07
0.000100917
-4.3308e-08
1.16271e-07
0.000100915
-8.15512e-08
1.1621e-07
0.00010093
-1.21354e-07
1.16131e-07
0.000100929
-2.96582e-07
1.16223e-07
0.000101594
1.14463e-07
9.95715e-05
2.82211e-07
7.57859e-08
9.89542e-05
1.10621e-07
7.64006e-08
0.000100931
6.86348e-08
7.65209e-08
0.000100283
2.88443e-08
7.67319e-08
0.000100279
-7.45422e-09
7.70441e-08
0.000100261
-4.333e-08
7.73377e-08
0.000100259
-8.17479e-08
7.75553e-08
0.000100274
-1.21266e-07
7.77204e-08
0.000100274
-2.95605e-07
7.76311e-08
0.000100935
7.70727e-08
9.89178e-05
2.83014e-07
3.81124e-08
9.89499e-05
1.10712e-07
3.87868e-08
0.000100929
6.88392e-08
3.8954e-08
0.00010028
2.91214e-08
3.93596e-08
0.000100276
-7.15908e-09
3.98971e-08
0.000100258
-4.30816e-08
4.04891e-08
0.000100256
-8.15978e-08
4.1082e-08
0.000100271
-1.21222e-07
4.16566e-08
0.000100271
-2.96529e-07
4.2003e-08
0.000100933
4.23953e-08
9.89122e-05
2.83141e-07
3.54737e-09
9.89329e-05
1.11025e-07
4.05646e-09
0.000100913
6.92699e-08
4.37468e-09
0.000100264
2.96546e-08
4.95194e-09
0.00010026
-6.57167e-09
5.68839e-09
0.000100242
-4.2499e-08
6.56385e-09
0.00010024
-8.10834e-08
7.53712e-09
0.000100255
-1.20855e-07
8.54284e-09
0.000100255
-2.9589e-07
9.25709e-09
0.000100916
1.08861e-08
9.88973e-05
2.8354e-07
-3.1351e-08
9.89328e-05
1.11418e-07
-3.10566e-08
0.000100914
6.98418e-08
-3.06221e-08
0.000100264
3.03952e-08
-2.99365e-08
0.000100261
-5.69015e-09
-2.90868e-08
0.000100243
-4.15259e-08
-2.80361e-08
0.000100242
-8.01014e-08
-2.68126e-08
0.000100257
-1.19977e-07
-2.55231e-08
0.000100258
-2.94571e-07
-2.4565e-08
0.000100918
-2.19853e-08
9.89031e-05
2.84169e-07
-6.99653e-08
9.89495e-05
1.11849e-07
-6.97583e-08
0.000100932
7.04935e-08
-6.93729e-08
0.000100282
3.12602e-08
-6.86685e-08
0.000100279
-4.6202e-09
-6.78294e-08
0.000100261
-4.02898e-08
-6.67763e-08
0.000100261
-7.87905e-08
-6.55281e-08
0.000100276
-1.18729e-07
-6.42227e-08
0.000100278
-2.92804e-07
-6.31465e-08
0.000100937
-6.03481e-08
9.89284e-05
2.84028e-07
-1.10877e-07
9.89537e-05
1.124e-07
-1.1145e-07
0.000100936
7.12122e-08
-1.10728e-07
0.000100286
3.21658e-08
-1.10095e-07
0.000100283
-3.53164e-09
-1.09411e-07
0.000100266
-3.90475e-08
-1.08536e-07
0.000100266
-7.74788e-08
-1.07487e-07
0.000100282
-1.17514e-07
-1.06443e-07
0.000100285
-2.90098e-07
-1.05938e-07
0.000100942
-1.02835e-07
9.89417e-05
2.86011e-07
-2.82961e-07
9.95996e-05
1.13112e-07
-2.83697e-07
0.000101588
7.16699e-08
-2.81618e-07
0.000100934
3.28181e-08
-2.81546e-07
0.000100931
-2.79329e-09
-2.80496e-07
0.000100913
-3.82371e-08
-2.79411e-07
0.000100912
-7.65332e-08
-2.78309e-07
0.000100927
-1.16976e-07
-2.76298e-07
0.000100928
-2.90197e-07
-2.76846e-07
0.000101587
-2.7296e-07
9.95829e-05
2.85317e-07
9.76227e-05
1.12674e-07
9.96067e-05
7.21827e-08
9.89586e-05
3.36683e-08
9.89557e-05
-1.41617e-09
9.89406e-05
-3.63743e-08
9.89427e-05
-7.44922e-08
9.89619e-05
-1.14324e-07
9.89687e-05
-2.86419e-07
9.96221e-05
9.76397e-05
2.90732e-07
2.97685e-07
9.70279e-05
1.15919e-07
2.99522e-07
9.94663e-05
7.09358e-08
2.97309e-07
9.8693e-05
2.9134e-08
2.9815e-07
9.86839e-05
-9.94114e-09
2.97744e-07
9.86636e-05
-4.83243e-08
2.97407e-07
9.8662e-05
-8.79401e-08
2.96981e-07
9.8679e-05
-1.29141e-07
2.94906e-07
9.86855e-05
-3.05747e-07
2.95516e-07
9.94796e-05
2.89872e-07
9.69966e-05
2.92606e-07
1.22881e-07
9.94892e-05
1.17378e-07
1.24467e-07
0.000101941
7.1454e-08
1.23984e-07
0.000101158
2.94631e-08
1.24028e-07
0.000101151
-1.02851e-08
1.2418e-07
0.00010113
-4.95197e-08
1.24193e-07
0.000101128
-8.97619e-08
1.23952e-07
0.000101143
-1.32403e-07
1.23539e-07
0.000101143
-3.11252e-07
1.23212e-07
0.000101945
1.19791e-07
9.94302e-05
2.90459e-07
8.08828e-08
9.87057e-05
1.16888e-07
8.1734e-08
0.000101148
7.14941e-08
8.18846e-08
0.000100371
2.93901e-08
8.21936e-08
0.000100363
-1.03537e-08
8.26247e-08
0.000100342
-4.96852e-08
8.29984e-08
0.00010034
-9.03077e-08
8.31991e-08
0.000100355
-1.32737e-07
8.32368e-08
0.000100357
-3.10981e-07
8.27703e-08
0.000101154
8.12323e-08
9.86453e-05
2.91558e-07
4.17462e-08
9.86974e-05
1.1704e-07
4.27234e-08
0.000101143
7.17901e-08
4.29373e-08
0.000100364
2.9771e-08
4.35347e-08
0.000100357
-9.98116e-09
4.43184e-08
0.000100336
-4.9444e-08
4.51852e-08
0.000100334
-9.031e-08
4.60438e-08
0.000100349
-1.33042e-07
4.68621e-08
0.00010035
-3.13015e-07
4.7284e-08
0.000101148
4.76806e-08
9.86327e-05
2.91677e-07
4.64129e-09
9.86782e-05
1.17489e-07
5.37567e-09
0.000101125
7.2417e-08
5.83203e-09
0.000100346
3.05472e-08
6.68687e-09
0.000100338
-9.12575e-09
7.78819e-09
0.000100318
-4.86024e-08
9.13457e-09
0.000100316
-8.95999e-08
1.06753e-08
0.000100331
-1.32582e-07
1.23503e-08
0.000100333
-3.12253e-07
1.35916e-08
0.000101129
1.65478e-08
9.86162e-05
2.92244e-07
-3.28998e-08
9.8678e-05
1.18063e-07
-3.24827e-08
0.000101126
7.32609e-08
-3.18378e-08
0.000100347
3.16606e-08
-3.08226e-08
0.00010034
-7.76612e-09
-2.95382e-08
0.00010032
-4.70529e-08
-2.78906e-08
0.000100318
-8.7972e-08
-2.58927e-08
0.000100334
-1.31042e-07
-2.3639e-08
0.000100337
-3.09848e-07
-2.18312e-08
0.000101132
-1.69287e-08
9.86267e-05
2.93195e-07
-7.32684e-08
9.86966e-05
1.187e-07
-7.29424e-08
0.000101147
7.42231e-08
-7.23771e-08
0.000100367
3.29728e-08
-7.13425e-08
0.00010036
-6.08703e-09
-7.00749e-08
0.000100341
-4.50277e-08
-6.84181e-08
0.00010034
-8.57006e-08
-6.63668e-08
0.000100357
-1.28719e-07
-6.4052e-08
0.000100361
-3.0633e-07
-6.20188e-08
0.000101155
-5.67174e-08
9.86619e-05
2.93041e-07
-1.17157e-07
9.87044e-05
1.19489e-07
-1.17872e-07
0.000101155
7.52886e-08
-1.16875e-07
0.000100375
3.43602e-08
-1.15957e-07
0.000100368
-4.35595e-09
-1.14915e-07
0.000100349
-4.29556e-08
-1.13541e-07
0.000100349
-8.33693e-08
-1.11828e-07
0.000100368
-1.26351e-07
-1.09962e-07
0.000100374
-3.01334e-07
-1.08805e-07
0.000101163
-1.03391e-07
9.8687e-05
2.95658e-07
-2.91243e-07
9.94779e-05
1.20467e-07
-2.9218e-07
0.000101938
7.59593e-08
-2.89417e-07
0.000101151
3.53457e-08
-2.8925e-07
0.000101144
-3.21911e-09
-2.87651e-07
0.000101124
-4.16478e-08
-2.85996e-07
0.000101122
-8.17454e-08
-2.84281e-07
0.00010114
-1.25135e-07
-2.81114e-07
0.000101143
-3.00428e-07
-2.81322e-07
0.000101934
-2.74841e-07
9.9454e-05
2.94793e-07
9.70366e-05
1.19965e-07
9.94893e-05
7.67673e-08
9.87123e-05
3.66479e-08
9.87065e-05
-1.07642e-09
9.86906e-05
-3.86904e-08
9.86942e-05
-7.84332e-08
9.87173e-05
-1.20885e-07
9.873e-05
-2.9417e-07
9.9514e-05
9.70707e-05
2.947e-07
3.03235e-07
9.64299e-05
1.19302e-07
3.05537e-07
9.93361e-05
7.21446e-08
3.02776e-07
9.84373e-05
2.87088e-08
3.038e-07
9.84234e-05
-1.30726e-08
3.03096e-07
9.84022e-05
-5.4055e-08
3.02409e-07
9.84004e-05
-9.48198e-08
3.01407e-07
9.84183e-05
-1.36989e-07
2.97783e-07
9.84298e-05
-3.13769e-07
2.97124e-07
9.93592e-05
2.85921e-07
9.63969e-05
2.97061e-07
1.28054e-07
9.93673e-05
1.21122e-07
1.30067e-07
0.000102292
7.27644e-08
1.29444e-07
0.000101379
2.90342e-08
1.29528e-07
0.000101369
-1.38268e-08
1.2968e-07
0.000101346
-5.62576e-08
1.29575e-07
0.000101343
-9.82723e-08
1.28973e-07
0.000101358
-1.42844e-07
1.27838e-07
0.000101358
-3.24567e-07
1.26537e-07
0.000102297
1.19586e-07
9.92719e-05
2.944e-07
8.47154e-08
9.84545e-05
1.2049e-07
8.5849e-08
0.000101366
7.27818e-08
8.60361e-08
0.000100462
2.88785e-08
8.64834e-08
0.00010045
-1.40449e-08
8.70654e-08
0.000100428
-5.67498e-08
8.75168e-08
0.000100424
-9.95033e-08
8.76112e-08
0.000100439
-1.44146e-07
8.72698e-08
0.000100442
-3.26522e-07
8.60066e-08
0.000101377
8.20224e-08
9.83563e-05
2.95817e-07
4.48597e-08
9.84413e-05
1.20737e-07
4.6214e-08
0.000101357
7.32046e-08
4.65093e-08
0.000100451
2.93829e-08
4.73648e-08
0.00010044
-1.36088e-08
4.8483e-08
0.000100417
-5.66102e-08
4.97317e-08
0.000100414
-9.99217e-08
5.09559e-08
0.000100429
-1.45261e-07
5.21019e-08
0.00010043
-3.31048e-07
5.25336e-08
0.000101367
5.27039e-08
9.8331e-05
2.95935e-07
5.89214e-09
9.84212e-05
1.21362e-07
6.91769e-09
0.000101338
7.40979e-08
7.55837e-09
0.000100432
3.04894e-08
8.7918e-09
0.00010042
-1.23813e-08
1.04082e-08
0.000100399
-5.54113e-08
1.24471e-08
0.000100396
-9.8951e-08
1.48681e-08
0.000100411
-1.44716e-07
1.76575e-08
0.000100413
-3.30407e-07
1.9836e-08
0.000101348
2.53997e-08
9.83131e-05
2.9672e-07
-3.36294e-08
9.84207e-05
1.22181e-07
-3.30406e-08
0.00010134
7.53149e-08
-3.21342e-08
0.000100433
3.21321e-08
-3.06683e-08
0.000100422
-1.03141e-08
-2.87634e-08
0.000100401
-5.29591e-08
-2.62257e-08
0.000100399
-9.62433e-08
-2.3002e-08
0.000100415
-1.41994e-07
-1.90891e-08
0.000100419
-3.25901e-07
-1.5687e-08
0.000101351
-6.09347e-09
9.83323e-05
2.98078e-07
-7.50538e-08
9.84398e-05
1.23098e-07
-7.45538e-08
0.000101364
7.67008e-08
-7.37454e-08
0.000100455
3.4084e-08
-7.22732e-08
0.000100444
-7.72301e-09
-7.04037e-08
0.000100424
-4.96771e-08
-6.7853e-08
0.000100423
-9.23345e-08
-6.45337e-08
0.000100441
-1.37736e-07
-6.04838e-08
0.000100448
-3.18735e-07
-5.67152e-08
0.000101377
-4.63968e-08
9.83834e-05
2.97976e-07
-1.20755e-07
9.84521e-05
1.24194e-07
-1.21563e-07
0.000101375
7.8234e-08
-1.2023e-07
0.000100467
3.61582e-08
-1.18947e-07
0.000100457
-5.02984e-09
-1.17402e-07
0.000100437
-4.62839e-08
-1.15298e-07
0.000100438
-8.82648e-08
-1.12569e-07
0.000100458
-1.33264e-07
-1.09307e-07
0.000100467
-3.09362e-07
-1.06922e-07
0.00010139
-9.72934e-08
9.84285e-05
3.01258e-07
-2.95104e-07
9.93509e-05
1.25492e-07
-2.96192e-07
0.000102288
7.91927e-08
-2.92689e-07
0.000101369
3.75838e-08
-2.92331e-07
0.000101359
-3.30802e-09
-2.90017e-07
0.000101337
-4.41754e-08
-2.87573e-07
0.000101335
-8.55022e-08
-2.84937e-07
0.000101353
-1.30738e-07
-2.80104e-07
0.000101358
-3.06012e-07
-2.79471e-07
0.000102282
-2.68635e-07
9.93192e-05
3.00295e-07
9.64411e-05
1.25013e-07
9.93683e-05
8.04216e-08
9.84641e-05
3.95312e-08
9.8455e-05
-8.38955e-11
9.84401e-05
-3.96371e-08
9.84461e-05
-8.02626e-08
9.84729e-05
-1.24075e-07
9.84936e-05
-2.95645e-07
9.94061e-05
9.65064e-05
2.96127e-07
3.06273e-07
9.58274e-05
1.21089e-07
3.09081e-07
9.9202e-05
7.21539e-08
3.05824e-07
9.81803e-05
2.73282e-08
3.07005e-07
9.81612e-05
-1.66997e-08
3.05913e-07
9.81403e-05
-5.98849e-08
3.04699e-07
9.81389e-05
-1.01742e-07
3.02678e-07
9.81574e-05
-1.44005e-07
2.9646e-07
9.81755e-05
-3.15885e-07
2.92564e-07
9.92384e-05
2.6995e-07
9.5811e-05
2.99018e-07
1.31747e-07
9.92427e-05
1.23268e-07
1.34204e-07
0.000102642
7.28785e-08
1.33464e-07
0.000101602
2.75883e-08
1.33619e-07
0.000101588
-1.81368e-08
1.33748e-07
0.000101564
-6.37626e-08
1.3344e-07
0.00010156
-1.08153e-07
1.32199e-07
0.000101572
-1.54836e-07
1.29595e-07
0.000101571
-3.37905e-07
1.25562e-07
0.000102647
1.09892e-07
9.9094e-05
2.95905e-07
8.75603e-08
9.82027e-05
1.22513e-07
8.90447e-08
0.000101584
7.2882e-08
8.92942e-08
0.000100555
2.73402e-08
8.9937e-08
0.000100539
-1.86002e-08
9.07085e-08
0.000100517
-6.4871e-08
9.12404e-08
0.000100513
-1.10783e-07
9.10793e-08
0.000100526
-1.58817e-07
8.98693e-08
0.00010053
-3.47206e-07
8.64193e-08
0.000101604
7.57639e-08
9.80432e-05
2.97654e-07
4.74141e-08
9.81837e-05
1.22902e-07
4.92414e-08
0.000101572
7.34821e-08
4.9666e-08
0.00010054
2.79991e-08
5.08686e-08
0.000100524
-1.81223e-08
5.2439e-08
0.000100502
-6.50193e-08
5.42219e-08
0.000100498
-1.12188e-07
5.59625e-08
0.000100511
-1.62224e-07
5.75102e-08
0.000100513
-3.58492e-07
5.7572e-08
0.000101592
5.59819e-08
9.79922e-05
2.97785e-07
7.30757e-09
9.81634e-05
1.23745e-07
8.69745e-09
0.000101553
7.47242e-08
9.57705e-09
0.000100521
2.95536e-08
1.13184e-08
0.000100505
-1.63769e-08
1.36469e-08
0.000100483
-6.33209e-08
1.66904e-08
0.00010048
-1.10926e-07
2.04693e-08
0.000100494
-1.61932e-07
2.51371e-08
0.000100496
-3.59566e-07
2.92509e-08
0.000101574
3.9806e-08
9.79696e-05
2.98849e-07
-3.34854e-08
9.81625e-05
1.24888e-07
-3.26819e-08
0.000101556
7.64452e-08
-3.14585e-08
0.000100523
3.19363e-08
-2.93918e-08
0.000100507
-1.32727e-08
-2.66261e-08
0.000100486
-5.9462e-08
-2.27938e-08
0.000100485
-1.06379e-07
-1.76574e-08
0.0001005
-1.56907e-07
-1.08501e-08
0.000100505
-3.50673e-07
-3.7979e-09
0.000101578
1.5961e-08
9.80053e-05
3.00708e-07
-7.55763e-08
9.81811e-05
1.26184e-07
-7.48546e-08
0.00010158
7.84045e-08
-7.3746e-08
0.000100545
3.47833e-08
-7.1709e-08
0.00010053
-9.33873e-09
-6.90123e-08
0.00010051
-5.41941e-08
-6.51828e-08
0.00010051
-9.95742e-08
-5.99233e-08
0.000100529
-1.48487e-07
-5.28838e-08
0.000100539
-3.34496e-07
-4.52971e-08
0.000101604
-2.41539e-08
9.80889e-05
3.00739e-07
-1.22657e-07
9.81983e-05
1.27661e-07
-1.23489e-07
0.000101597
8.05471e-08
-1.21783e-07
0.000100562
3.78025e-08
-1.20046e-07
0.000100548
-5.24729e-09
-1.1782e-07
0.000100529
-4.87378e-08
-1.14705e-07
0.000100531
-9.24621e-08
-1.10476e-07
0.000100552
-1.396e-07
-1.04927e-07
0.000100566
-3.15149e-07
-9.99564e-08
0.00010162
-8.22338e-08
9.81713e-05
3.04661e-07
-2.96242e-07
9.92197e-05
1.29308e-07
-2.97458e-07
0.000102637
8.18604e-08
-2.93227e-07
0.000101588
3.97862e-08
-2.92568e-07
0.000101574
-2.71254e-09
-2.8937e-07
0.000101551
-4.53988e-08
-2.85914e-07
0.000101549
-8.7805e-08
-2.82008e-07
0.000101567
-1.34378e-07
-2.74846e-07
0.000101575
-3.05929e-07
-2.72433e-07
0.000102626
-2.54293e-07
9.91852e-05
3.03656e-07
9.58412e-05
1.28959e-07
9.92455e-05
8.36414e-08
9.82161e-05
4.25855e-08
9.82034e-05
1.97173e-09
9.81912e-05
-3.86663e-08
9.82007e-05
-7.97213e-08
9.82318e-05
-1.23945e-07
9.82629e-05
-2.88523e-07
9.92981e-05
9.59634e-05
2.96479e-07
3.08148e-07
9.52227e-05
1.2237e-07
3.11515e-07
9.90645e-05
7.17787e-08
3.07839e-07
9.7923e-05
2.55208e-08
3.09167e-07
9.78983e-05
-2.0635e-08
3.0767e-07
9.78788e-05
-6.59517e-08
3.0578e-07
9.78784e-05
-1.09348e-07
3.02204e-07
9.78986e-05
-1.52127e-07
2.91991e-07
9.79263e-05
-3.12754e-07
2.82315e-07
9.91167e-05
2.35689e-07
9.52626e-05
2.99948e-07
1.34927e-07
9.91159e-05
1.24908e-07
1.37856e-07
0.000102991
7.2625e-08
1.37042e-07
0.000101825
2.5646e-08
1.37312e-07
0.000101807
-2.30682e-08
1.3743e-07
0.000101783
-7.23703e-08
1.36851e-07
0.000101778
-1.20604e-07
1.34618e-07
0.000101788
-1.71927e-07
1.29515e-07
0.000101785
-3.57022e-07
1.20675e-07
0.000102994
8.42109e-08
9.88885e-05
2.96466e-07
9.00581e-08
9.7951e-05
1.24076e-07
9.19727e-08
0.000101802
7.26536e-08
9.23294e-08
0.000100651
2.53232e-08
9.32451e-08
0.00010063
-2.38586e-08
9.42751e-08
0.000100609
-7.44636e-08
9.49255e-08
0.000100605
-1.25596e-07
9.43535e-08
0.000100617
-1.80653e-07
9.1614e-08
0.000100622
-3.82014e-07
8.44375e-08
0.000101842
5.80352e-08
9.76873e-05
2.98557e-07
4.97311e-08
9.79254e-05
1.24662e-07
5.21235e-08
0.000101786
7.34986e-08
5.27359e-08
0.000100631
2.61986e-08
5.44046e-08
0.00010061
-2.33527e-08
5.6587e-08
0.000100589
-7.51608e-08
5.91261e-08
0.000100586
-1.2879e-07
6.16158e-08
0.000100597
-1.88133e-07
6.37597e-08
0.0001006
-4.07543e-07
6.31433e-08
0.000101833
5.74148e-08
9.7585e-05
2.98758e-07
8.8855e-09
9.79054e-05
1.25785e-07
1.07233e-08
0.000101767
7.5191e-08
1.19075e-08
0.000100612
2.83608e-08
1.43097e-08
0.000100592
-2.08827e-08
1.75902e-08
0.000100571
-7.27627e-08
2.20478e-08
0.000100569
-1.27118e-07
2.78659e-08
0.000100582
-1.88204e-07
3.56062e-08
0.000100585
-4.12455e-07
4.30237e-08
0.000101818
6.50204e-08
9.7549e-05
3.00172e-07
-3.27935e-08
9.79039e-05
1.27348e-07
-3.17091e-08
0.000101771
7.75756e-08
-3.01044e-08
0.000100614
3.17518e-08
-2.72754e-08
0.000100595
-1.62965e-08
-2.33752e-08
0.000100575