/*--------------------------------*- C++ -*----------------------------------*\
  =========                 |
  \\      /  F ield         | OpenFOAM: The Open Source CFD Toolbox
   \\    /   O peration     | Website:  https://openfoam.org
    \\  /    A nd           | Version:  6
     \\/     M anipulation  |
\*---------------------------------------------------------------------------*/
FoamFile
{
    version     2.0;
    format      ascii;
    class       volVectorField;
    location    "100";
    object      U;
}
// * * * * * * * * * * * * * * * * * * * * * * * * * * * * * * * * * * * * * //

dimensions      [0 1 -1 0 0 0 0];

internalField   nonuniform List<vector> 
3000
(
(0.000601153 0.00060424 0.997864)
(0.000760458 0.000605344 0.999406)
(0.000217438 0.000605002 0.998941)
(8.66633e-05 0.000605087 0.998941)
(2.50966e-05 0.000605184 0.998944)
(-3.74272e-05 0.000605254 0.998944)
(-9.78013e-05 0.000605284 0.998941)
(-0.000226709 0.000605285 0.99894)
(-0.000769754 0.000605673 0.999408)
(-0.000606304 0.000604583 0.99786)
(0.000602258 0.00076621 0.999409)
(0.000760939 0.000766708 1.00095)
(0.000217338 0.000766785 1.00049)
(8.6749e-05 0.000766847 1.00049)
(2.5251e-05 0.000767006 1.00049)
(-3.73095e-05 0.000767167 1.00049)
(-9.767e-05 0.000767305 1.00049)
(-0.000226474 0.000767464 1.00049)
(-0.000770166 0.000767523 1.00096)
(-0.000607388 0.000767144 0.999406)
(0.000601929 0.000223686 0.998942)
(0.00076103 0.000223643 1.00049)
(0.000217504 0.000223829 1.00002)
(8.69177e-05 0.000223997 1.00002)
(2.5431e-05 0.000224221 1.00002)
(-3.71416e-05 0.000224478 1.00002)
(-9.75375e-05 0.000224741 1.00002)
(-0.000226416 0.000224969 1.00002)
(-0.000770066 0.000225076 1.00049)
(-0.000606959 0.000225463 0.998939)
(0.000602056 9.47253e-05 0.998943)
(0.000761151 9.49292e-05 1.00049)
(0.000217691 9.51614e-05 1.00002)
(8.71656e-05 9.54336e-05 1.00002)
(2.5741e-05 9.57942e-05 1.00002)
(-3.68012e-05 9.62123e-05 1.00002)
(-9.72073e-05 9.66455e-05 1.00002)
(-0.000226138 9.70388e-05 1.00002)
(-0.000769739 9.73318e-05 1.00049)
(-0.000606839 9.77811e-05 0.99894)
(0.000602228 3.45758e-05 0.998946)
(0.000761428 3.49202e-05 1.00049)
(0.000217981 3.52165e-05 1.00002)
(8.75506e-05 3.56029e-05 1.00002)
(2.62102e-05 3.61006e-05 1.00003)
(-3.62906e-05 3.66701e-05 1.00003)
(-9.67108e-05 3.72591e-05 1.00002)
(-0.000225702 3.77973e-05 1.00002)
(-0.000769281 3.82524e-05 1.00049)
(-0.0006066 3.88713e-05 0.998943)
(0.000602412 -2.7406e-05 0.998946)
(0.000761773 -2.70262e-05 1.00049)
(0.000218362 -2.66922e-05 1.00002)
(8.80493e-05 -2.62257e-05 1.00002)
(2.68082e-05 -2.56364e-05 1.00003)
(-3.56425e-05 -2.49676e-05 1.00003)
(-9.60794e-05 -2.42765e-05 1.00002)
(-0.000225133 -2.3643e-05 1.00002)
(-0.000768642 -2.30667e-05 1.00049)
(-0.000606228 -2.22594e-05 0.998943)
(0.000602589 -8.83098e-05 0.998943)
(0.000762151 -8.78674e-05 1.00049)
(0.00021879 -8.75386e-05 1.00002)
(8.86067e-05 -8.70526e-05 1.00002)
(2.74682e-05 -8.64486e-05 1.00002)
(-3.49308e-05 -8.57699e-05 1.00002)
(-9.53866e-05 -8.50719e-05 1.00002)
(-0.0002245 -8.4433e-05 1.00002)
(-0.000767902 -8.38205e-05 1.00049)
(-0.000605771 -8.30238e-05 0.998941)
(0.000602754 -0.000218471 0.998942)
(0.000762574 -0.000217906 1.00049)
(0.000219201 -0.000217642 1.00002)
(8.91391e-05 -0.0002172 1.00002)
(2.80902e-05 -0.000216652 1.00002)
(-3.42657e-05 -0.000216036 1.00002)
(-9.47426e-05 -0.000215402 1.00002)
(-0.000223906 -0.000214819 1.00002)
(-0.000767259 -0.000214219 1.00049)
(-0.000605329 -0.00021364 0.998941)
(0.000603308 -0.000761094 0.999408)
(0.000762905 -0.000761083 1.00095)
(0.000219495 -0.000760724 1.00049)
(8.9571e-05 -0.000760199 1.00049)
(2.8623e-05 -0.000759617 1.00049)
(-3.36708e-05 -0.000758949 1.00049)
(-9.41426e-05 -0.000758245 1.00049)
(-0.000223315 -0.000757653 1.00049)
(-0.000766645 -0.000757065 1.00095)
(-0.000605342 -0.00075581 0.999405)
(0.000602481 -0.000601412 0.997865)
(0.000762937 -0.000602237 0.999409)
(0.000220153 -0.000601656 0.998943)
(9.02084e-05 -0.000601419 0.998944)
(2.93215e-05 -0.000601111 0.998947)
(-3.28848e-05 -0.000600729 0.998947)
(-9.34174e-05 -0.000600303 0.998945)
(-0.0002228 -0.000599901 0.998944)
(-0.000765416 -0.000599941 0.999411)
(-0.000603793 -0.000598387 0.997867)
(0.00146875 0.00147845 0.994328)
(0.0017272 0.00148457 0.999176)
(0.000431377 0.00148175 0.997306)
(0.000265145 0.00148244 0.997296)
(7.98575e-05 0.00148265 0.997285)
(-0.000119246 0.00148273 0.997284)
(-0.000300954 0.00148264 0.997292)
(-0.000460166 0.00148196 0.9973)
(-0.00175684 0.00148468 0.999184)
(-0.00148615 0.00147826 0.994303)
(0.00147489 0.00174428 0.999194)
(0.00172991 0.00174705 1.00405)
(0.000431182 0.00174624 1.00218)
(0.000265682 0.00174653 1.00217)
(8.01696e-05 0.0017469 1.00216)
(-0.000119328 0.00174713 1.00216)
(-0.000301402 0.00174715 1.00217)
(-0.000460106 0.00174706 1.00217)
(-0.00175996 0.00174784 1.00406)
(-0.00149257 0.00174491 0.999168)
(0.00147212 0.000449629 0.997315)
(0.00172916 0.000449676 1.00217)
(0.000431626 0.000450188 1.0003)
(0.000266049 0.000450509 1.00029)
(8.0521e-05 0.000451023 1.00028)
(-0.000119115 0.000451569 1.00028)
(-0.000301313 0.000452075 1.00028)
(-0.000460293 0.000452547 1.00029)
(-0.00175905 0.000452501 1.00218)
(-0.00148971 0.000453142 0.997288)
(0.00147298 0.000289562 0.997306)
(0.00172968 0.000290588 1.00216)
(0.000432008 0.000291182 1.00029)
(0.000266596 0.000291831 1.00028)
(8.12549e-05 0.000292755 1.00027)
(-0.000118319 0.000293808 1.00027)
(-0.000300521 0.000294887 1.00028)
(-0.000459691 0.000295898 1.00028)
(-0.00175861 0.000296453 1.00217)
(-0.00148999 0.000297176 0.997279)
(0.0014735 0.000108568 0.997296)
(0.00173051 0.000109674 1.00215)
(0.000432781 0.000110459 1.00028)
(0.000267621 0.000111518 1.00027)
(8.24976e-05 0.000112886 1.00026)
(-0.000116984 0.00011444 1.00026)
(-0.000299225 0.000116053 1.00027)
(-0.000458642 0.00011754 1.00027)
(-0.00175752 0.000118629 1.00216)
(-0.00148935 0.000120413 0.997272)
(0.00147405 -8.86981e-05 0.997296)
(0.00173148 -8.76692e-05 1.00216)
(0.000433816 -8.68202e-05 1.00028)
(0.000269023 -8.54729e-05 1.00027)
(8.4177e-05 -8.37823e-05 1.00026)
(-0.000115153 -8.18533e-05 1.00026)
(-0.000297421 -7.98218e-05 1.00027)
(-0.000457081 -7.79408e-05 1.00028)
(-0.00175566 -7.63378e-05 1.00216)
(-0.00148817 -7.35658e-05 0.997275)
(0.00147458 -0.000271695 0.997306)
(0.00173248 -0.000270807 1.00217)
(0.000435008 -0.000269948 1.00029)
(0.00027066 -0.000268452 1.00028)
(8.61176e-05 -0.000266654 1.00027)
(-0.000113023 -0.000264619 1.00027)
(-0.000295313 -0.000262479 1.00028)
(-0.000455189 -0.000260529 1.00029)
(-0.00175325 -0.000258726 1.00217)
(-0.00148663 -0.00025548 0.997289)
(0.0014746 -0.000435634 0.997315)
(0.00173349 -0.000434193 1.00218)
(0.000436256 -0.000433585 1.0003)
(0.000272318 -0.000432251 1.00029)
(8.80111e-05 -0.000430676 1.00028)
(-0.000110976 -0.000428867 1.00028)
(-0.00029333 -0.000426934 1.00029)
(-0.00045341 -0.000425188 1.0003)
(-0.00175088 -0.000423402 1.00218)
(-0.00148459 -0.000421076 0.997304)
(0.00147798 -0.00173012 0.999185)
(0.00173531 -0.00173141 1.00405)
(0.000436954 -0.00172949 1.00217)
(0.000273489 -0.00172814 1.00216)
(8.94761e-05 -0.00172645 1.00215)
(-0.000109239 -0.00172439 1.00215)
(-0.000291537 -0.00172209 1.00216)
(-0.000451644 -0.00171992 1.00217)
(-0.00174991 -0.00171906 1.00405)
(-0.00148624 -0.00171348 0.999168)
(0.00147272 -0.00147009 0.994335)
(0.00173414 -0.00147536 0.999191)
(0.000438769 -0.00147187 0.997319)
(0.000275118 -0.0014716 0.997311)
(9.17027e-05 -0.00147061 0.997302)
(-0.000106477 -0.00146936 0.997304)
(-0.000288542 -0.00146792 0.997314)
(-0.000449561 -0.00146604 0.997325)
(-0.00174441 -0.00146782 0.999204)
(-0.00147839 -0.00145996 0.994341)
(0.00199658 0.002014 0.9901)
(0.0021561 0.00202688 0.998758)
(0.000435979 0.00201958 0.99548)
(0.000415971 0.00202159 0.995457)
(0.000115205 0.00202176 0.995394)
(-0.000184174 0.00202185 0.995391)
(-0.000479111 0.00202177 0.995446)
(-0.000485526 0.00201959 0.995463)
(-0.00220815 0.00202653 0.998776)
(-0.00202848 0.00201261 0.990037)
(0.00200952 0.00218538 0.998802)
(0.00216215 0.00219154 1.00748)
(0.00043625 0.00218791 1.00419)
(0.000417768 0.00218888 1.00417)
(0.000115812 0.00218948 1.00411)
(-0.000184606 0.00218979 1.00411)
(-0.000481067 0.00218966 1.00416)
(-0.000486453 0.00218876 1.00418)
(-0.00221561 0.00219196 1.0075)
(-0.00204236 0.00218481 0.998731)
(0.00200231 0.000466916 0.995503)
(0.00215863 0.000467672 1.00417)
(0.000436901 0.000468448 1.00089)
(0.000418238 0.000468903 1.00087)
(0.000116333 0.000469857 1.0008)
(-0.000184328 0.000470795 1.0008)
(-0.000480932 0.000471585 1.00086)
(-0.000486932 0.000472451 1.00087)
(-0.00221217 0.000472222 1.00419)
(-0.00203518 0.000472412 0.995429)
(0.00200466 0.000458625 0.995482)
(0.00216004 0.000461412 1.00416)
(0.000437465 0.000462299 1.00087)
(0.000419235 0.000463499 1.00085)
(0.000117697 0.000465265 1.00079)
(-0.000182906 0.000467215 1.00078)
(-0.000479504 0.000469162 1.00084)
(-0.000485843 0.000471052 1.00085)
(-0.00221204 0.000472042 1.00417)
(-0.00203655 0.000472484 0.995409)
(0.00200545 0.000165314 0.995422)
(0.00216155 0.000167546 1.0041)
(0.000438911 0.000168883 1.00081)
(0.000421201 0.000170896 1.00079)
(0.000120043 0.000173493 1.00073)
(-0.000180429 0.000176424 1.00073)
(-0.000477099 0.000179483 1.00078)
(-0.000483987 0.000182371 1.00079)
(-0.00221001 0.000184332 1.00411)
(-0.00203509 0.000187863 0.995354)
(0.0020065 -0.000130533 0.995422)
(0.00216332 -0.000128651 1.0041)
(0.0004408 -0.00012715 1.00081)
(0.000423845 -0.000124615 1.00079)
(0.000123224 -0.000121435 1.00073)
(-0.000176917 -0.000117744 1.00073)
(-0.000473565 -0.000113755 1.00078)
(-0.000480987 -0.000109946 1.0008)
(-0.00220629 -0.000106962 1.00411)
(-0.00203263 -0.000101002 0.995364)
(0.00200772 -0.000427101 0.995482)
(0.0021652 -0.000426182 1.00417)
(0.000442953 -0.000424524 1.00087)
(0.00042691 -0.000421647 1.00086)
(0.000126915 -0.000418253 1.00079)
(-0.000172747 -0.000414313 1.00079)
(-0.000469299 -0.000410022 1.00085)
(-0.000477195 -0.000406026 1.00086)
(-0.00220135 -0.000402694 1.00418)
(-0.00202951 -0.000394909 0.995438)
(0.00200707 -0.000443044 0.995503)
(0.00216663 -0.000440995 1.00419)
(0.000445407 -0.000439886 1.0009)
(0.000430117 -0.000437291 1.00088)
(0.000130566 -0.000434415 1.00082)
(-0.000168682 -0.000431011 1.00082)
(-0.000465272 -0.000427238 1.00087)
(-0.000473714 -0.000423851 1.00089)
(-0.00219591 -0.000420585 1.0042)
(-0.0020245 -0.000414871 0.995473)
(0.00201536 -0.00216067 0.998782)
(0.00217196 -0.00216402 1.00747)
(0.00044666 -0.00215848 1.00418)
(0.000432317 -0.0021564 1.00416)
(0.000133199 -0.00215321 1.0041)
(-0.000165542 -0.00214929 1.0041)
(-0.000462049 -0.00214482 1.00415)
(-0.000470509 -0.00213999 1.00416)
(-0.00219594 -0.0021404 1.00747)
(-0.00202934 -0.00212814 0.99874)
(0.00200421 -0.00199859 0.990118)
(0.00216885 -0.00200977 0.998797)
(0.000449446 -0.00200127 0.995513)
(0.000434704 -0.0020014 0.995495)
(0.000137471 -0.00199927 0.995438)
(-0.000159943 -0.00199679 0.995442)
(-0.000455161 -0.0019941 0.995505)
(-0.000465588 -0.00198959 0.99553)
(-0.002184 -0.00199483 0.99883)
(-0.00201271 -0.00197809 0.990138)
(0.00234416 0.00237054 0.984855)
(0.00234515 0.00239076 0.99778)
(0.000380591 0.00237788 0.993219)
(0.000535594 0.00238185 0.993194)
(0.000116038 0.00238148 0.993071)
(-0.000219743 0.00238142 0.993065)
(-0.000631322 0.00238146 0.993174)
(-0.000454513 0.00237665 0.993186)
(-0.00242418 0.00238828 0.997811)
(-0.00239427 0.00236491 0.984733)
(0.00236454 0.00238787 0.99786)
(0.0023547 0.00239758 1.01082)
(0.000381796 0.0023901 1.00624)
(0.000539229 0.00239209 1.00622)
(0.000116722 0.00239252 1.0061)
(-0.000220993 0.00239267 1.00609)
(-0.000636199 0.00239224 1.0062)
(-0.000458035 0.00238949 1.0062)
(-0.00243801 0.00239518 1.01085)
(-0.00241747 0.00238169 0.997713)
(0.00235179 0.000425471 0.993262)
(0.00234738 0.000427525 1.0062)
(0.000382715 0.000428653 1.00163)
(0.000539442 0.000429097 1.00161)
(0.000117226 0.000430587 1.00149)
(-0.000220784 0.000431903 1.00148)
(-0.000636077 0.00043278 1.00159)
(-0.000459438 0.000433964 1.00159)
(-0.00243199 0.000432938 1.00622)
(-0.00240553 0.000431201 0.99311)
(0.00235637 0.000599047 0.993242)
(0.00235015 0.000604443 1.00619)
(0.000383339 0.000605367 1.00162)
(0.000541067 0.000607357 1.0016)
(0.000119366 0.00061023 1.00147)
(-0.000218705 0.000613303 1.00146)
(-0.000634113 0.000616255 1.00157)
(-0.00045794 0.000619095 1.00157)
(-0.00243308 0.000620641 1.00621)
(-0.002409 0.000619998 0.99309)
(0.00235712 0.000190688 0.993125)
(0.00235219 0.00019433 1.00608)
(0.000385687 0.000196258 1.0015)
(0.000544299 0.000199573 1.00148)
(0.000123155 0.000203812 1.00136)
(-0.000214747 0.000208613 1.00135)
(-0.000630293 0.000213663 1.00146)
(-0.000455138 0.000218556 1.00146)
(-0.0024296 0.000221795 1.00609)
(-0.00240609 0.000228085 0.992982)
(0.00235884 -0.000139151 0.993124)
(0.00235501 -0.000136073 1.00608)
(0.000388702 -0.000133667 1.0015)
(0.000548624 -0.000129538 1.00148)
(0.000128402 -0.000124327 1.00136)
(-0.000208857 -0.000118143 1.00136)
(-0.000624196 -0.000111279 1.00147)
(-0.000449941 -0.000104428 1.00147)
(-0.0024229 -9.93257e-05 1.0061)
(-0.00240153 -8.80546e-05 0.993004)
(0.00236135 -0.000551944 0.993241)
(0.00235832 -0.000551243 1.00621)
(0.000392085 -0.00054827 1.00162)
(0.000553614 -0.000543564 1.00161)
(0.000134551 -0.000537973 1.00149)
(-0.000201694 -0.000531263 1.00148)
(-0.000616568 -0.00052369 1.0016)
(-0.000443029 -0.000516264 1.0016)
(-0.00241393 -0.00051059 1.00623)
(-0.00239597 -0.000494905 0.993151)
(0.00235961 -0.00039068 0.993262)
(0.00236015 -0.000388229 1.00623)
(0.000396314 -0.000386527 1.00164)
(0.000558922 -0.000382079 1.00163)
(0.000140733 -0.000377439 1.00151)
(-0.000194567 -0.000371737 1.00151)
(-0.000609185 -0.000365148 1.00162)
(-0.000436719 -0.000359141 1.00164)
(-0.00240305 -0.000353328 1.00625)
(-0.00238592 -0.000341202 0.993204)
(0.00237395 -0.00235117 0.997824)
(0.00237011 -0.00235637 1.01081)
(0.000398234 -0.00234601 1.00622)
(0.000562773 -0.00234309 1.0062)
(0.000145042 -0.0023375 1.00608)
(-0.000189502 -0.00233091 1.00607)
(-0.00060401 -0.00232353 1.00618)
(-0.000431133 -0.00231438 1.00619)
(-0.0024036 -0.00231593 1.01081)
(-0.00239389 -0.00229407 0.997745)
(0.00235662 -0.0023466 0.984888)
(0.00236535 -0.00236402 0.997855)
(0.00040197 -0.00234927 0.993282)
(0.000566022 -0.00235015 0.993267)
(0.000152349 -0.002346 0.993157)
(-0.000179798 -0.00234174 0.993165)
(-0.000591051 -0.00233752 0.993291)
(-0.000421272 -0.00232889 0.99332)
(-0.00238275 -0.00233791 0.99792)
(-0.00236633 -0.00231002 0.984939)
(0.0026071 0.0026437 0.979099)
(0.00246097 0.00267184 0.996539)
(0.000343059 0.00265308 0.990723)
(0.000635603 0.00265931 0.99069)
(8.73516e-05 0.00265779 0.990522)
(-0.000233422 0.00265721 0.990512)
(-0.000771583 0.00265717 0.990658)
(-0.000447086 0.00264826 0.990672)
(-0.00257368 0.00266358 0.996594)
(-0.00268054 0.00262696 0.978902)
(0.00263554 0.00251865 0.996668)
(0.0024743 0.00253221 1.01418)
(0.000345284 0.00252092 1.00831)
(0.000641168 0.00252394 1.00829)
(8.75906e-05 0.00252371 1.00812)
(-0.000236431 0.00252321 1.00811)
(-0.000781359 0.00252182 1.00825)
(-0.000455701 0.00251558 1.00824)
(-0.0025984 0.00252182 1.01421)
(-0.00271655 0.00249708 0.996403)
(0.00261701 0.000403719 0.990794)
(0.00246327 0.000407359 1.00825)
(0.000346723 0.00040914 1.00242)
(0.000640808 0.000409536 1.00239)
(8.78654e-05 0.000411699 1.00223)
(-0.000236707 0.000413293 1.00221)
(-0.000781765 0.000413796 1.00235)
(-0.000459436 0.000414723 1.00235)
(-0.00259197 0.000411567 1.00828)
(-0.00270098 0.000405185 0.99052)
(0.00262427 0.000723195 0.990767)
(0.00246759 0.000731713 1.00825)
(0.00034741 0.000732538 1.0024)
(0.000643342 0.000735703 1.00238)
(9.08827e-05 0.000739964 1.00221)
(-0.000234006 0.000744443 1.0022)
(-0.000779695 0.000748573 1.00234)
(-0.00045808 0.00075225 1.00233)
(-0.00259586 0.000754191 1.00827)
(-0.00270792 0.000751297 0.990486)
(0.00262467 0.000190877 0.990608)
(0.00247011 0.000196246 1.00809)
(0.000351023 0.00019895 1.00225)
(0.000648221 0.000204021 1.00222)
(9.65706e-05 0.000210482 1.00206)
(-0.000228066 0.00021791 1.00204)
(-0.000773975 0.000225827 1.00219)
(-0.000454193 0.000233738 1.00218)
(-0.00259044 0.000238869 1.00811)
(-0.00270289 0.000249741 0.990343)
(0.00262727 -0.000120391 0.990607)
(0.00247431 -0.000115643 1.0081)
(0.000355567 -0.000112036 1.00225)
(0.000654879 -0.000105684 1.00223)
(0.000104761 -9.75957e-05 1.00206)
(-0.000218664 -8.77536e-05 1.00206)
(-0.000763925 -7.6518e-05 1.0022)
(-0.000445434 -6.47157e-05 1.0022)
(-0.00257866 -5.59491e-05 1.00813)
(-0.0026947 -3.52115e-05 0.990385)
(0.00263178 -0.000658256 0.990765)
(0.00247973 -0.000657581 1.00827)
(0.000360566 -0.00065272 1.00242)
(0.000662605 -0.000645585 1.0024)
(0.000114502 -0.000636816 1.00223)
(-0.000206977 -0.000625962 1.00223)
(-0.000750922 -0.000613272 1.00238)
(-0.000433146 -0.000599891 1.00238)
(-0.00256247 -0.000590034 1.0083)
(-0.00268472 -0.000560662 0.990604)
(0.00262884 -0.000356573 0.990791)
(0.00248229 -0.000353505 1.00829)
(0.000367238 -0.000351229 1.00244)
(0.000670783 -0.000344228 1.00242)
(0.000124451 -0.000337124 1.00226)
(-0.000195099 -0.000327945 1.00226)
(-0.000737829 -0.000316836 1.00242)
(-0.000421718 -0.000306189 1.00243)
(-0.00254213 -0.000295621 1.00834)
(-0.00266651 -0.000271925 0.990696)
(0.00264963 -0.00246833 0.996609)
(0.00249702 -0.00247515 1.01416)
(0.000369833 -0.00245974 1.00827)
(0.000677025 -0.00245544 1.00826)
(0.000131208 -0.00244625 1.00809)
(-0.000187036 -0.0024357 1.00808)
(-0.000729446 -0.00242396 1.00823)
(-0.000411766 -0.0024081 1.00823)
(-0.00254025 -0.00240873 1.01415)
(-0.00267582 -0.0023718 0.996479)
(0.00262593 -0.00260975 0.979151)
(0.00249096 -0.00263363 0.996663)
(0.000375024 -0.00261214 0.990828)
(0.000681921 -0.00261367 0.990812)
(0.000143053 -0.00260644 0.990666)
(-0.000171295 -0.00259955 0.990682)
(-0.000707589 -0.00259314 0.990857)
(-0.000394134 -0.00257858 0.990901)
(-0.002506 -0.00259044 0.99678)
(-0.00263384 -0.00254767 0.979265)
(0.00280806 0.00285611 0.973219)
(0.002531 0.00289268 0.995276)
(0.000320479 0.00286762 0.988185)
(0.000717479 0.00287619 0.988121)
(3.80364e-05 0.00287302 0.987926)
(-0.000236083 0.00287131 0.987911)
(-0.00090347 0.00287016 0.988077)
(-0.000461824 0.00285488 0.988116)
(-0.00268421 0.00287138 0.995374)
(-0.00290927 0.00281382 0.972939)
(0.00284515 0.0026052 0.995468)
(0.00254826 0.00262279 1.01763)
(0.000323495 0.0026074 1.01046)
(0.000725027 0.00261147 1.01042)
(3.71132e-05 0.00261022 1.01022)
(-0.000242697 0.00260826 1.0102)
(-0.000921687 0.00260421 1.01036)
(-0.000480336 0.00259133 1.01035)
(-0.00272949 0.0025938 1.01767)
(-0.00296553 0.00254664 0.995017)
(0.00282047 0.000399029 0.988291)
(0.0025333 0.000404297 1.01038)
(0.000325639 0.000406971 1.00326)
(0.000723961 0.000407468 1.0032)
(3.69336e-05 0.000410444 1.00301)
(-0.000244283 0.000412102 1.00298)
(-0.000924104 0.000411361 1.00314)
(-0.000489352 0.000410401 1.00314)
(-0.00272816 0.000401809 1.01042)
(-0.00295042 0.000383873 0.987827)
(0.00283071 0.000833035 0.988235)
(0.00253946 0.000845353 1.01035)
(0.000326584 0.000846196 1.00322)
(0.000727679 0.000850969 1.00316)
(4.08533e-05 0.000856967 1.00297)
(-0.000241158 0.000863221 1.00295)
(-0.000922873 0.00086866 1.0031)
(-0.000490211 0.000872719 1.0031)
(-0.00273934 0.000873478 1.01039)
(-0.00296419 0.000864551 0.987747)
(0.00283075 0.000175728 0.98805)
(0.00254275 0.000183398 1.01017)
(0.000331936 0.000187257 1.00304)
(0.000734709 0.000194658 1.00299)
(4.91284e-05 0.000204214 1.00279)
(-0.000232533 0.000215424 1.00277)
(-0.000914638 0.000227564 1.00293)
(-0.000485356 0.000240134 1.00293)
(-0.00273259 0.000248092 1.01021)
(-0.00295735 0.000266101 0.987587)
(0.00283452 -8.36191e-05 0.988048)
(0.00254879 -7.6712e-05 1.01019)
(0.000338575 -7.15623e-05 1.00304)
(0.000744639 -6.20745e-05 1.003)
(6.1601e-05 -4.98856e-05 1.0028)
(-0.000217813 -3.45724e-05 1.00279)
(-0.000898274 -1.64619e-05 1.00295)
(-0.000470437 3.68055e-06 1.00296)
(-0.00271151 1.97307e-05 1.01023)
(-0.00294248 5.86e-05 0.987663)
(0.00284157 -0.000747577 0.988229)
(0.00255689 -0.000746642 1.01039)
(0.00034577 -0.000739344 1.00324)
(0.000756279 -0.000728882 1.00319)
(7.66287e-05 -0.000715496 1.00301)
(-0.000199088 -0.000698376 1.003)
(-0.000876375 -0.000677564 1.00317)
(-0.000448231 -0.000653826 1.00319)
(-0.00268041 -0.000635036 1.01044)
(-0.00292253 -0.000579963 0.987962)
(0.00283762 -0.000337732 0.988283)
(0.0025607 -0.000333412 1.01044)
(0.000355623 -0.000330369 1.00329)
(0.000768485 -0.00032006 1.00325)
(9.22312e-05 -0.000309474 1.00307)
(-0.000179827 -0.000295065 1.00306)
(-0.000853677 -0.000276742 1.00324)
(-0.000426855 -0.00025771 1.00328)
(-0.00264202 -0.000237927 1.0105)
(-0.00288968 -0.000192175 0.988139)
(0.00286543 -0.00253935 0.995376)
(0.00258072 -0.0025474 1.01761)
(0.000359089 -0.00252633 1.0104)
(0.000777842 -0.00251987 1.01036)
(0.000102417 -0.00250587 1.01017)
(-0.000167042 -0.00248953 1.01016)
(-0.000839666 -0.00247085 1.01032)
(-0.000409094 -0.00244451 1.01034)
(-0.0026318 -0.0024404 1.01758)
(-0.00289604 -0.00237816 0.995179)
(0.00283525 -0.00281051 0.973293)
(0.00257389 -0.00284103 0.995465)
(0.000366718 -0.00281215 0.988344)
(0.000785456 -0.00281389 0.988307)
(0.000120723 -0.00280256 0.988147)
(-0.000142316 -0.00279185 0.988174)
(-0.00080468 -0.00278183 0.988388)
(-0.000379178 -0.00275893 0.988476)
(-0.00257626 -0.00277166 0.995659)
(-0.00283366 -0.00270778 0.973527)
(0.0029541 0.00301464 0.967292)
(0.00255646 0.00305959 0.994012)
(0.000298519 0.00302782 0.985647)
(0.000779036 0.00303886 0.985536)
(-2.59456e-05 0.00303342 0.985326)
(-0.000234849 0.00302958 0.985308)
(-0.00102665 0.00302547 0.985484)
(-0.000485605 0.00299969 0.985569)
(-0.002757 0.0030124 0.994184)
(-0.00308969 0.00291745 0.966963)
(0.00299988 0.00264849 0.994279)
(0.00257733 0.00266981 1.02115)
(0.000302405 0.0026501 1.01267)
(0.000788668 0.00265536 1.01259)
(-2.92838e-05 0.00265245 1.01237)
(-0.000247967 0.00264773 1.01234)
(-0.00105948 0.00263829 1.0125)
(-0.000523239 0.00261299 1.0125)
(-0.00284299 0.00260409 1.0212)
(-0.00318046 0.00251014 0.993552)
(0.00296869 0.000396939 0.985794)
(0.00255828 0.00040424 1.01256)
(0.000305462 0.000408087 1.00415)
(0.000786653 0.000408844 1.00405)
(-3.03695e-05 0.000412658 1.00384)
(-0.000252079 0.000414039 1.00381)
(-0.00106646 0.000410731 1.00396)
(-0.000542257 0.000404825 1.00398)
(-0.00285747 0.000385771 1.01263)
(-0.00317234 0.000340001 0.985036)
(0.00298233 0.000926357 0.985691)
(0.00256675 0.000943423 1.01249)
(0.00030688 0.000944364 1.00407)
(0.000791813 0.000951223 1.00397)
(-2.55147e-05 0.000959558 1.00376)
(-0.00024898 0.000968087 1.00373)
(-0.00106786 0.000974823 1.00388)
(-0.000548952 0.000978348 1.00389)
(-0.00288549 0.000975531 1.01255)
(-0.00319958 0.000951589 0.984855)
(0.00298207 0.000151612 0.985492)
(0.00257106 0.000162174 1.0123)
(0.000314451 0.000167555 1.00388)
(0.00080181 0.000178102 1.00378)
(-1.35878e-05 0.000192064 1.00357)
(-0.000236728 0.000208733 1.00355)
(-0.00105626 0.000227125 1.0037)
(-0.000543062 0.000247109 1.00372)
(-0.00287854 0.000259727 1.01236)
(-0.00319114 0.000290498 0.984678)
(0.00298733 -3.4811e-05 0.985489)
(0.00257949 -2.50772e-05 1.01232)
(0.000323942 -1.78619e-05 1.00389)
(0.00081631 -4.05143e-06 1.0038)
(5.08385e-06 1.38772e-05 1.00359)
(-0.000213923 3.7309e-05 1.00357)
(-0.00102966 6.63134e-05 1.00374)
(-0.000517439 0.000100629 1.00377)
(-0.00284002 0.000129853 1.01239)
(-0.0031637 0.000205294 0.984819)
(0.00299753 -0.000817431 0.985681)
(0.0025911 -0.000815969 1.01255)
(0.000334205 -0.000805497 1.0041)
(0.000833372 -0.000790463 1.00402)
(2.77653e-05 -0.000770556 1.00381)
(-0.000184252 -0.000744099 1.00381)
(-0.000992955 -0.000710382 1.00399)
(-0.000477828 -0.000668939 1.00404)
(-0.00277952 -0.000633568 1.01264)
(-0.00312415 -0.000527878 0.985242)
(0.00299281 -0.000319448 0.985778)
(0.00259667 -0.000313473 1.01264)
(0.000348194 -0.000309378 1.00419)
(0.000851246 -0.000294772 1.00412)
(5.16521e-05 -0.00027917 1.00392)
(-0.000153624 -0.000257034 1.00392)
(-0.000954426 -0.000227538 1.00412)
(-0.000438524 -0.000193863 1.00419)
(-0.0027069 -0.000157974 1.01275)
(-0.00306565 -6.83574e-05 0.98558)
(0.00302818 -0.00256498 0.994144)
(0.00262251 -0.00257331 1.02112)
(0.000352824 -0.00254588 1.01259)
(0.000864712 -0.00253645 1.01251)
(6.67164e-05 -0.00251597 1.0123)
(-0.000133707 -0.00249141 1.01228)
(-0.000930949 -0.00246219 1.01246)
(-0.00040758 -0.00241944 1.0125)
(-0.00267727 -0.0024049 1.02108)
(-0.00306145 -0.00229837 0.993877)
(0.00299212 -0.00295565 0.967391)
(0.00261613 -0.00299234 0.994283)
(0.000363783 -0.00295533 0.985874)
(0.000876274 -0.00295682 0.985802)
(9.40679e-05 -0.00294019 0.985644)
(-9.60613e-05 -0.00292411 0.98569)
(-0.000876712 -0.00290838 0.985939)
(-0.000358441 -0.0028736 0.986099)
(-0.0025874 -0.00288419 0.994588)
(-0.0029691 -0.00278871 0.967856)
(0.0030581 0.00313178 0.961301)
(0.00255262 0.00318492 0.992704)
(0.000277853 0.00314666 0.983092)
(0.000823349 0.00316027 0.982928)
(-9.94491e-05 0.0031517 0.982715)
(-0.00023421 0.00314442 0.982698)
(-0.00114514 0.00313452 0.98288)
(-0.000520173 0.00309124 0.983025)
(-0.00278964 0.00308818 0.992993)
(-0.00320818 0.0029229 0.960985)
(0.00311245 0.00266314 0.99306)
(0.00257711 0.00268823 1.02468)
(0.000283194 0.0026648 1.0149)
(0.000834878 0.00267135 1.01478)
(-0.000107091 0.00266581 1.01455)
(-0.00025785 0.00265672 1.01451)
(-0.00120235 0.0026379 1.01465)
(-0.000595483 0.00259005 1.01465)
(-0.00295904 0.00254959 1.02474)
(-0.0033692 0.0023517 0.991877)
(0.00307506 0.000397426 0.983289)
(0.00255465 0.000407741 1.01475)
(0.000287546 0.000413206 1.00508)
(0.000831581 0.000414424 1.00494)
(-0.000109606 0.000419188 1.00471)
(-0.000266111 0.000419921 1.00468)
(-0.0012184 0.00041192 1.00482)
(-0.000636637 0.000395151 1.00485)
(-0.00302321 0.000349602 1.0149)
(-0.00340071 0.00022907 0.98206)
(0.00309252 0.0010054 0.983129)
(0.0025659 0.00102804 1.01465)
(0.000289689 0.00102907 1.00495)
(0.000838664 0.00103876 1.00481)
(-0.000103638 0.00105035 1.00459)
(-0.000263968 0.00106186 1.00455)
(-0.00122598 0.00106963 1.00469)
(-0.000659066 0.00107027 1.00471)
(-0.00309712 0.00105489 1.01479)
(-0.00346702 0.000986537 0.981719)
(0.00309187 0.000123112 0.982925)
(0.00257128 0.000137004 1.01445)
(0.000300096 0.000144317 1.00475)
(0.000852803 0.000159178 1.00462)
(-8.6621e-05 0.000179258 1.0044)
(-0.000246716 0.000203752 1.00437)
(-0.00121008 0.000231518 1.00451)
(-0.000653781 0.000263195 1.00454)
(-0.00309892 0.000283749 1.0146)
(-0.00346644 0.000332118 0.981533)
(0.00309906 2.16513e-05 0.982919)
(0.00258282 3.52419e-05 1.01448)
(0.000313421 4.52421e-05 1.00477)
(0.000873561 6.47866e-05 1.00464)
(-5.91185e-05 9.05991e-05 1.00443)
(-0.000211711 0.000125867 1.00441)
(-0.00116683 0.000171926 1.00457)
(-0.000608469 0.000230807 1.00461)
(-0.00302514 0.000289004 1.01464)
(-0.0034126 0.0004403 0.981787)
(0.00311324 -0.000869892 0.98311)
(0.0025991 -0.000867413 1.01472)
(0.00032784 -0.00085283 1.00499)
(0.00089789 -0.000831772 1.00487)
(-2.55592e-05 -0.000803 1.00466)
(-0.000165319 -0.000763019 1.00466)
(-0.00110525 -0.000709115 1.00484)
(-0.000534567 -0.00063696 1.00493)
(-0.00289701 -0.000563839 1.0149)
(-0.00332011 -0.00035027 0.982409)
(0.00310799 -0.000301606 0.983256)
(0.00260704 -0.000294021 1.01486)
(0.00034712 -0.000288709 1.00514)
(0.000923379 -0.000268601 1.00502)
(9.94378e-06 -0.000246075 1.00482)
(-0.000117567 -0.000213022 1.00483)
(-0.00104066 -0.000166716 1.00504)
(-0.000459997 -0.000108012 1.00516)
(-0.00274998 -3.86289e-05 1.01505)
(-0.00320042 0.000143539 0.982994)
(0.0031509 -0.00255965 0.992867)
(0.00263847 -0.00256745 1.02463)
(0.000353084 -0.00253369 1.01479)
(0.000942193 -0.00252038 1.01467)
(3.16476e-05 -0.00249131 1.01444)
(-8.75069e-05 -0.00245577 1.01442)
(-0.00100211 -0.00241167 1.0146)
(-0.000405505 -0.00234403 1.01467)
(-0.00267607 -0.00230686 1.02456)
(-0.00316299 -0.00212033 0.992517)
(0.00310986 -0.00305745 0.961427)
(0.00263367 -0.00309959 0.993077)
(0.000367878 -0.00305429 0.983401)
(0.00095932 -0.003055 0.983292)
(7.12541e-05 -0.0030316 0.983152)
(-3.24863e-05 -0.00300842 0.983227)
(-0.000920851 -0.00298459 0.983515)
(-0.000326157 -0.00293316 0.983769)
(-0.00252896 -0.00293566 0.993526)
(-0.00302197 -0.00279131 0.962277)
(0.00313369 0.00322044 0.955261)
(0.00253723 0.00328179 0.991345)
(0.000264353 0.00323768 0.98052)
(0.000856837 0.0032538 0.980301)
(-0.000176416 0.00324139 0.980096)
(-0.000235949 0.00322935 0.980086)
(-0.00126417 0.00320997 0.980277)
(-0.000572438 0.0031394 0.980501)
(-0.00279079 0.00310357 0.991771)
(-0.00330702 0.0027908 0.95533)
(0.0031967 0.00266559 0.991803)
(0.00256567 0.00269489 1.02818)
(0.000271704 0.00266866 1.01714)
(0.000869932 0.00267647 1.01697)
(-0.000190271 0.00266781 1.01674)
(-0.000274913 0.00265285 1.01669)
(-0.00135886 0.00261954 1.0168)
(-0.000711399 0.00253519 1.01679)
(-0.00313071 0.00243729 1.0282)
(-0.00359203 0.00200517 0.99008)
(0.00315383 0.000404889 0.980771)
(0.00254082 0.000419154 1.01694)
(0.000277673 0.000426556 1.00603)
(0.000865419 0.000428708 1.00584)
(-0.000194227 0.000435049 1.00562)
(-0.000289137 0.000435013 1.00558)
(-0.00139003 0.000419654 1.00571)
(-0.000789808 0.000383766 1.00576)
(-0.00330573 0.000293923 1.01717)
(-0.00368729 -6.02008e-06 0.978785)
(0.00317532 0.00107463 0.980549)
(0.00255509 0.00110343 1.01679)
(0.000281014 0.00110474 1.00585)
(0.000875341 0.00111843 1.00567)
(-0.000186664 0.00113442 1.00545)
(-0.000289018 0.00115005 1.00541)
(-0.0014088 0.00115885 1.00553)
(-0.000840703 0.00115353 1.00556)
(-0.00347703 0.00111574 1.01704)
(-0.00382231 0.000942521 0.978049)
(0.00317429 9.41304e-05 0.980346)
(0.00256186 0.000111857 1.0166)
(0.000295234 0.000121817 1.00566)
(0.000895021 0.000142444 1.00548)
(-0.000162731 0.000170657 1.00526)
(-0.000264572 0.000206208 1.00524)
(-0.00138673 0.000248061 1.00537)
(-0.000837051 0.000298466 1.0054)
(-0.00350045 0.000332432 1.01686)
(-0.00383131 0.000421219 0.977746)
(0.00318392 8.18826e-05 0.980335)
(0.00257738 0.000100563 1.01663)
(0.00031357 0.000114023 1.00568)
(0.000924079 0.000140889 1.0055)
(-0.000122989 0.000177288 1.0053)