/*--------------------------------*- C++ -*----------------------------------*\
  =========                 |
  \\      /  F ield         | OpenFOAM: The Open Source CFD Toolbox
   \\    /   O peration     | Website:  https://openfoam.org
    \\  /    A nd           | Version:  6
     \\/     M anipulation  |
\*---------------------------------------------------------------------------*/
FoamFile
{
    version     2.0;
    format      ascii;
    class       volVectorField;
    location    "500";
    object      U;
}
// * * * * * * * * * * * * * * * * * * * * * * * * * * * * * * * * * * * * * //

dimensions      [0 1 -1 0 0 0 0];

internalField   nonuniform List<vector> 
7000
(
(0.00059786 0.00059791 0.997867)
(0.000754441 0.000598302 0.999407)
(0.00021122 0.000597332 0.998943)
(7.90367e-05 0.000596555 0.998944)
(1.66013e-05 0.000595568 0.998947)
(-4.59397e-05 0.000594416 0.998947)
(-0.000105532 0.000593196 0.998944)
(-0.000233332 0.000592066 0.998944)
(-0.000777147 0.00059143 0.999415)
(-0.000610673 0.000589003 0.997864)
(0.000598243 0.000754814 0.999407)
(0.000753593 0.000754029 1.00095)
(0.000209662 0.00075294 1.00048)
(7.7218e-05 0.000751416 1.00048)
(1.44977e-05 0.000749572 1.00049)
(-4.82416e-05 0.000747468 1.00049)
(-0.000107732 0.000745286 1.00048)
(-0.000235216 0.000743333 1.00048)
(-0.000779859 0.000741468 1.00095)
(-0.000613035 0.000738507 0.999397)
(0.000597313 0.000211947 0.998943)
(0.000752545 0.000210565 1.00048)
(0.000208561 0.000209514 1.00002)
(7.57297e-05 0.000208003 1.00002)
(1.27018e-05 0.000206089 1.00002)
(-5.01992e-05 0.000203918 1.00002)
(-0.000109662 0.000201687 1.00002)
(-0.000237047 0.000199625 1.00002)
(-0.000781875 0.000197648 1.00049)
(-0.000613833 0.000195133 0.998936)
(0.000596646 8.00063e-05 0.998944)
(0.000751179 7.85346e-05 1.00048)
(0.000207098 7.72176e-05 1.00002)
(7.38118e-05 7.53814e-05 1.00002)
(1.04164e-05 7.30448e-05 1.00002)
(-5.26583e-05 7.03887e-05 1.00002)
(-0.000112056 6.76525e-05 1.00002)
(-0.000239263 6.51198e-05 1.00002)
(-0.000784336 6.27509e-05 1.00049)
(-0.000615313 5.94997e-05 0.998935)
(0.000595869 1.78924e-05 0.998947)
(0.000749665 1.63504e-05 1.00049)
(0.000205386 1.48929e-05 1.00002)
(7.15562e-05 1.28838e-05 1.00002)
(7.71071e-06 1.03087e-05 1.00003)
(-5.55892e-05 7.35982e-06 1.00003)
(-0.000114928 4.29661e-06 1.00002)
(-0.000241927 1.43662e-06 1.00002)
(-0.000787352 -1.21968e-06 1.00049)
(-0.000617071 -4.90781e-06 0.998936)
(0.000595044 -4.4274e-05 0.998947)
(0.000748102 -4.57953e-05 1.00049)
(0.000203625 -4.72303e-05 1.00002)
(6.92249e-05 -4.9182e-05 1.00002)
(4.89213e-06 -5.1704e-05 1.00003)
(-5.8669e-05 -5.46151e-05 1.00003)
(-0.000117978 -5.76697e-05 1.00002)
(-0.000244777 -6.0558e-05 1.00002)
(-0.000790545 -6.32441e-05 1.00049)
(-0.000618894 -6.68964e-05 0.998935)
(0.000594256 -0.000103544 0.998945)
(0.000746658 -0.000104803 1.00048)
(0.000202012 -0.000106053 1.00002)
(6.70796e-05 -0.000107731 1.00002)
(2.27595e-06 -0.00010992 1.00002)
(-6.15549e-05 -0.000112471 1.00002)
(-0.000120872 -0.000115184 1.00002)
(-0.000247522 -0.000117802 1.00002)
(-0.000793579 -0.000120241 1.00049)
(-0.000620581 -0.000123608 0.998931)
(0.000593616 -0.000231228 0.998944)
(0.000745568 -0.000232056 1.00048)
(0.000200725 -0.000233069 1.00002)
(6.53548e-05 -0.000234385 1.00002)
(1.50617e-07 -0.000236114 1.00002)
(-6.39324e-05 -0.000238151 1.00002)
(-0.000123308 -0.000240363 1.00002)
(-0.000249871 -0.000242538 1.00002)
(-0.000796267 -0.000244609 1.00049)
(-0.00062204 -0.000247497 0.99893)
(0.00059353 -0.000774972 0.999413)
(0.000744698 -0.000776326 1.00095)
(0.00019969 -0.000777234 1.00049)
(6.40132e-05 -0.000778441 1.00049)
(-1.4914e-06 -0.000780109 1.00049)
(-6.57823e-05 -0.000782069 1.00049)
(-0.00012522 -0.000784187 1.00049)
(-0.000251765 -0.000786358 1.00049)
(-0.000798351 -0.000788284 1.00096)
(-0.00062352 -0.000789957 0.999402)
(0.00059191 -0.000609548 0.997864)
(0.000743214 -0.00061111 0.9994)
(0.000198614 -0.000611243 0.998938)
(6.23586e-05 -0.000611967 0.998938)
(-3.59307e-06 -0.000612906 0.99894)
(-6.81026e-05 -0.00061398 0.99894)
(-0.000127658 -0.000615102 0.998936)
(-0.000254123 -0.000616218 0.998934)
(-0.000799838 -0.000617542 0.999409)
(-0.000623365 -0.000617393 0.997847)
(0.00145516 0.00145425 0.994362)
(0.00170305 0.00145758 0.999189)
(0.000405974 0.0014526 0.997333)
(0.000232256 0.00145014 0.997324)
(4.2092e-05 0.00144643 0.997316)
(-0.000159104 0.00144213 0.997318)
(-0.000339892 0.00143758 0.997329)
(-0.000494611 0.00143282 0.997339)
(-0.00179335 0.00143232 0.999243)
(-0.00150702 0.00142079 0.99434)
(0.00145849 0.00170379 0.999185)
(0.00170079 0.00170171 1.00401)
(0.000400394 0.00169727 1.00215)
(0.000225621 0.00169226 1.00214)
(3.39782e-05 0.001686 1.00212)
(-0.000168184 0.00167884 1.00212)
(-0.000349057 0.00167136 1.00212)
(-0.000502083 0.00166445 1.00212)
(-0.00180507 0.00165971 1.00402)
(-0.00151857 0.00164762 0.99909)
(0.00145365 0.000410349 0.99733)
(0.00169647 0.000405382 1.00215)
(0.000397197 0.000402308 1.0003)
(0.000221097 0.00039739 1.00029)
(2.8565e-05 0.000391307 1.00027)
(-0.000174081 0.000384498 1.00027)
(-0.000354827 0.000377553 1.00028)
(-0.000507344 0.000371311 1.00028)
(-0.00181053 0.000365792 1.00219)
(-0.00151983 0.000356523 0.997256)
(0.00145156 0.000238825 0.997322)
(0.00169193 0.000233389 1.00214)
(0.00039237 0.000229256 1.00029)
(0.000214666 0.000223029 1.00027)
(2.10695e-05 0.000215286 1.00026)
(-0.000182027 0.000206635 1.00026)
(-0.00036239 0.000197843 1.00026)
(-0.000513904 0.000189945 1.00026)
(-0.00181907 0.000183273 1.00218)
(-0.00152588 0.000170909 0.997231)
(0.00144855 5.1318e-05 0.997313)
(0.00168663 4.51249e-05 1.00213)
(0.000386744 4.04853e-05 1.00027)
(0.00020712 3.36699e-05 1.00026)
(1.21647e-05 2.50819e-05 1.00025)
(-0.000191531 1.54237e-05 1.00024)
(-0.000371522 5.53873e-06 1.00024)
(-0.000521829 -3.48204e-06 1.00025)
(-0.00182921 -1.09854e-05 1.00216)
(-0.00153246 -2.44816e-05 0.997204)
(0.00144532 -0.000146569 0.997314)
(0.00168101 -0.000152976 1.00212)
(0.000380881 -0.000157655 1.00027)
(0.00019926 -0.000164358 1.00026)
(2.82076e-06 -0.00017288 1.00024)
(-0.00020157 -0.000182528 1.00024)
(-0.000381292 -0.000192505 1.00024)
(-0.000530391 -0.000201798 1.00024)
(-0.00183989 -0.000209518 1.00216)
(-0.00153926 -0.000222879 0.997187)
(0.00144219 -0.000324101 0.997325)
(0.00167564 -0.000329987 1.00213)
(0.000375397 -0.000334134 1.00028)
(0.000191895 -0.000339968 1.00027)
(-6.00624e-06 -0.000347508 1.00025)
(-0.000211153 -0.000356145 1.00024)
(-0.000390786 -0.000365228 1.00024)
(-0.000538872 -0.00037397 1.00024)
(-0.00185031 -0.00038153 1.00217)
(-0.00154579 -0.000393963 0.99718)
(0.00143908 -0.00047764 0.997335)
(0.00167124 -0.000481604 1.00213)
(0.000370986 -0.000484982 1.00029)
(0.000185886 -0.000489515 1.00027)
(-1.3357e-05 -0.000495428 1.00025)
(-0.000219287 -0.000502269 1.00025)
(-0.000399111 -0.000509639 1.00024)
(-0.000546777 -0.000517209 1.00024)
(-0.00186009 -0.000524019 1.00217)
(-0.00155127 -0.000534481 0.997174)
(0.00144021 -0.00177891 0.999236)
(0.0016691 -0.00178585 1.00403)
(0.000367518 -0.00178832 1.00219)
(0.0001814 -0.00179339 1.00218)
(-1.87484e-05 -0.00179991 1.00217)
(-0.000225277 -0.00180735 1.00216)
(-0.000405579 -0.00181537 1.00216)
(-0.000553194 -0.0018237 1.00216)
(-0.00186828 -0.00183129 1.0041)
(-0.00155819 -0.00183793 0.999094)
(0.00143167 -0.00150094 0.994332)
(0.00166203 -0.00150948 0.999113)
(0.000362773 -0.00150873 0.997272)
(0.000174155 -0.00151237 0.997253)
(-2.72588e-05 -0.00151639 0.997232)
(-0.000234491 -0.00152092 0.997218)
(-0.000414992 -0.00152575 0.997211)
(-0.000561698 -0.0015301 0.997202)
(-0.00187415 -0.00153641 0.999135)
(-0.00155717 -0.00153539 0.994121)
(0.00197347 0.00197104 0.990193)
(0.00211592 0.00197861 0.998799)
(0.000393722 0.00196754 0.995553)
(0.000360702 0.00196362 0.995535)
(5.28388e-05 0.00195646 0.995479)
(-0.000248683 0.00194833 0.995485)
(-0.000540693 0.00193977 0.99555)
(-0.000536766 0.00192986 0.995575)
(-0.00226027 0.00193083 0.99893)
(-0.00205883 0.00190747 0.990143)
(0.00198103 0.0021132 0.998786)
(0.00211281 0.0021104 1.00739)
(0.000384079 0.00210037 1.00413)
(0.000349012 0.00209136 1.0041)
(3.76067e-05 0.00207951 1.00402)
(-0.000266109 0.00206587 1.00401)
(-0.000559149 0.00205139 1.00405)
(-0.000551757 0.00203734 1.00405)
(-0.00228339 0.00203053 1.0074)
(-0.00208191 0.00200638 0.998545)
(0.00197029 0.000394326 0.995545)
(0.00210308 0.000385838 1.00414)
(0.000378015 0.000380016 1.00089)
(0.000340273 0.000370278 1.00086)
(2.72294e-05 0.000358415 1.00079)
(-0.000277533 0.000344921 1.00078)
(-0.000570429 0.000330817 1.00083)
(-0.000561798 0.000317969 1.00084)
(-0.00229184 0.000307464 1.00421)
(-0.00208268 0.000288659 0.99535)
(0.00196717 0.00036379 0.995526)
(0.00209507 0.000354453 1.00411)
(0.000368477 0.000346544 1.00086)
(0.000327442 0.000334206 1.00083)
(1.21871e-05 0.000318885 1.00076)
(-0.000293812 0.000301486 1.00075)
(-0.000586278 0.000283342 1.0008)
(-0.000575261 0.000266641 1.0008)
(-0.00230948 0.00025356 1.00418)
(-0.00209553 0.000228301 0.995287)
(0.00196151 5.93772e-05 0.995469)
(0.0020853 4.80234e-05 1.00403)
(0.000357676 3.93499e-05 1.00079)
(0.000312607 2.59731e-05 1.00077)
(-5.52508e-06 9.0391e-06 1.00069)
(-0.000313114 -1.02951e-05 1.00068)
(-0.000605303 -3.05456e-05 1.00072)
(-0.000591566 -4.94816e-05 1.00072)
(-0.00232975 -6.41461e-05 1.00411)
(-0.00210857 -9.10234e-05 0.995178)
(0.00195568 -0.000237448 0.995472)
(0.00207502 -0.000249371 1.00402)
(0.000346419 -0.000258077 1.00079)
(0.000297153 -0.00027128 1.00076)
(-2.40839e-05 -0.000288159 1.00068)
(-0.000333407 -0.000307487 1.00066)
(-0.000625465 -0.000327833 1.0007)
(-0.00060888 -0.00034711 1.0007)
(-0.00235108 -0.000362134 1.0041)
(-0.00212238 -0.000388615 0.995129)
(0.00195022 -0.00052463 0.995535)
(0.00206521 -0.000536306 1.00407)
(0.000335792 -0.000543972 1.00084)
(0.000282551 -0.00055554 1.00081)
(-4.17194e-05 -0.000570624 1.00073)
(-0.000352782 -0.000588021 1.00071)
(-0.000644901 -0.000606506 1.00074)
(-0.000625882 -0.000624478 1.00073)
(-0.00237188 -0.000639081 1.00415)
(-0.00213581 -0.000662333 0.99514)
(0.00194386 -0.000519014 0.995559)
(0.00205664 -0.000526973 1.00408)
(0.00032727 -0.00053314 1.00086)
(0.000270522 -0.000541927 1.00082)
(-5.65588e-05 -0.000553609 1.00074)
(-0.000369298 -0.000567137 1.00072)
(-0.000661911 -0.000581734 1.00075)
(-0.000641534 -0.000596624 1.00073)
(-0.00239004 -0.000608803 1.00416)
(-0.00214562 -0.000629303 0.995119)
(0.00194813 -0.00224471 0.99891)
(0.00205497 -0.00225788 1.00744)
(0.000320928 -0.00226014 1.00422)
(0.000262108 -0.00227 1.00419)
(-6.6845e-05 -0.0022821 1.00412)
(-0.000380803 -0.00229603 1.0041)
(-0.000674204 -0.00231111 1.00414)
(-0.000652844 -0.00232573 1.00414)
(-0.00240851 -0.002343 1.00758)
(-0.00216239 -0.00235385 0.998515)
(0.0019313 -0.00205181 0.990119)
(0.00204165 -0.00206842 0.998603)
(0.000311974 -0.00206484 0.995392)
(0.000248312 -0.00207218 0.995345)
(-8.23129e-05 -0.00207935 0.995253)
(-0.000397434 -0.00208773 0.995215)
(-0.000690263 -0.00209686 0.995229)
(-0.000669139 -0.00210389 0.995201)
(-0.00241803 -0.00211944 0.998626)
(-0.002157 -0.00211391 0.989537)
(0.0023108 0.00230662 0.985051)
(0.00228893 0.00231868 0.997883)
(0.000322547 0.00230006 0.993379)
(0.000459352 0.0022945 0.993366)
(3.15836e-05 0.00228249 0.993259)
(-0.000305664 0.00226925 0.993271)
(-0.000712319 0.0022556 0.993402)
(-0.000519106 0.00223817 0.993433)
(-0.00248587 0.0022405 0.998126)
(-0.00243015 0.00220154 0.984985)
(0.00232285 0.00228271 0.997857)
(0.00228439 0.00227873 1.01068)
(0.000308119 0.00226158 1.00614)
(0.00044149 0.00224781 1.00611)
(7.04028e-06 0.00222868 1.00596)
(-0.000334186 0.00220669 1.00593)
(-0.000743853 0.00218323 1.00601)
(-0.000544991 0.00215908 1.00599)
(-0.00252457 0.00214929 1.01069)
(-0.0024681 0.00210796 0.997405)
(0.00230483 0.00032003 0.993361)
(0.00226782 0.000307642 1.00615)
(0.000298844 0.000298762 1.00165)
(0.000427504 0.000283087 1.00162)
(-9.43609e-06 0.000264194 1.00148)
(-0.000352437 0.000242292 1.00147)
(-0.000762046 0.000218883 1.00157)
(-0.000561576 0.000197227 1.00156)
(-0.00253762 0.000179797 1.00628)
(-0.00246923 0.000146211 0.992991)
(0.00230074 0.000459773 0.993345)
(0.00225586 0.000446109 1.00612)
(0.000283513 0.000433575 1.00162)
(0.000406839 0.000413862 1.00159)
(-3.39721e-05 0.000389216 1.00145)
(-0.000379514 0.000360694 1.00142)
(-0.000789003 0.000330327 1.00152)
(-0.000584337 0.000301655 1.0015)
(-0.00256868 0.000280087 1.00624)
(-0.00249238 0.000234861 0.992882)
(0.00229146 3.61537e-05 0.993232)
(0.0022405 1.86142e-05 1.00598)
(0.000266615 5.23267e-06 1.00149)
(0.000383147 -1.6051e-05 1.00145)
(-6.26834e-05 -4.3246e-05 1.00131)
(-0.000411409 -7.48442e-05 1.00128)
(-0.000821131 -0.000108571 1.00136)
(-0.000611999 -0.000140902 1.00134)
(-0.00260346 -0.000165511 1.0061)
(-0.00251486 -0.000212795 0.99266)
(0.00228248 -0.000294788 0.993239)
(0.00222471 -0.000313256 1.00595)
(0.000248987 -0.000326457 1.00147)
(0.000358452 -0.000347484 1.00143)
(-9.27484e-05 -0.000374601 1.00128)
(-0.000444846 -0.000406123 1.00125)
(-0.000855019 -0.000439874 1.00132)
(-0.000641424 -0.00047268 1.00129)
(-0.00264045 -0.000498287 1.00608)
(-0.0025391 -0.000544745 0.992551)
(0.00227458 -0.000694357 0.993362)
(0.00220997 -0.00071327 1.00605)
(0.000232306 -0.000724642 1.00158)
(0.000335098 -0.000743087 1.00153)
(-0.000121267 -0.000767371 1.00138)
(-0.000476646 -0.000795746 1.00133)
(-0.000887574 -0.000826338 1.0014)
(-0.000670222 -0.000856917 1.00136)
(-0.00267681 -0.000882076 1.00617)
(-0.00256319 -0.000922734 0.992563)
(0.00226395 -0.000499158 0.993388)
(0.0021963 -0.000511922 1.00604)
(0.000219136 -0.000521271 1.00159)
(0.00031579 -0.000534878 1.00154)
(-0.000145384 -0.000553502 1.00138)
(-0.00050384 -0.000575316 1.00133)
(-0.000916144 -0.000599114 1.00138)
(-0.000697057 -0.000624487 1.00133)
(-0.00270844 -0.000645429 1.00616)
(-0.00258053 -0.000678724 0.992494)
(0.0022725 -0.0024689 0.998075)
(0.00219607 -0.0024892 1.01075)
(0.000209536 -0.00249062 1.00629)
(0.000303166 -0.00250637 1.00626)
(-0.000161369 -0.00252492 1.00612)
(-0.000522193 -0.00254691 1.00608)
(-0.000936557 -0.00257139 1.00615)
(-0.000716268 -0.00259562 1.00611)
(-0.00273938 -0.00262379 1.01099)
(-0.0026077 -0.00264401 0.997259)
(0.00224575 -0.00242224 0.984913)
(0.00217508 -0.0024482 0.99751)
(0.000195052 -0.002441 0.993067)
(0.000280747 -0.00245321 0.992998)
(-0.000185765 -0.00246388 0.992814)
(-0.000548748 -0.00247711 0.992734)
(-0.000962452 -0.00249232 0.992757)
(-0.000740585 -0.0025037 0.992677)
(-0.00275688 -0.00252805 0.997503)
(-0.00260343 -0.00252319 0.983723)
(0.00256235 0.00255561 0.979448)
(0.00238812 0.00257173 0.996746)
(0.00026985 0.0025445 0.99102)
(0.000539408 0.00253658 0.991008)
(-1.66637e-05 0.00251766 0.99087)
(-0.000336912 0.00249725 0.990897)
(-0.000867766 0.00247649 0.991083)
(-0.000521233 0.00244831 0.991136)
(-0.00263737 0.00244995 0.997151)
(-0.00271618 0.00238969 0.979402)
(0.00257842 0.00237653 0.9967)
(0.00238063 0.00237001 1.01398)
(0.00024895 0.00234466 1.00819)
(0.000513041 0.00232449 1.00814)
(-5.41445e-05 0.0022952 1.00794)
(-0.000380939 0.00226153 1.00789)
(-0.000917842 0.00222539 1.00799)
(-0.000563351 0.00218633 1.00795)
(-0.00269888 0.00216969 1.01398)
(-0.002774 0.00210224 0.995968)
(0.00255225 0.000262114 0.990987)
(0.00235628 0.000244651 1.00821)
(0.000235699 0.000232023 1.00248)
(0.000491885 0.000208394 1.00244)
(-7.90551e-05 0.000179961 1.00226)
(-0.000408875 0.000146237 1.00223)
(-0.000946183 0.00010931 1.00236)
(-0.000590268 7.43012e-05 1.00234)
(-0.00272171 4.58697e-05 1.0084)
(-0.00277879 -1.14309e-05 0.990387)
(0.00254681 0.000534749 0.990968)
(0.00233915 0.000515467 1.00816)
(0.00021263 0.000496733 1.00244)
(0.000460678 0.000467241 1.00239)
(-0.000116825 0.000429837 1.0022)
(-0.000451444 0.000385651 1.00217)
(-0.000989698 0.000337555 1.00228)
(-0.000627304 0.000290696 1.00225)
(-0.00277355 0.000256466 1.00835)
(-0.00281766 0.000179809 0.990196)
(0.00253256 -1.69217e-05 0.990818)
(0.00231629 -4.24407e-05 1.00796)
(0.000187706 -6.2011e-05 1.00226)
(0.000425004 -9.38669e-05 1.0022)
(-0.000160816 -0.000135085 1.002)
(-0.000501327 -0.000183947 1.00195)
(-0.00104119 -0.000237238 1.00205)
(-0.000672004 -0.000289768 1.002)
(-0.00283047 -0.000328627 1.00815)
(-0.00285504 -0.0004094 0.989841)
(0.00251951 -0.000329129 0.990828)
(0.00229339 -0.00035576 1.00792)
(0.000161636 -0.000374794 1.00223)
(0.000387816 -0.000406254 1.00217)
(-0.000206859 -0.000447304 1.00196)
(-0.000553609 -0.000495956 1.0019)
(-0.00109541 -0.000549228 1.00198)
(-0.000719212 -0.00060237 1.00191)
(-0.00289215 -0.000643314 1.0081)
(-0.00289678 -0.000724323 0.989633)
(0.00250884 -0.000849769 0.990997)
(0.00227259 -0.000877689 1.00805)
(0.000136929 -0.000893732 1.00237)
(0.000352701 -0.000921384 1.00231)
(-0.000250393 -0.000958074 1.00208)
(-0.000603172 -0.0010017 1.00201)
(-0.00114732 -0.00104979 1.00207)
(-0.000765622 -0.00109912 1.00199)
(-0.00295411 -0.00114048 1.00821)
(-0.00293928 -0.00121009 0.989589)
(0.0024928 -0.0005 0.991034)
(0.0022524 -0.000518863 1.00803)
(0.000117695 -0.000532569 1.00238)
(0.000323593 -0.000552449 1.00231)
(-0.000287128 -0.000580353 1.00208)
(-0.000645412 -0.00061353 1.00199)
(-0.00119272 -0.000650564 1.00204)
(-0.000809552 -0.000691296 1.00194)
(-0.00300637 -0.000724789 1.00819)
(-0.00296835 -0.000784109 0.989449)
(0.00250556 -0.00262182 0.997042)
(0.00225293 -0.00264975 1.01407)
(0.000103703 -0.00265108 1.00842)
(0.000305728 -0.00267439 1.00837)
(-0.000310612 -0.00270108 1.00816)
(-0.000673347 -0.00273398 1.0081)
(-0.00122481 -0.00277203 1.00817)
(-0.000839255 -0.00280876 1.00809)
(-0.00305963 -0.00285752 1.01443)
(-0.00301497 -0.0028915 0.995578)
(0.00246814 -0.00270979 0.979233)
(0.00222347 -0.00274543 0.996137)
(8.20734e-05 -0.00273478 0.990509)
(0.00027196 -0.00275318 0.9904)
(-0.000347147 -0.00276809 0.990128)
(-0.000714173 -0.0027879 0.989988)
(-0.00126413 -0.00281186 0.989978)
(-0.000881528 -0.00282845 0.989824)
(-0.00308991 -0.00287048 0.996073)
(-0.00300762 -0.00286134 0.977117)
(0.00275077 0.00274012 0.973777)
(0.00244089 0.00275943 0.995632)
(0.000232877 0.00272255 0.988672)
(0.000603015 0.00271095 0.988646)
(-8.14982e-05 0.0026825 0.988502)
(-0.000350815 0.00265201 0.988551)
(-0.00100781 0.00262079 0.988789)
(-0.000538809 0.00257693 0.988899)
(-0.00273785 0.00257379 0.996268)
(-0.00293637 0.00248347 0.973829)
(0.00276995 0.00242098 0.995558)
(0.00242851 0.00241023 1.01739)
(0.000203293 0.00237537 1.01033)
(0.000564727 0.00234633 1.01024)
(-0.000137031 0.002303 1.00999)
(-0.000416815 0.00225279 1.00991)
(-0.00108492 0.002198 1.01002)
(-0.000606277 0.00213621 1.00996)
(-0.00283414 0.00210574 1.01737)
(-0.00302175 0.00199716 0.994467)
(0.00273479 0.000216419 0.988618)
(0.0023953 0.000192394 1.01036)
(0.000184717 0.000174776 1.00338)
(0.000533733 0.000140427 1.00331)
(-0.000173836 9.87073e-05 1.0031)
(-0.000459043 4.79375e-05 1.00306)
(-0.00112894 -9.13324e-06 1.0032)
(-0.000649724 -6.52103e-05 1.0032)
(-0.00287613 -0.000110913 1.01064)
(-0.00303682 -0.000208182 0.98773)
(0.0027272 0.000588773 0.988578)
(0.00237115 0.000562017 1.01027)
(0.000151259 0.000534958 1.00331)
(0.000488029 0.000492235 1.00323)
(-0.000230487 0.000436926 1.003)
(-0.000524325 0.000370101 1.00295)
(-0.00119777 0.000295597 1.00307)
(-0.000709057 0.000220808 1.00304)
(-0.00296131 0.000166462 1.01055)
(-0.00310081 3.71396e-05 0.987394)
(0.0027064 -9.21734e-05 0.988409)
(0.00233838 -0.000128005 1.01002)
(0.000115504 -0.000155833 1.00309)
(0.000435735 -0.000202134 1.003)
(-0.000296269 -0.00026299 1.00275)
(-0.000600684 -0.0003368 1.00267)
(-0.00127828 -0.000419237 1.00276)
(-0.00078032 -0.000502306 1.00271)
(-0.00305557 -0.000565802 1.01029)
(-0.00316354 -0.000703832 0.986869)
(0.00268809 -0.000351873 0.988427)
(0.00230615 -0.000388749 1.00996)
(7.79988e-05 -0.000415665 1.00306)
(0.000381252 -0.000461274 1.00296)
(-0.000365071 -0.000521703 1.00269)
(-0.000680644 -0.000595032 1.00259)
(-0.00136304 -0.000677256 1.00265)
(-0.000856771 -0.000761727 1.00256)
(-0.00315996 -0.000830841 1.01022)
(-0.0032343 -0.000970387 0.986503)
(0.00267397 -0.000994094 0.988627)
(0.00227755 -0.00103316 1.01009)
(4.2457e-05 -0.00105544 1.00321)
(0.000330062 -0.00109562 1.0031)
(-0.000429763 -0.00114938 1.00282)
(-0.000756105 -0.00121477 1.00269)
(-0.0014444 -0.00128874 1.00273)
(-0.000933116 -0.00136739 1.0026)
(-0.00326565 -0.00143771 1.01034)
(-0.00330659 -0.00156062 0.986326)
(0.00265137 -0.000520542 0.988701)
(0.00224905 -0.000546824 1.01008)
(1.49947e-05 -0.000566423 1.00323)
(0.000287491 -0.000594843 1.00312)
(-0.000484152 -0.000635579 1.00282)
(-0.000820204 -0.000684935 1.00268)
(-0.00151547 -0.000741422 1.00269)
(-0.00100515 -0.000806928 1.00254)
(-0.00335664 -0.000863757 1.01032)
(-0.0033594 -0.000963307 0.986092)
(0.00266831 -0.00273164 0.996062)
(0.00224958 -0.00276818 1.0175)
(-4.89437e-06 -0.0027707 1.01064)
(0.000262564 -0.00280367 1.01056)
(-0.000518116 -0.00284109 1.0103)
(-0.00086177 -0.00288888 1.0102)
(-0.00156574 -0.0029461 1.01025)
(-0.00105434 -0.00300515 1.01013)
(-0.00343754 -0.00307511 1.01805)
(-0.00342622 -0.00313789 0.99363)
(0.00261885 -0.00293673 0.973478)
(0.00220983 -0.00298286 0.994723)
(-3.58733e-05 -0.00296929 0.987911)
(0.000213982 -0.00299527 0.987734)
(-0.00057104 -0.0030156 0.987375)
(-0.000922834 -0.00304412 0.987153)
(-0.00162788 -0.00308018 0.987061)
(-0.00111659 -0.00310747 0.986819)
(-0.00349114 -0.003163 0.994588)
(-0.00343029 -0.00316299 0.969985)
(0.00288316 0.00286658 0.968121)
(0.00244873 0.00288781 0.994569)
(0.000198023 0.00284004 0.986385)
(0.000649615 0.00282276 0.986336)
(-0.000153879 0.00278161 0.986209)
(-0.000349436 0.00273703 0.986296)
(-0.00112418 0.00269048 0.986593)
(-0.000552894 0.00262432 0.986797)
(-0.00277967 0.00261018 0.995536)
(-0.00308971 0.0024726 0.968432)
(0.00290407 0.00241627 0.994455)
(0.002429 0.00239923 1.02087)
(0.000156964 0.00235308 1.01253)
(0.000594834 0.0023118 1.01239)
(-0.000234313 0.00224948 1.0121)
(-0.000446393 0.00217609 1.01199)
(-0.00124004 0.00209412 1.01208)
(-0.00065889 0.00199849 1.01203)
(-0.00293298 0.00194304 1.02081)
(-0.00321843 0.00176683 0.992928)
(0.00285901 0.000167644 0.986301)
(0.00238548 0.000135317 1.01257)
(0.00013107 0.000110846 1.00437)
(0.000550566 6.22322e-05 1.00426)
(-0.000287639 2.13967e-06 1.00402)
(-0.00050939 -7.29048e-05 1.00397)
(-0.001308 -0.000159788 1.00412)
(-0.000728914 -0.000248724 1.00414)
(-0.00300831 -0.000322939 1.01298)
(-0.00325378 -0.000485729 0.985062)
(0.00284797 0.000618682 0.986226)
(0.00235176 0.000582082 1.01243)
(8.38255e-05 0.000544008 1.00425)
(0.000485052 0.000483468 1.00412)
(-0.00037096 0.000403252 1.00386)
(-0.000607837 0.000303985 1.00379)
(-0.00141521 0.000190187 1.0039)
(-0.000824053 7.14854e-05 1.00388)
(-0.00314771 -1.5831e-05 1.01284)
(-0.00335804 -0.000232904 0.984499)
(0.00281887 -0.000184212 0.986055)
(0.00230617 -0.000233171 1.01214)
(3.3526e-05 -0.000271905 1.004)
(0.000409878 -0.000337736 1.00386)
(-0.000467544 -0.000425802 1.00357)
(-0.000722992 -0.000535386 1.00346)
(-0.00154051 -0.000661565 1.00352)
(-0.000937912 -0.000793943 1.00346)
(-0.00330314 -0.000895239 1.01254)
(-0.00346363 -0.00113219 0.983737)
(0.00279385 -0.000369973 0.986084)
(0.00226183 -0.000419583 1.01205)
(-1.93071e-05 -0.000457054 1.00395)
(0.000331706 -0.00052162 1.00379)
(-0.000568467 -0.000608766 1.00348)
(-0.0008438 -0.000717391 1.00333)
(-0.00167334 -0.000843398 1.00335)
(-0.00106018 -0.000978899 1.00323)
(-0.0034778 -0.00108869 1.01244)
(-0.00358793 -0.00133975 0.983105)
(0.0027753 -0.00112566 0.986308)
(0.00222315 -0.00117818 1.01218)
(-6.92486e-05 -0.00120874 1.00411)
(0.000258762 -0.00126558 1.00394)
(-0.000662817 -0.00134249 1.0036)
(-0.000957417 -0.00143857 1.00342)
(-0.00180095 -0.00155124 1.00338)
(-0.00118256 -0.0016763 1.00321)
(-0.00366207 -0.00179169 1.01254)
(-0.00371989 -0.00201101 0.982664)
(0.00274509 -0.000546442 0.98644)
(0.00218451 -0.000582091 1.01219)
(-0.00010763 -0.000609125 1.00417)
(0.000198195 -0.000648832 1.00399)
(-0.000741363 -0.000706668 1.00363)
(-0.00105297 -0.00077839 1.00343)
(-0.00191072 -0.000863543 1.00336)
(-0.00129997 -0.000966011 1.00314)
(-0.00381567 -0.0010609 1.01255)
(-0.00381222 -0.00123108 0.982261)
(0.00276569 -0.00279979 0.995169)
(0.00218389 -0.00284555 1.02101)
(-0.000134799 -0.0028505 1.01296)
(0.000164179 -0.00289512 1.01283)
(-0.000789293 -0.00294622 1.01253)
(-0.00111357 -0.00301366 1.01238)
(-0.00198694 -0.00309778 1.01238)
(-0.00137723 -0.00318497 1.01221)
(-0.00394636 -0.00329861 1.02184)
(-0.00391687 -0.0033994 0.991235)
(0.00270365 -0.00311054 0.967739)
(0.00213265 -0.00316692 0.993292)
(-0.000177598 -0.00315107 0.985322)
(9.6983e-05 -0.00318577 0.985053)
(-0.000863808 -0.00321284 0.984605)
(-0.00120301 -0.00325263 0.984276)
(-0.00207877 -0.00330509 0.984051)
(-0.00147964 -0.00334427 0.983685)
(-0.00403879 -0.00343151 0.993085)
(-0.00392924 -0.00343175 0.962177)
(0.00297244 0.00294712 0.962471)
(0.00242741 0.00296872 0.99352)
(0.000167437 0.00290888 0.984151)
(0.000685649 0.00288335 0.984082)
(-0.00022259 0.00282578 0.983996)
(-0.000328031 0.00276216 0.984143)
(-0.0012105 0.00269351 0.984516)
(-0.000552282 0.00259535 0.984859)
(-0.00274835 0.00255658 0.994935)
(-0.00316616 0.00234625 0.96328)
(0.00299341 0.0023765 0.993353)
(0.00239749 0.00235082 1.02435)
(0.000111495 0.00229147 1.01477)
(0.000608666 0.00223378 1.01456)
(-0.000336403 0.00214652 1.01423)
(-0.000467788 0.00204154 1.01409)
(-0.00138183 0.00192037 1.01415)
(-0.000720445 0.00177334 1.0141)
(-0.00299608 0.00167317 1.02423)
(-0.00336526 0.00137579 0.991276)
(0.00293766 0.000115357 0.984025)
(0.00234212 7.26558e-05 1.01482)
(7.58588e-05 3.90495e-05 1.00543)
(0.000546987 -2.81604e-05 1.00526)
(-0.000412173 -0.000113197 1.00501)
(-0.000560531 -0.000222273 1.00496)
(-0.00148712 -0.000352958 1.00511)
(-0.000831779 -0.000493618 1.00517)
(-0.00313953 -0.000611846 1.01543)
(-0.00344551 -0.000894125 0.982365)
(0.00292148 0.000626508 0.983915)
(0.00229571 0.000577226 1.01462)
(1.06794e-05 0.000524955 1.00525)
(0.000454787 0.000440826 1.00507)
(-0.000532582 0.000326614 1.00479)
(-0.000706967 0.000181379 1.0047)
(-0.00165224 9.45762e-06 1.00479)
(-0.000982726 -0.000176039 1.00479)
(-0.00336811 -0.000314203 1.01524)
(-0.00361261 -0.000673919 0.981467)
(0.00288219 -0.000288538 0.983758)
(0.00223399 -0.000353784 1.01428)
(-5.87715e-05 -0.000406559 1.00498)
(0.000348746 -0.000498203 1.00478)
(-0.000672123 -0.000623293 1.00446)
(-0.000878541 -0.000783738 1.00432)
(-0.00184423 -0.000974915 1.00434)
(-0.0011598 -0.00118126 1.00426)
(-0.00362239 -0.00134792 1.01491)
(-0.00378667 -0.00175529 0.980349)
(0.00284879 -0.00038797 0.983804)
(0.00217435 -0.000453101 1.01417)
(-0.000131658 -0.000504263 1.00492)
(0.000238778 -0.000593601 1.0047)
(-0.000817883 -0.000716864 1.00434)
(-0.00105904 -0.000875386 1.00414)
(-0.00204896 -0.0010665 1.00408)
(-0.0013591 -0.00127927 1.00392)
(-0.00392741 -0.0014787 1.01479)
(-0.00399635 -0.00191913 0.979317)
(0.00282461 -0.00124625 0.984047)
(0.00212292 -0.00131465 1.01427)
(-0.000200145 -0.00135583 1.00507)
(0.000137064 -0.00143421 1.00483)
(-0.000953031 -0.00154181 1.00444)
(-0.00122787 -0.00168047 1.00419)
(-0.00224617 -0.00184997 1.00406)
(-0.00157053 -0.00204901 1.0038)
(-0.00425475 -0.00225776 1.01488)
(-0.00422119 -0.00265957 0.978432)
(0.00278581 -0.000577353 0.984252)
(0.00207219 -0.000623945 1.01431)
(-0.00025259 -0.000660117 1.00517)
(5.31235e-05 -0.000714384 1.00492)
(-0.001064 -0.000794556 1.00451)
(-0.00136798 -0.000896879 1.00423)
(-0.00241686 -0.00102371 1.00405)
(-0.00176576 -0.00118753 1.00372)
(-0.0045349 -0.00134685 1.01494)
(-0.00439457 -0.00166165 0.977742)
(0.00280971 -0.00283971 0.994334)
(0.00206945 -0.00289548 1.02452)
(-0.000288632 -0.00290435 1.01535)
(7.45187e-06 -0.0029627 1.01517)
(-0.00113049 -0.00303091 1.01483)
(-0.00145506 -0.00312374 1.01463)
(-0.00253311 -0.0032433 1.01455)
(-0.00188962 -0.00337807 1.0143)
(-0.00473624 -0.00353453 1.02585)
(-0.00455061 -0.00371186 0.988118)
(0.0027339 -0.00324241 0.962018)
(0.00200478 -0.00330932 0.991804)
(-0.000345809 -0.00329206 0.982738)
(-8.25463e-05 -0.00333646 0.982366)
(-0.00123253 -0.00337175 0.981825)
(-0.00158151 -0.00342551 0.981367)
(-0.002671 -0.00349802 0.980954)
(-0.00203804 -0.00355881 0.980413)
(-0.00487512 -0.00366849 0.991627)
(-0.00458899 -0.0036848 0.953357)
(0.00303195 0.00299461 0.956843)
(0.00239468 0.00301486 0.992485)
(0.000148006 0.00294184 0.981975)
(0.000719788 0.00290511 0.981894)
(-0.000277184 0.00282705 0.981876)
(-0.000280058 0.00273867 0.98211)
(-0.00125197 0.00263988 0.982594)
(-0.000522861 0.00249827 0.983129)
(-0.00263335 0.00242417 0.994462)
(-0.00317045 0.0020724 0.958656)
(0.00305108 0.00231823 0.992247)
(0.00235136 0.00228134 1.0278)
(7.31863e-05 0.00220686 1.01701)
(0.000613957 0.00212809 1.01673)
(-0.000434234 0.00200922 1.01636)
(-0.000476662 0.00186275 1.01619)
(-0.00149872 0.00168794 1.01621)
(-0.000776093 0.00147056 1.01617)
(-0.00305003 0.00130325 1.02755)
(-0.00346655 0.000763766 0.989548)
(0.00298402 6.41658e-05 0.981794)
(0.00228271 8.7179e-06 1.01709)
(2.51652e-05 -3.65468e-05 1.00654)
(0.000530254 -0.000127333 1.00633)
(-0.000539419 -0.000245163 1.00608)
(-0.000610115 -0.00040043 1.00603)
(-0.0016555 -0.000592748 1.00619)
(-0.000950116 -0.00080905 1.00631)
(-0.00331928 -0.00099832 1.01791)
(-0.00364442 -0.00152034 0.979456)
(0.00296072 0.000617053 0.981653)
(0.00222009 0.00055187 1.01681)
(-6.27442e-05 0.000481874 1.0063)
(0.000403084 0.000367378 1.00608)
(-0.000709928 0.000208153 1.00579)
(-0.000823812 -5.638e-08 1.00569)
(-0.00190613 -0.000255732 1.00576)
(-0.00118978 -0.000546036 1.00579)
(-0.00370186 -0.000769845 1.0177)
(-0.00395343 -0.00139058 0.977987)
(0.00290933 -0.000400765 0.981524)
(0.00213869 -0.000485609 1.01644)
(-0.000156685 -0.000555931 1.00602)
(0.00025668 -0.000680646 1.00576)
(-0.000907312 -0.000854495 1.00543)
(-0.00107511 -0.00108446 1.00525)
(-0.00220046 -0.00137053 1.00522)
(-0.00147408 -0.00170173 1.00513)
(-0.004114 -0.00198029 1.01737)
(-0.00426858 -0.0026685 0.976458)
(0.00286581 -0.000409337 0.981596)
(0.00206028 -0.00049281 1.01629)