/*--------------------------------*- C++ -*----------------------------------*\
  =========                 |
  \\      /  F ield         | OpenFOAM: The Open Source CFD Toolbox
   \\    /   O peration     | Website:  https://openfoam.org
    \\  /    A nd           | Version:  6
     \\/     M anipulation  |
\*---------------------------------------------------------------------------*/
FoamFile
{
    version     2.0;
    format      ascii;
    class       surfaceScalarField;
    location    "0.12";
    object      phi;
}
// * * * * * * * * * * * * * * * * * * * * * * * * * * * * * * * * * * * * * //

dimensions      [0 3 -1 0 0 0 0];

internalField   nonuniform List<scalar> 
92400
(
2.95728e-11
9.8718e-11
1.49506e-06
1.71613e-10
1.47806e-10
3.30811e-06
4.31384e-10
1.34452e-10
4.58726e-06
7.83332e-10
1.05626e-10
5.55118e-06
1.18657e-09
7.41237e-11
6.29444e-06
1.59665e-09
4.70687e-11
6.86697e-06
1.96937e-09
2.65871e-11
7.29868e-06
2.26598e-09
1.19708e-11
7.60864e-06
2.45572e-09
1.99445e-12
7.80909e-06
2.51821e-09
-5.303e-12
7.90739e-06
2.44554e-09
-1.22401e-11
7.90692e-06
2.2435e-09
-2.11344e-11
7.80762e-06
1.93189e-09
-3.42051e-11
7.60591e-06
1.54343e-09
-5.31358e-11
7.29439e-06
1.12125e-09
-7.85613e-11
6.86082e-06
7.14901e-10
-1.10109e-10
6.28635e-06
3.72571e-10
-1.43893e-10
5.54144e-06
1.33536e-10
-1.70392e-10
4.57675e-06
1.49227e-11
-1.74014e-10
3.29855e-06
-1.07869e-10
1.48961e-06
1.65289e-10
2.17271e-10
3.3084e-06
6.34167e-10
3.55926e-10
8.10483e-06
1.39959e-09
3.47049e-10
1.17242e-05
2.38167e-09
2.84875e-10
1.45221e-05
3.4769e-09
2.08691e-10
1.67028e-05
4.57516e-09
1.38422e-10
1.83912e-05
5.56715e-09
8.16341e-11
1.96679e-05
6.35567e-09
3.89549e-11
2.05861e-05
6.86301e-09
7.76204e-12
2.11806e-05
7.03717e-09
-1.68192e-11
2.14725e-05
6.85724e-09
-4.07581e-11
2.14716e-05
6.33654e-09
-7.0174e-11
2.11778e-05
5.52353e-09
-1.10636e-10
2.05808e-05
4.499e-09
-1.66022e-10
1.96592e-05
3.36975e-09
-2.37009e-10
1.83783e-05
2.2582e-09
-3.19679e-10
1.66855e-05
1.28523e-09
-4.0151e-10
1.45012e-05
5.54666e-10
-4.5613e-10
1.17018e-05
1.32451e-10
-4.37513e-10
8.0851e-06
-2.49355e-10
3.29825e-06
3.0444e-10
3.06728e-10
4.58829e-06
1.09394e-09
5.33638e-10
1.17256e-05
2.32512e-09
5.4537e-10
1.73306e-05
3.8629e-09
4.63955e-10
2.17592e-05
5.5507e-09
3.50925e-10
2.52531e-05
7.22775e-09
2.3987e-10
2.79776e-05
8.7351e-09
1.45672e-10
3.00465e-05
9.93162e-09
7.17791e-11
3.15385e-05
1.07041e-08
1.51164e-11
3.25061e-05
1.09761e-08
-3.16002e-11
3.29819e-05
1.07163e-08
-7.77582e-11
3.2981e-05
9.94258e-09
-1.33107e-10
3.25031e-05
8.72386e-09
-2.06205e-10
3.15324e-05
7.17596e-09
-3.02369e-10
3.00359e-05
5.4529e-09
-4.21037e-10
2.79614e-05
3.73274e-09
-5.52883e-10
2.52309e-05
2.19364e-09
-6.74586e-10
2.17318e-05
9.96759e-10
-7.42011e-10
1.73013e-05
2.6255e-10
-6.82791e-10
1.17e-05
-3.6881e-10
4.57555e-06
4.25672e-10
3.52054e-10
5.55334e-06
1.49534e-09
6.3935e-10
1.45258e-05
3.13001e-09
6.76265e-10
2.17619e-05
5.14315e-09
5.91134e-10
2.75805e-05
7.3312e-09
4.58058e-10
3.22236e-05
9.4913e-09
3.20079e-10
3.5871e-05
1.14255e-08
1.98392e-10
3.86541e-05
1.29589e-08
9.96447e-11
4.06672e-05
1.39509e-08
2.11796e-11
4.19755e-05
1.43066e-08
-4.55599e-11
4.26195e-05
1.3986e-08
-1.12157e-10
4.26189e-05
1.30099e-08
-1.9076e-10
4.19726e-05
1.14618e-08
-2.91699e-10
4.0661e-05
9.48355e-09
-4.20638e-10
3.86428e-05
7.26531e-09
-5.75064e-10
3.58531e-05
5.02895e-09
-7.40243e-10
3.21985e-05
3.00075e-09
-8.83715e-10
2.75491e-05
1.39351e-09
-9.48675e-10
2.1728e-05
3.80065e-10
-8.46913e-10
1.44962e-05
-4.4022e-10
5.53874e-06
5.21874e-10
3.53574e-10
6.29798e-06
1.82082e-09
6.63181e-10
1.67092e-05
3.78869e-09
7.19744e-10
2.52593e-05
6.19464e-09
6.4257e-10
3.22273e-05
8.79435e-09
5.07238e-10
3.78411e-05
1.13499e-08
3.60384e-10
4.22806e-05
1.36321e-08
2.26733e-10
4.56839e-05
1.54393e-08
1.15241e-10
4.81532e-05
1.66101e-08
2.41686e-11
4.97614e-05
1.70351e-08
-5.50883e-11
5.0554e-05
1.66675e-08
-1.34753e-10
5.05534e-05
1.55297e-08
-2.27745e-10
4.97587e-05
1.37162e-08
-3.44731e-10
4.81471e-05
1.13885e-08
-4.90799e-10
4.56723e-05
8.76485e-09
-6.61547e-10
4.22616e-05
6.10255e-09
-8.38624e-10
3.78139e-05
3.66807e-09
-9.8449e-10
3.21929e-05
1.71922e-09
-1.03707e-09
2.52219e-05
4.74651e-10
-9.04984e-10
1.66765e-05
-4.56896e-10
6.28173e-06
5.94133e-10
3.19785e-10
6.87187e-06
2.07114e-09
6.14445e-10
1.84005e-05
4.302e-09
6.79854e-10
2.79872e-05
7.02016e-09
6.16781e-10
3.58782e-05
9.94775e-09
4.93771e-10
4.22842e-05
1.2818e-08
3.55239e-10
4.73789e-05
1.53767e-08
2.25941e-10
5.13001e-05
1.74012e-08
1.15679e-10
5.41534e-05
1.87138e-08
2.36822e-11
5.60149e-05
1.91941e-08
-5.7752e-11
5.69336e-05
1.87899e-08
-1.40052e-10
5.69329e-05
1.75248e-08
-2.3536e-10
5.60126e-05
1.55013e-08
-3.53453e-10
5.41475e-05
1.28961e-08
-4.98344e-10
5.12883e-05
9.94966e-09
-6.64474e-10
4.73591e-05
6.94764e-09
-8.32508e-10
4.22554e-05
4.18958e-09
-9.64876e-10
3.58414e-05
1.9704e-09
-1.00189e-09
2.79466e-05
5.45785e-10
-8.59419e-10
1.83648e-05
-4.24511e-10
6.85414e-06
6.45819e-10
2.59875e-10
7.30486e-06
2.25441e-09
5.08208e-10
1.96797e-05
4.68314e-09
5.70271e-10
3.00593e-05
7.63854e-09
5.23509e-10
3.86645e-05
1.08165e-08
4.2347e-10
4.56905e-05
1.39276e-08
3.07472e-10
5.1303e-05
1.66978e-08
1.97074e-10
5.56371e-05
1.88883e-08
1.01337e-10
5.87983e-05
2.03092e-08
2.0193e-11
6.08639e-05
2.08316e-08
-5.25281e-11
6.18843e-05
2.03993e-08
-1.26316e-10
6.18838e-05
1.90369e-08
-2.11287e-10
6.08616e-05
1.68526e-08
-3.15419e-10
5.87925e-05
1.40349e-08
-4.41536e-10
5.56251e-05
1.08413e-08
-5.84024e-10
5.12824e-05
7.57976e-09
-7.25368e-10
4.566e-05
4.5759e-09
-8.3276e-10
3.86253e-05
2.15356e-09
-8.55589e-10
3.0016e-05
5.96275e-10
-7.24793e-10
1.96415e-05
-3.52336e-10
7.28576e-06
6.80651e-10
1.82169e-10
7.61587e-06
2.38071e-09
3.60571e-10
2.06e-05
4.94932e-09
4.08508e-10
3.15536e-05
8.0741e-09
3.78068e-10
4.06801e-05
1.14319e-08
3.0801e-10
4.81621e-05
1.47163e-08
2.25044e-10
5.41584e-05
1.76389e-08
1.44981e-10
5.88004e-05
1.99492e-08
7.47301e-11
6.21921e-05
2.1448e-08
1.45373e-11
6.4411e-05
2.20005e-08
-3.98651e-11
6.55079e-05
2.15477e-08
-9.52165e-11
6.55074e-05
2.01147e-08
-1.58719e-10
6.44089e-05
1.78141e-08
-2.35958e-10
6.21861e-05
1.48429e-08
-3.28671e-10
5.87879e-05
1.14712e-08
-4.32341e-10
5.41369e-05
8.02339e-09
-5.3376e-10
4.81304e-05
4.84431e-09
-6.08784e-10
4.06388e-05
2.27881e-09
-6.20922e-10
3.1508e-05
6.29859e-10
-5.21525e-10
2.05596e-05
-2.50766e-10
7.59564e-06
7.01916e-10
9.36275e-11
7.81714e-06
2.45925e-09
1.8663e-10
2.1196e-05
5.11665e-09
2.1263e-10
3.25229e-05
8.34984e-09
1.97723e-10
4.19899e-05
1.18233e-08
1.61757e-10
4.97716e-05
1.52196e-08
1.18615e-10
5.60211e-05
1.82407e-08
7.66389e-11
6.08669e-05
2.06282e-08
3.955e-11
6.4412e-05
2.21773e-08
7.56782e-12
6.67331e-05
2.2749e-08
-2.14807e-11
6.7881e-05
2.22828e-08
-5.1083e-11
6.78806e-05
2.08039e-08
-8.49712e-11
6.67309e-05
1.84279e-08
-1.26011e-10
6.44059e-05
1.53573e-08
-1.75013e-10
6.08541e-05
1.18706e-08
-2.29472e-10
5.59989e-05
8.303e-09
-2.82308e-10
4.97386e-05
5.01202e-09
-3.20755e-10
4.19471e-05
2.35602e-09
-3.25756e-10
3.24755e-05
6.50072e-10
-2.72248e-10
2.1154e-05
-1.30073e-10
7.7961e-06
7.1195e-10
5e-16
7.91603e-06
2.49677e-09
2.375e-15
2.1489e-05
5.19714e-09
4e-15
3.29998e-05
8.48308e-09
4.125e-15
4.26349e-05
1.2013e-08
3.25e-15
5.0565e-05
1.54641e-08
2.125e-15
5.69403e-05
1.85334e-08
8.75e-16
6.18876e-05
2.09588e-08
-1.25e-17
6.55093e-05
2.25325e-08
-6.5e-16
6.78814e-05
2.31137e-08
-1.125e-15
6.90548e-05
2.26407e-08
-1.5e-15
6.90544e-05
2.11392e-08
-2.125e-15
6.78791e-05
1.87261e-08
-2.75e-15
6.55031e-05
1.56067e-08
-3.5e-15
6.18746e-05
1.20637e-08
-4.25e-15
5.69177e-05
8.43768e-09
-5e-15
5.05314e-05
5.09233e-09
-5.625e-15
4.25914e-05
2.39264e-09
-6e-15
3.29515e-05
6.59503e-10
-5e-15
2.14462e-05
-2.5e-15
7.89456e-06
7.1195e-10
-9.36257e-11
7.91602e-06
2.49676e-09
-1.86624e-10
2.1489e-05
5.19714e-09
-2.12619e-10
3.29997e-05
8.48307e-09
-1.97714e-10
4.26349e-05
1.2013e-08
-1.6175e-10
5.0565e-05
1.54641e-08
-1.18611e-10
5.69402e-05
1.85334e-08
-7.66374e-11
6.18876e-05
2.09588e-08
-3.95503e-11
6.55092e-05
2.25325e-08
-7.56927e-12
6.78814e-05
2.31137e-08
2.14784e-11
6.90548e-05
2.26407e-08
5.10801e-11
6.90544e-05
2.11392e-08
8.49672e-11
6.78791e-05
1.87261e-08
1.26006e-10
6.55031e-05
1.56067e-08
1.75006e-10
6.18746e-05
1.20637e-08
2.29465e-10
5.69177e-05
8.43767e-09
2.82299e-10
5.05314e-05
5.09232e-09
3.20743e-10
4.25914e-05
2.39264e-09
3.25742e-10
3.29515e-05
6.59502e-10
2.72237e-10
2.14462e-05
1.30068e-10
7.89456e-06
7.01916e-10
-1.82165e-10
7.81714e-06
2.45925e-09
-3.6056e-10
2.1196e-05
5.11665e-09
-4.08494e-10
3.25229e-05
8.34984e-09
-3.78056e-10
4.19899e-05
1.18233e-08
-3.08003e-10
4.97716e-05
1.52196e-08
-2.25041e-10
5.60211e-05
1.82407e-08
-1.44981e-10
6.08669e-05
2.06282e-08
-7.4731e-11
6.4412e-05
2.21773e-08
-1.45391e-11
6.67331e-05
2.27491e-08
3.9863e-11
6.7881e-05
2.22828e-08
9.5214e-11
6.78806e-05
2.08039e-08
1.58715e-10
6.67309e-05
1.84279e-08
2.35954e-10
6.44059e-05
1.53573e-08
3.28665e-10
6.08541e-05
1.18706e-08
4.32336e-10
5.59989e-05
8.303e-09
5.33753e-10
4.97386e-05
5.01203e-09
6.08771e-10
4.19471e-05
2.35602e-09
6.20906e-10
3.24755e-05
6.50071e-10
5.2151e-10
2.1154e-05
2.50759e-10
7.7961e-06
6.8065e-10
-2.59869e-10
7.61588e-06
2.38071e-09
-5.08192e-10
2.06e-05
4.94931e-09
-5.70259e-10
3.15536e-05
8.07409e-09
-5.235e-10
4.06801e-05
1.14319e-08
-4.23464e-10
4.81621e-05
1.47163e-08
-3.07471e-10
5.41584e-05
1.76389e-08
-1.97075e-10
5.88004e-05
1.99492e-08
-1.01338e-10
6.21921e-05
2.1448e-08
-2.01951e-11
6.4411e-05
2.20005e-08
5.25261e-11
6.55079e-05
2.15477e-08
1.26314e-10
6.55074e-05
2.01147e-08
2.11285e-10
6.44089e-05
1.78141e-08
3.15416e-10
6.21861e-05
1.48429e-08
4.41533e-10
5.87879e-05
1.14712e-08
5.8402e-10
5.41369e-05
8.02339e-09
7.25361e-10
4.81304e-05
4.84431e-09
8.3275e-10
4.06388e-05
2.2788e-09
8.55574e-10
3.1508e-05
6.29858e-10
7.24778e-10
2.05596e-05
3.5233e-10
7.59564e-06
6.45815e-10
-3.1978e-10
7.30486e-06
2.2544e-09
-6.14439e-10
1.96797e-05
4.68313e-09
-6.79851e-10
3.00593e-05
7.63854e-09
-6.1678e-10
3.86645e-05
1.08165e-08
-4.93769e-10
4.56905e-05
1.39276e-08
-3.5524e-10
5.1303e-05
1.66978e-08
-2.25943e-10
5.56371e-05
1.88884e-08
-1.15681e-10
5.87984e-05
2.03092e-08
-2.36845e-11
6.08639e-05
2.08316e-08
5.775e-11
6.18843e-05
2.03993e-08
1.4005e-10
6.18838e-05
1.90369e-08
2.35358e-10
6.08618e-05
1.68526e-08
3.5345e-10
5.87925e-05
1.40349e-08
4.98343e-10
5.56251e-05
1.08413e-08
6.64471e-10
5.12824e-05
7.57976e-09
8.32506e-10
4.566e-05
4.57589e-09
9.64875e-10
3.86253e-05
2.15355e-09
1.00189e-09
3.0016e-05
5.96271e-10
8.59414e-10
1.96415e-05
4.2451e-10
7.28576e-06
5.9413e-10
-3.53576e-10
6.87187e-06
2.07113e-09
-6.63191e-10
1.84005e-05
4.30199e-09
-7.19754e-10
2.79872e-05
7.02016e-09
-6.42575e-10
3.58782e-05
9.94775e-09
-5.0724e-10
4.22842e-05
1.2818e-08
-3.60387e-10
4.73789e-05
1.53767e-08
-2.26737e-10
5.13001e-05
1.74012e-08
-1.15244e-10
5.41534e-05
1.87139e-08
-2.41715e-11
5.60149e-05
1.91941e-08
5.50861e-11
5.69336e-05
1.87899e-08
1.34752e-10
5.69329e-05
1.75249e-08
2.27744e-10
5.60126e-05
1.55013e-08
3.4473e-10
5.41475e-05
1.28961e-08
4.90799e-10
5.12882e-05
9.94967e-09
6.61547e-10
4.73591e-05
6.94764e-09
8.38628e-10
4.22554e-05
4.18957e-09
9.84499e-10
3.58414e-05
1.9704e-09
1.03709e-09
2.79466e-05
5.45782e-10
9.04996e-10
1.83648e-05
4.56903e-10
6.85414e-06
5.21868e-10
-3.5206e-10
6.29798e-06
1.8208e-09
-6.39365e-10
1.67092e-05
3.78866e-09
-6.76275e-10
2.52593e-05
6.19461e-09
-5.91138e-10
3.22273e-05
8.79434e-09
-4.58062e-10
3.78411e-05
1.13499e-08
-3.20086e-10
4.22806e-05
1.36321e-08
-1.984e-10
4.56839e-05
1.54394e-08
-9.96514e-11
4.81533e-05
1.66102e-08
-2.11844e-11
4.97614e-05
1.70351e-08
4.55569e-11
5.0554e-05
1.66675e-08
1.12155e-10
5.05534e-05
1.55298e-08
1.9076e-10
4.97588e-05
1.37162e-08
2.91701e-10
4.81471e-05
1.13885e-08
4.20643e-10
4.56723e-05
8.76488e-09
5.75071e-10
4.22617e-05
6.10255e-09
7.40251e-10
3.78139e-05
3.66806e-09
8.83726e-10
3.21929e-05
1.71922e-09
9.48695e-10
2.52219e-05
4.74647e-10
8.46931e-10
1.66765e-05
4.40228e-10
6.28173e-06
4.25662e-10
-3.06719e-10
5.55334e-06
1.49532e-09
-5.33626e-10
1.45258e-05
3.12998e-09
-5.45357e-10
2.17619e-05
5.14314e-09
-4.63946e-10
2.75805e-05
7.33121e-09
-3.50929e-10
3.22236e-05
9.49131e-09
-2.39884e-10
3.5871e-05
1.14255e-08
-1.45687e-10
3.86541e-05
1.29589e-08
-7.17905e-11
4.06673e-05
1.3951e-08
-1.51244e-11
4.19755e-05
1.43067e-08
3.15954e-11
4.26196e-05
1.3986e-08
7.77561e-11
4.26189e-05
1.30099e-08
1.33108e-10
4.19726e-05
1.14618e-08
2.06213e-10
4.0661e-05
9.48358e-09
3.02385e-10
3.86428e-05
7.26533e-09
4.21057e-10
3.58531e-05
5.02894e-09
5.52895e-10
3.21985e-05
3.00073e-09
6.74588e-10
2.75491e-05
1.3935e-09
7.4201e-10
2.1728e-05
3.8006e-10
6.82781e-10
1.44962e-05
3.68805e-10
5.53874e-06
3.04425e-10
-2.17244e-10
4.58829e-06
1.09391e-09
-3.55876e-10
1.17256e-05
2.32509e-09
-3.47005e-10
1.73306e-05
3.86287e-09
-2.84852e-10
2.17592e-05
5.55069e-09
-2.08692e-10
2.52531e-05
7.22776e-09
-1.38438e-10
2.79776e-05
8.73512e-09
-8.16524e-11
3.00465e-05
9.93165e-09
-3.89695e-11
3.15385e-05
1.07041e-08
-7.77245e-12
3.25061e-05
1.09761e-08
1.68128e-11
3.29819e-05
1.07163e-08
4.07557e-11
3.2981e-05
9.9426e-09
7.01764e-11
3.25031e-05
8.72389e-09
1.10647e-10
3.15324e-05
7.17599e-09
1.66044e-10
3.00359e-05
5.4529e-09
2.37037e-10
2.79614e-05
3.73271e-09
3.19691e-10
2.52309e-05
2.19361e-09
4.01496e-10
2.17318e-05
9.96735e-10
4.56094e-10
1.73013e-05
2.6254e-10
4.37454e-10
1.17e-05
2.49329e-10
4.57555e-06
1.65274e-10
-9.8682e-11
3.3084e-06
6.34135e-10
-1.47747e-10
8.10483e-06
1.39955e-09
-1.34407e-10
1.17242e-05
2.38163e-09
-1.05607e-10
1.45221e-05
3.47689e-09
-7.41254e-11
1.67028e-05
4.57518e-09
-4.70817e-11
1.83912e-05
5.56718e-09
-2.66009e-11
1.96679e-05
6.3557e-09
-1.19814e-11
2.05861e-05
6.86304e-09
-2.00184e-12
2.11806e-05
7.03719e-09
5.29853e-12
2.14725e-05
6.85725e-09
1.22385e-11
2.14716e-05
6.33656e-09
2.11366e-11
2.11778e-05
5.52356e-09
3.4214e-11
2.05808e-05
4.49903e-09
5.31546e-11
1.96592e-05
3.36974e-09
7.85855e-11
1.83783e-05
2.25816e-09
1.1012e-10
1.66855e-05
1.28517e-09
1.43879e-10
1.45012e-05
5.5462e-10
1.70351e-10
1.17018e-05
1.32433e-10
1.73952e-10
8.0851e-06
1.0784e-10
3.29825e-06
2.9555e-11
1.49506e-06
1.7158e-10
3.30811e-06
4.31338e-10
4.58726e-06
7.83301e-10
5.55118e-06
1.18656e-09
6.29444e-06
1.59665e-09
6.86698e-06
1.96939e-09
7.29868e-06
2.26599e-09
7.60864e-06
2.45573e-09
7.80909e-06
2.51823e-09
7.90739e-06
2.44557e-09
7.90693e-06
2.24352e-09
7.80763e-06
1.93192e-09
7.60591e-06
1.54344e-09
7.29439e-06
1.12124e-09
6.86082e-06
7.14868e-10
6.28635e-06
3.72522e-10
5.54144e-06
1.33498e-10
4.57675e-06
1.49099e-11
3.29855e-06
1.48961e-06
-7.88399e-12
2.34196e-10
1.49484e-06
1.70489e-10
3.83392e-10
3.30756e-06
5.8306e-10
3.82238e-10
4.58649e-06
1.20563e-09
3.27356e-10
5.55024e-06
1.96468e-09
2.55075e-10
6.29344e-06
2.76537e-09
1.84202e-10
6.866e-06
3.50807e-09
1.21909e-10
7.29781e-06
4.10205e-09
6.87922e-11
7.60797e-06
4.4745e-09
2.29666e-11
7.8087e-06
4.57784e-09
-1.91489e-11
7.9073e-06
4.39544e-09
-6.18583e-11
7.90716e-06
3.94482e-09
-1.09407e-10
7.80819e-06
3.27801e-09
-1.65473e-10
7.60674e-06
2.47766e-09
-2.32184e-10
7.29541e-06
1.64855e-09
-3.08804e-10
6.86195e-06
9.03825e-10
-3.905e-10
6.28748e-06
3.43314e-10
-4.63957e-10
5.54244e-06
2.61158e-11
-5.02726e-10
4.57755e-06
-5.89479e-11
-4.63053e-10
3.29906e-06
-2.55099e-10
1.4898e-06
1.97945e-10
5.51086e-10
3.30789e-06
9.4586e-10
9.75004e-10
8.10346e-06
2.31325e-09
1.02594e-09
1.17222e-05
4.18775e-09
9.11911e-10
1.45196e-05
6.37071e-09
7.33329e-10
1.67001e-05
8.62127e-09
5.43519e-10
1.83886e-05
1.06875e-08
3.66216e-10
1.96656e-05
1.23379e-08
2.07776e-10
2.05843e-05
1.33846e-08
6.53445e-11
2.11795e-05
1.37033e-08
-6.93166e-11
2.14722e-05
1.32477e-08
-2.06806e-10
2.14722e-05
1.20585e-08
-3.57686e-10
2.11792e-05
1.02638e-08
-5.30378e-10
2.05829e-05
8.07021e-09
-7.28288e-10
1.96619e-05
5.74098e-09
-9.45989e-10
1.83813e-05
3.56219e-09
-1.16457e-09
1.66885e-05
1.79361e-09
-1.34318e-09
1.45039e-05
6.14163e-10
-1.40836e-09
1.17039e-05
7.06264e-11
-1.24231e-09
8.08645e-06
-6.43804e-10
3.29871e-06
4.63676e-10
8.29491e-10
4.58757e-06
1.86012e-09
1.53718e-09
1.17236e-05
4.21115e-09
1.67678e-09
1.73276e-05
7.29642e-09
1.53277e-09
2.17555e-05
1.08012e-08
1.26159e-09
2.52491e-05
1.43645e-08
9.52577e-10
2.79737e-05
1.76132e-08
6.49945e-10
3.0043e-05
2.02041e-08
3.69326e-10
3.15357e-05
2.18585e-08
1.09397e-10
3.25045e-05
2.23894e-08
-1.41147e-10
3.29815e-05
2.17247e-08
-3.9813e-10
3.29819e-05
1.99197e-08
-6.77391e-10
3.25052e-05
1.71589e-08
-9.90516e-10
3.15356e-05
1.37426e-08
-1.33966e-09
3.00399e-05
1.00571e-08
-1.71097e-09
2.79659e-05
6.52711e-09
-2.06667e-09
2.52354e-05
3.54863e-09
-2.3336e-09
2.17358e-05
1.42223e-09
-2.38968e-09
1.73044e-05
2.90407e-10
-2.04999e-09
1.1702e-05
-1.02711e-09
4.57621e-06
7.26876e-10
1.00451e-09
5.55249e-06
2.75093e-09
1.92448e-09
1.45233e-05
6.03004e-09
2.15535e-09
2.17581e-05
1.02332e-08
2.01217e-09
2.75758e-05
1.49357e-08
1.68543e-09
3.22185e-05
1.96721e-08
1.29029e-09
3.5866e-05
2.39677e-08
8.88245e-10
3.86496e-05
2.73891e-08
5.04406e-10
4.06637e-05
2.95834e-08
1.40663e-10
4.19734e-05
3.03128e-08
-2.14993e-10
4.26189e-05
2.94826e-08
-5.81015e-10
4.26199e-05
2.71578e-08
-9.75901e-10
4.19752e-05
2.35651e-08
-1.41192e-09
4.06651e-05
1.90787e-08
-1.88795e-09
3.86478e-05
1.41835e-08
-2.3808e-09
3.58586e-05
9.42019e-09
-2.83506e-09
3.2204e-05
5.30558e-09
-3.15063e-09
2.75541e-05
2.25897e-09
-3.16941e-09
2.17318e-05
5.28387e-10
-2.66272e-09
1.44986e-05
-1.30043e-09
5.5395e-06
9.57297e-10
1.05553e-09
6.29703e-06
3.53901e-09
2.07393e-09
1.67065e-05
7.64215e-09
2.36951e-09
2.5255e-05
1.28328e-08
2.24845e-09
3.22218e-05
1.85859e-08
1.90896e-09
3.78351e-05
2.4344e-08
1.4769e-09
4.22746e-05
2.95471e-08
1.02335e-09
4.56785e-05
3.36868e-08
5.79997e-10
4.8149e-05
3.63493e-08
1.52222e-10
4.97587e-05
3.72554e-08
-2.70674e-10
5.05531e-05
3.62913e-08
-7.07001e-10
5.05544e-05
3.35279e-08
-1.1751e-09
4.97616e-05
2.92256e-08
-1.68578e-09
4.81518e-05
2.38172e-08
-2.23401e-09
4.5678e-05
1.78692e-08
-2.78927e-09
4.2268e-05
1.20205e-08
-3.28475e-09
3.78201e-05
6.89405e-09
-3.60538e-09
3.21984e-05
3.01882e-09
-3.57674e-09
2.52262e-05
7.43907e-10
-2.95656e-09
1.66791e-05
-1.41482e-09
6.28253e-06
1.14559e-09
9.90982e-10
6.87086e-06
4.19268e-09
1.98436e-09
1.83975e-05
8.98942e-09
2.30152e-09
2.79825e-05
1.50134e-08
2.2112e-09
3.58722e-05
2.16525e-08
1.89675e-09
4.22776e-05
2.82704e-08
1.47923e-09
4.73722e-05
3.42354e-08
1.02979e-09
5.12941e-05
3.8977e-08
5.8216e-10
5.41486e-05
4.20322e-08
1.44172e-10
5.60117e-05
4.30877e-08
-2.92485e-10
5.69325e-05
4.20141e-08
-7.43864e-10
5.6934e-05
3.8887e-08
-1.226e-09
5.60157e-05
3.39929e-08
-1.74712e-09
5.41525e-05
2.78122e-08
-2.29915e-09
5.12945e-05
2.09788e-08
-2.84846e-09
4.7366e-05
1.42136e-08
-3.32568e-09
4.22621e-05
8.23075e-09
-3.61551e-09
3.58474e-05
3.65443e-09
-3.54847e-09
2.79512e-05
9.21694e-10
-2.89679e-09
1.83676e-05
-1.36452e-09
6.85495e-06
1.29077e-09
8.295e-10
7.30381e-06
4.70441e-09
1.68413e-09
1.96766e-05
1.00536e-08
1.97486e-09
3.00543e-05
1.67451e-08
1.91476e-09
3.86581e-05
2.40954e-08
1.65498e-09
4.56834e-05
3.14038e-08
1.29827e-09
5.12959e-05
3.79803e-08
9.06785e-10
5.56306e-05
4.32044e-08
5.11292e-10
5.87931e-05
4.65741e-08
1.2025e-10
6.08606e-05
4.77494e-08
-2.7204e-10
6.1883e-05
4.6588e-08
-6.78115e-10
6.18849e-05
4.31694e-08
-1.11044e-09
6.0865e-05
3.78006e-08
-1.57444e-09
5.87976e-05
3.1e-08
-2.06105e-09
5.56318e-05
2.34554e-08
-2.53868e-09
5.12896e-05
1.59547e-08
-2.94494e-09
4.56671e-05
9.28594e-09
-3.17875e-09
3.86315e-05
4.1513e-09
-3.09496e-09
3.00207e-05
1.05823e-09
-2.50327e-09
1.96442e-05
-1.1654e-09
7.28655e-06
1.39531e-09
5.94118e-10
7.6148e-06
5.07805e-09
1.21767e-09
2.05967e-05
1.08371e-08
1.43862e-09
3.15484e-05
1.80267e-08
1.40361e-09
4.06734e-05
2.59096e-08
1.21952e-09
4.81547e-05
3.37357e-08
9.60499e-10
5.41509e-05
4.07707e-08
6.72309e-10
5.87935e-05
4.63566e-08
3.78254e-10
6.21866e-05
4.99617e-08
8.53864e-11
6.44074e-05
5.12259e-08
-2.0968e-10
6.55066e-05
4.99979e-08
-5.15399e-10
6.55085e-05
4.63597e-08
-8.40136e-10
6.44122e-05
4.06341e-08
-1.18695e-09
6.21915e-05
3.33681e-08
-1.5481e-09
5.87946e-05
2.52902e-08
-1.89916e-09
5.41444e-05
1.7239e-08
-2.19322e-09
4.81376e-05
1.00593e-08
-2.35561e-09
4.06451e-05
4.51175e-09
-2.28084e-09
3.15127e-05
1.15548e-09
-1.83303e-09
2.05623e-05
-8.46479e-10
7.5964e-06
1.46259e-09
3.09374e-10
7.81605e-06
5.32115e-09
6.37574e-10
2.11927e-05
1.13502e-08
7.56553e-10
3.25175e-05
1.88697e-08
7.40851e-10
4.1983e-05
2.71063e-08
6.45655e-10
4.9764e-05
3.5277e-08
5.09701e-10
5.60134e-05
4.26172e-08
3.57202e-10
6.08599e-05
4.84437e-08
2.00679e-10
6.44062e-05
5.22052e-08
4.41188e-11
6.67294e-05
5.35281e-08
-1.14014e-10
6.78796e-05
5.2255e-08
-2.77944e-10
6.78816e-05
4.84699e-08
-4.51836e-10
6.67342e-05
4.2506e-08
-6.37011e-10
6.44114e-05
3.49295e-08
-8.29024e-10
6.0861e-05
2.64967e-08
-1.01459e-09
5.60064e-05
1.80804e-08
-1.1686e-09
4.9746e-05
1.05631e-08
-1.25146e-09
4.19536e-05
4.74449e-09
-1.20779e-09
3.24802e-05
1.21732e-09
-9.67028e-10
2.11568e-05
-4.44447e-10
7.79684e-06
1.49545e-09
5e-16
7.91494e-06
5.4407e-09
2.5e-15
2.14856e-05
1.16037e-08
3.75e-15
3.29943e-05
1.92872e-08
5e-15
4.2628e-05
2.77e-08
5e-15
5.05573e-05
3.60425e-08
5e-15
5.69324e-05
4.35351e-08
6.25e-15
6.18805e-05
4.94818e-08
7.375e-15
6.55035e-05
5.33211e-08
9.175e-15
6.78775e-05
5.46731e-08
1.1125e-14
6.90534e-05
5.33774e-08
1.3125e-14
6.90554e-05
4.95186e-08
1.475e-14
6.78825e-05
4.34354e-08
1.5e-14
6.55085e-05
3.57038e-08
1.5e-14
6.18815e-05
2.70939e-08
1.5e-14
5.69254e-05
1.84957e-08
1.25e-14
5.05388e-05
1.08109e-08
8.75e-15
4.25979e-05
4.85826e-09
6.25e-15
3.29562e-05
1.24725e-09
2.5e-15
2.14489e-05
5e-16
7.89528e-06
1.49545e-09
-3.09372e-10
7.91494e-06
5.4407e-09
-6.37566e-10
2.14856e-05
1.16036e-08
-7.56543e-10
3.29942e-05
1.92872e-08
-7.4084e-10
4.2628e-05
2.77e-08
-6.45645e-10
5.05572e-05
3.60425e-08
-5.09691e-10
5.69324e-05
4.35351e-08
-3.57191e-10
6.18805e-05
4.94817e-08
-2.00664e-10
6.55035e-05
5.33211e-08
-4.41013e-11
6.78775e-05
5.46731e-08
1.14036e-10
6.90534e-05
5.33774e-08
2.7797e-10
6.90554e-05
4.95186e-08
4.51865e-10
6.78825e-05
4.34354e-08
6.37041e-10
6.55085e-05
3.57039e-08
8.29054e-10
6.18815e-05
2.7094e-08
1.01462e-09
5.69254e-05
1.84957e-08
1.16862e-09
5.05388e-05
1.08109e-08
1.25148e-09
4.25979e-05
4.85826e-09
1.2078e-09
3.29562e-05
1.24725e-09
9.67031e-10
2.14489e-05
4.44448e-10
7.89528e-06
1.46259e-09
-5.94114e-10
7.81605e-06
5.32115e-09
-1.21766e-09
2.11927e-05
1.13502e-08
-1.4386e-09
3.25175e-05
1.88697e-08
-1.40359e-09
4.1983e-05
2.71063e-08
-1.21952e-09
4.9764e-05
3.5277e-08
-9.6049e-10
5.60134e-05
4.26172e-08
-6.723e-10
6.08599e-05
4.84437e-08
-3.78241e-10
6.44062e-05
5.22052e-08
-8.5371e-11
6.67294e-05
5.35281e-08
2.097e-10
6.78796e-05
5.22551e-08
5.15422e-10
6.78816e-05
4.847e-08
8.40164e-10
6.67342e-05
4.2506e-08
1.18698e-09
6.44114e-05
3.49296e-08
1.54813e-09
6.0861e-05
2.64968e-08
1.89919e-09
5.60064e-05
1.80804e-08
2.19324e-09
4.9746e-05
1.05631e-08
2.35563e-09
4.19536e-05
4.74449e-09
2.28084e-09
3.24802e-05
1.21732e-09
1.83303e-09
2.11568e-05
8.46479e-10
7.79684e-06
1.39531e-09
-8.29494e-10
7.6148e-06
5.07805e-09
-1.68411e-09
2.05967e-05
1.08371e-08
-1.97485e-09
3.15484e-05
1.80268e-08
-1.91476e-09
4.06734e-05
2.59096e-08
-1.65498e-09
4.81548e-05
3.37358e-08
-1.29826e-09
5.41509e-05
4.07709e-08
-9.0678e-10
5.87935e-05
4.63568e-08
-5.11284e-10
6.21866e-05
4.99618e-08
-1.20238e-10
6.44074e-05
5.1226e-08
2.72056e-10
6.55066e-05
4.9998e-08
6.78135e-10
6.55085e-05
4.63598e-08
1.11047e-09
6.44123e-05
4.06341e-08
1.57447e-09
6.21915e-05
3.33681e-08
2.06108e-09
5.87946e-05
2.52902e-08
2.53871e-09
5.41444e-05
1.7239e-08
2.94496e-09
4.81376e-05
1.00594e-08
3.17876e-09
4.06451e-05
4.51174e-09
3.09496e-09
3.15127e-05
1.15548e-09
2.50327e-09
2.05623e-05
1.1654e-09
7.5964e-06
1.29077e-09
-9.9098e-10
7.30381e-06
4.70441e-09
-1.98435e-09
1.96766e-05
1.00536e-08
-2.30152e-09
3.00543e-05
1.67451e-08
-2.2112e-09
3.86581e-05
2.40954e-08
-1.89675e-09
4.56834e-05
3.14038e-08
-1.47923e-09
5.12959e-05
3.79803e-08
-1.02979e-09
5.56306e-05
4.32045e-08
-5.82155e-10
5.87931e-05
4.65743e-08
-1.44163e-10
6.08606e-05
4.77494e-08
2.92496e-10
6.1883e-05
4.6588e-08
7.4388e-10
6.18849e-05
4.31694e-08
1.22602e-09
6.08651e-05
3.78006e-08
1.74714e-09
5.87976e-05
3.10001e-08
2.29918e-09
5.56318e-05
2.34555e-08
2.84849e-09
5.12896e-05
1.59547e-08
3.3257e-09
4.56671e-05
9.28594e-09
3.61553e-09
3.86315e-05
4.1513e-09
3.54849e-09
3.00207e-05
1.05822e-09
2.8968e-09
1.96442e-05
1.36452e-09
7.28655e-06
1.14559e-09
-1.05554e-09
6.87087e-06
4.19268e-09
-2.07394e-09
1.83975e-05
8.98942e-09
-2.36953e-09
2.79825e-05
1.50135e-08
-2.24846e-09
3.58722e-05
2.16525e-08
-1.90896e-09
4.22776e-05
2.82705e-08
-1.47691e-09
4.73722e-05
3.42355e-08
-1.02336e-09
5.12941e-05
3.8977e-08
-5.79996e-10
5.41486e-05
4.20322e-08
-1.52218e-10
5.60117e-05
4.30877e-08
2.70683e-10
5.69325e-05
4.20141e-08
7.07014e-10
5.6934e-05
3.88871e-08
1.17511e-09
5.60157e-05
3.3993e-08
1.6858e-09
5.41525e-05
2.78123e-08
2.23404e-09
5.12945e-05
2.09788e-08
2.7893e-09
4.7366e-05
1.42137e-08
3.28478e-09
4.22621e-05
8.23076e-09
3.60541e-09
3.58474e-05
3.65443e-09
3.57676e-09
2.79512e-05
9.21693e-10
2.95659e-09
1.83676e-05
1.41483e-09
6.85495e-06
9.57293e-10
-1.00452e-09
6.29703e-06
3.53901e-09
-1.92449e-09
1.67065e-05
7.64215e-09
-2.15536e-09
2.5255e-05
1.28329e-08
-2.01218e-09
3.22218e-05
1.8586e-08
-1.68544e-09
3.78351e-05
2.43441e-08
-1.2903e-09
4.22746e-05
2.95473e-08
-8.88252e-10
4.56785e-05
3.36868e-08
-5.04409e-10
4.8149e-05
3.63494e-08
-1.40662e-10
4.97588e-05
3.72555e-08
2.14998e-10
5.05531e-05
3.62913e-08
5.81024e-10
5.05544e-05
3.35279e-08
9.75913e-10
4.97616e-05
2.92256e-08
1.41194e-09
4.81518e-05
2.38172e-08
1.88797e-09
4.5678e-05
1.78693e-08
2.38083e-09
4.22681e-05
1.20206e-08
2.83509e-09
3.78201e-05
6.89406e-09
3.15066e-09
3.21984e-05
3.01882e-09
3.16944e-09
2.52262e-05
7.43905e-10
2.66274e-09
1.66791e-05
1.30044e-09
6.28253e-06
7.2687e-10
-8.29485e-10
5.55249e-06
2.75092e-09
-1.53717e-09
1.45233e-05
6.03004e-09
-1.67677e-09
2.17581e-05
1.02332e-08
-1.53276e-09
2.75758e-05
1.49358e-08
-1.26159e-09
3.22185e-05
1.96721e-08
-9.5259e-10
3.5866e-05
2.39677e-08
-6.49958e-10
3.86496e-05
2.73891e-08
-3.69334e-10
4.06638e-05
2.95834e-08
-1.094e-10
4.19734e-05
3.03129e-08
1.41148e-10
4.2619e-05
2.94829e-08
3.98136e-10
4.26199e-05
2.71579e-08
6.77401e-10
4.19753e-05
2.35652e-08
9.90534e-10
4.06651e-05
1.90787e-08
1.33969e-09
3.86478e-05
1.41835e-08
1.711e-09
3.58586e-05
9.4202e-09
2.0667e-09
3.2204e-05
5.30557e-09
2.33362e-09
2.75541e-05
2.25897e-09
2.38968e-09
2.17318e-05
5.28385e-10
2.04998e-09
1.44986e-05
1.02711e-09
5.5395e-06
4.63662e-10
-5.51056e-10
4.58757e-06
1.86008e-09
-9.74944e-10
1.17236e-05
4.21111e-09
-1.02589e-09
1.73276e-05
7.29642e-09
-9.11889e-10
2.17555e-05
1.08012e-08
-7.33329e-10
2.52491e-05
1.43646e-08
-5.43532e-10
2.79737e-05
1.76132e-08
-3.66231e-10
3.0043e-05
2.02042e-08
-2.07787e-10
3.15357e-05
2.18585e-08
-6.53498e-11
3.25045e-05
2.23895e-08
6.93166e-11
3.29815e-05
2.17248e-08
2.06811e-10
3.29819e-05
1.99198e-08
3.57698e-10
3.25052e-05
1.71589e-08
5.30398e-10
3.15356e-05
1.37426e-08
7.28321e-10
3.00399e-05
1.00571e-08
9.46027e-10
2.79659e-05
6.52711e-09
1.16459e-09
2.52354e-05
3.54861e-09
1.34317e-09
2.17358e-05
1.42221e-09
1.40833e-09
1.73044e-05
2.90398e-10
1.24226e-09
1.1702e-05
6.43779e-10
4.57621e-06
1.97926e-10
-2.34159e-10
3.30789e-06
9.45821e-10
-3.83327e-10
8.10346e-06
2.31321e-09
-3.82193e-10
1.17222e-05
4.18774e-09
-3.27337e-10
1.45196e-05
6.37073e-09
-2.55076e-10
1.67001e-05
8.62131e-09
-1.84214e-10
1.83886e-05
1.06876e-08
-1.21921e-10
1.96656e-05
1.23379e-08
-6.8801e-11
2.05843e-05
1.33847e-08
-2.29715e-11
2.11795e-05
1.37034e-08
1.91477e-11
2.14722e-05
1.32478e-08
6.18607e-11
2.14722e-05
1.20585e-08
1.09414e-10
2.11793e-05
1.02639e-08
1.65486e-10
2.05829e-05
8.07026e-09
2.32209e-10
1.96619e-05
5.741e-09
3.08834e-10
1.83813e-05
3.56216e-09
3.90516e-10
1.66885e-05
1.79356e-09
4.63947e-10
1.45039e-05
6.14122e-10
5.02687e-10
1.17039e-05
7.06095e-11
4.62996e-10
8.08645e-06
2.5507e-10
3.29871e-06
-7.90266e-12
1.49484e-06
1.70453e-10
3.30756e-06
5.8302e-10
4.58649e-06
1.2056e-09
5.55024e-06
1.96468e-09
6.29344e-06
2.76539e-09
6.866e-06
3.50811e-09
7.29781e-06
4.10209e-09
7.60798e-06
4.47453e-09
7.8087e-06
4.57786e-09
7.9073e-06
4.39546e-09
7.90716e-06
3.94486e-09
7.80819e-06
3.27806e-09
7.60674e-06
2.47769e-09
7.29541e-06
1.64855e-09
6.86195e-06
9.03795e-10
6.28748e-06
3.43268e-10
5.54244e-06
2.60796e-11
4.57755e-06
-5.89605e-11
3.29906e-06
1.4898e-06
-3.67092e-11
3.85874e-10
1.4945e-06
2.07675e-10
6.42218e-10
3.30672e-06
8.2253e-10
6.50592e-10
4.58525e-06
1.77988e-09
5.6487e-10
5.54874e-06
2.96691e-09
4.47041e-10
6.29183e-06
4.23192e-09
3.28315e-10
6.86441e-06
5.41354e-09
2.21015e-10
7.29641e-06
6.36309e-09
1.2687e-10
7.6069e-06
6.9603e-09
4.30582e-11
7.80806e-06
7.12579e-09
-3.59537e-11
7.90716e-06
6.83086e-09
-1.16816e-10
7.90757e-06
6.10341e-09
-2.06078e-10
7.80911e-06
5.02886e-09
-3.09233e-10
7.60811e-06
3.74419e-09
-4.29147e-10
7.2971e-06
2.42359e-09
-5.63804e-10
6.86381e-06
1.25442e-09
-7.03631e-10
6.28931e-06
4.0011e-10
-8.24863e-10
5.54408e-06
-4.96156e-11
-8.81808e-10
4.57882e-06
-1.28921e-10
-7.97984e-10
3.29988e-06
-4.29787e-10
1.49009e-06
2.66327e-10
9.19485e-10
3.30709e-06
1.38451e-09
1.64866e-09
8.1013e-06
3.49479e-09
1.75661e-09
1.17189e-05
6.43779e-09
1.5807e-09
1.45157e-05
9.90333e-09
1.28832e-09
1.66958e-05
1.3504e-08
9.68552e-10
1.83843e-05
1.68295e-08
6.6197e-10
1.96618e-05
1.94988e-08
3.80446e-10
2.05813e-05
2.12001e-08
1.20274e-10
2.11777e-05
2.17245e-08
-1.30992e-10
2.14718e-05
2.09914e-08
-3.89532e-10
2.14732e-05
1.90646e-08
-6.71339e-10
2.11817e-05
1.61547e-08
-9.88563e-10
2.05865e-05
1.2604e-08
-1.34472e-09
1.96664e-05
8.85124e-09
-1.72817e-09
1.83863e-05
5.37192e-09
-2.1037e-09
1.66934e-05
2.59448e-09
-2.39874e-09
1.45083e-05
8.01303e-10
-2.48596e-09
1.17073e-05
3.93575e-11
-2.16366e-09
8.08863e-06
-1.10259e-09
3.29945e-06
6.84418e-10
1.39958e-09
4.58645e-06
2.83647e-09
2.6205e-09
1.17204e-05
6.53001e-09
2.88791e-09