/*--------------------------------*- C++ -*----------------------------------*\
  =========                 |
  \\      /  F ield         | OpenFOAM: The Open Source CFD Toolbox
   \\    /   O peration     | Website:  https://openfoam.org
    \\  /    A nd           | Version:  6
     \\/     M anipulation  |
\*---------------------------------------------------------------------------*/
FoamFile
{
    version     2.0;
    format      ascii;
    class       volScalarField;
    location    "0.02";
    object      T;
}
// * * * * * * * * * * * * * * * * * * * * * * * * * * * * * * * * * * * * * //

dimensions      [0 0 0 1 0 0 0];

internalField   nonuniform List<scalar> 
7000
(
87.1791
87.1783
87.178
87.1779
87.1779
87.1779
87.1779
87.178
87.1781
87.1784
87.1783
87.1775
87.1772
87.1771
87.1771
87.1771
87.1771
87.1772
87.1774
87.1778
87.178
87.1772
87.1769
87.1768
87.1768
87.1768
87.1768
87.1769
87.1772
87.1776
87.1779
87.1771
87.1768
87.1767
87.1767
87.1767
87.1767
87.1768
87.1771
87.1776
87.1779
87.1771
87.1768
87.1767
87.1767
87.1767
87.1767
87.1768
87.1771
87.1776
87.1779
87.1771
87.1768
87.1767
87.1767
87.1767
87.1767
87.1768
87.1771
87.1776
87.1779
87.1771
87.1768
87.1767
87.1767
87.1767
87.1767
87.1769
87.1771
87.1776
87.178
87.1772
87.1769
87.1768
87.1768
87.1768
87.1769
87.177
87.1772
87.1777
87.1781
87.1774
87.1772
87.1771
87.1771
87.1771
87.1771
87.1772
87.1775
87.178
87.1784
87.1778
87.1776
87.1776
87.1776
87.1776
87.1776
87.1777
87.178
87.1784
47.8246
47.8233
47.8227
47.8225
47.8225
47.8225
47.8225
47.8227
47.8232
47.8239
47.8233
47.822
47.8214
47.8212
47.8212
47.8212
47.8213
47.8215
47.8221
47.8232
47.8227
47.8214
47.8209
47.8207
47.8206
47.8206
47.8207
47.821
47.8216
47.8228
47.8225
47.8212
47.8207
47.8205
47.8204
47.8204
47.8205
47.8208
47.8214
47.8227
47.8225
47.8212
47.8206
47.8204
47.8204
47.8204
47.8205
47.8207
47.8214
47.8226
47.8225
47.8212
47.8206
47.8204
47.8204
47.8204
47.8205
47.8207
47.8214
47.8227
47.8225
47.8213
47.8207
47.8205
47.8205
47.8205
47.8206
47.8208
47.8215
47.8227
47.8227
47.8215
47.821
47.8208
47.8207
47.8207
47.8208
47.8211
47.8218
47.823
47.8232
47.8221
47.8216
47.8214
47.8214
47.8214
47.8215
47.8218
47.8224
47.8237
47.8239
47.8232
47.8228
47.8227
47.8226
47.8227
47.8227
47.823
47.8237
47.8249
21.9911
21.99
21.9895
21.9894
21.9893
21.9893
21.9894
21.9896
21.9902
21.9912
21.99
21.989
21.9885
21.9883
21.9883
21.9883
21.9884
21.9886
21.9893
21.9906
21.9895
21.9885
21.988
21.9879
21.9878
21.9878
21.9879
21.9882
21.9889
21.9903
21.9894
21.9883
21.9879
21.9877
21.9876
21.9877
21.9877
21.988
21.9887
21.9902
21.9893
21.9883
21.9878
21.9876
21.9876
21.9876
21.9877
21.988
21.9887
21.9902
21.9893
21.9883
21.9878
21.9877
21.9876
21.9876
21.9877
21.988
21.9887
21.9902
21.9894
21.9884
21.9879
21.9877
21.9877
21.9877
21.9878
21.9881
21.9888
21.9903
21.9896
21.9886
21.9882
21.988
21.988
21.988
21.9881
21.9884
21.9891
21.9906
21.9902
21.9893
21.9889
21.9887
21.9887
21.9887
21.9888
21.9891
21.9898
21.9913
21.9912
21.9906
21.9903
21.9902
21.9902
21.9902
21.9903
21.9906
21.9913
21.9928
8.58514
8.58454
8.58427
8.58417
8.58414
8.58415
8.5842
8.58437
8.58479
8.58561
8.58454
8.58395
8.58368
8.58357
8.58355
8.58355
8.58362
8.5838
8.58429
8.58531
8.58427
8.58368
8.58341
8.58331
8.58328
8.58329
8.58335
8.58355
8.58407
8.58516
8.58417
8.58357
8.58331
8.58321
8.58318
8.58319
8.58325
8.58346
8.58399
8.58509
8.58414
8.58355
8.58328
8.58318
8.58315
8.58316
8.58323
8.58344
8.58397
8.58508
8.58415
8.58355
8.58329
8.58319
8.58316
8.58317
8.58324
8.58345
8.58398
8.58509
8.5842
8.58362
8.58335
8.58325
8.58323
8.58324
8.58331
8.58352
8.58405
8.58516
8.58437
8.5838
8.58355
8.58346
8.58344
8.58345
8.58352
8.58373
8.58426
8.58537
8.58479
8.58429
8.58407
8.58399
8.58397
8.58398
8.58405
8.58426
8.5848
8.58591
8.58561
8.58531
8.58516
8.58509
8.58508
8.58509
8.58516
8.58537
8.58591
8.58703
2.88983
2.88956
2.88944
2.88939
2.88938
2.88938
2.88942
2.88951
2.88975
2.89024
2.88956
2.88929
2.88917
2.88913
2.88911
2.88912
2.88915
2.88926
2.88953
2.89011
2.88944
2.88917
2.88905
2.88901
2.88899
2.889
2.88904
2.88915
2.88943
2.89004
2.88939
2.88913
2.88901
2.88896
2.88895
2.88895
2.88899
2.88911
2.8894
2.89002
2.88938
2.88911
2.88899
2.88895
2.88894
2.88894
2.88898
2.8891
2.88939
2.89001
2.88938
2.88912
2.889
2.88895
2.88894
2.88895
2.88899
2.8891
2.8894
2.89002
2.88942
2.88915
2.88904
2.88899
2.88898
2.88899
2.88902
2.88914
2.88944
2.89006
2.88951
2.88926
2.88915
2.88911
2.8891
2.8891
2.88914
2.88926
2.88955
2.89017
2.88975
2.88953
2.88943
2.8894
2.88939
2.8894
2.88944
2.88955
2.88985
2.89047
2.89024
2.89011
2.89004
2.89002
2.89001
2.89002
2.89006
2.89017
2.89047
2.8911
0.851374
0.851276
0.851231
0.851214
0.851209
0.851212
0.851226
0.85127
0.85138
0.851603
0.851276
0.851178
0.851134
0.851116
0.851112
0.851115
0.85113
0.851177
0.851299
0.851559
0.851231
0.851134
0.851089
0.851072
0.851067
0.85107
0.851086
0.851136
0.851264
0.851535
0.851214
0.851116
0.851072
0.851055
0.85105
0.851053
0.85107
0.851121
0.851251
0.851525
0.851209
0.851112
0.851067
0.85105
0.851046
0.851049
0.851066
0.851117
0.851247
0.851523
0.851212
0.851115
0.85107
0.851053
0.851049
0.851052
0.851069
0.85112
0.851251
0.851527
0.851226
0.85113
0.851086
0.85107
0.851066
0.851069
0.851086
0.851137
0.851268
0.851544
0.85127
0.851177
0.851136
0.851121
0.851117
0.85112
0.851137
0.851188
0.851319
0.851595
0.85138
0.851299
0.851264
0.851251
0.851247
0.851251
0.851268
0.851319
0.851451
0.851727
0.851603
0.851559
0.851535
0.851525
0.851523
0.851527
0.851544
0.851595
0.851727
0.852006
0.22249
0.222459
0.222445
0.22244
0.222438
0.222439
0.222445
0.222461
0.222503
0.222587
0.222459
0.222429
0.222415
0.222409
0.222408
0.222409
0.222415
0.222432
0.222477
0.222574
0.222445
0.222415
0.222401
0.222395
0.222394
0.222395
0.222401
0.222419
0.222466
0.222567
0.22244
0.222409
0.222395
0.22239
0.222389
0.22239
0.222396
0.222415
0.222462
0.222564
0.222438
0.222408
0.222394
0.222389
0.222387
0.222388
0.222395
0.222413
0.222461
0.222563
0.222439
0.222409
0.222395
0.22239
0.222388
0.22239
0.222396
0.222415
0.222463
0.222564
0.222445
0.222415
0.222401
0.222396
0.222395
0.222396
0.222402
0.222421
0.222469
0.222571
0.222461
0.222432
0.222419
0.222415
0.222413
0.222415
0.222421
0.22244
0.222488
0.22259
0.222503
0.222477
0.222466
0.222462
0.222461
0.222463
0.222469
0.222488
0.222536
0.222638
0.222587
0.222574
0.222567
0.222564
0.222563
0.222564
0.222571
0.22259
0.222638
0.222741
0.0521788
0.0521704
0.0521665
0.052165
0.0521646
0.052165
0.0521667
0.052172
0.0521852
0.0522123
0.0521704
0.052162
0.0521582
0.0521567
0.0521563
0.0521567
0.0521585
0.0521641
0.0521784
0.0522088
0.0521665
0.0521582
0.0521543
0.0521528
0.0521525
0.0521529
0.0521548
0.0521606
0.0521754
0.0522069
0.052165
0.0521567
0.0521528
0.0521514
0.052151
0.0521514
0.0521533
0.0521592
0.0521743
0.052206
0.0521646
0.0521563
0.0521525
0.052151
0.0521507
0.0521511
0.052153
0.0521589
0.0521741
0.0522059
0.052165
0.0521567
0.0521529
0.0521514
0.0521511
0.0521515
0.0521534
0.0521594
0.0521745
0.0522064
0.0521667
0.0521585
0.0521548
0.0521533
0.052153
0.0521534
0.0521554
0.0521613
0.0521765
0.0522083
0.052172
0.0521641
0.0521606
0.0521593
0.052159
0.0521594
0.0521613
0.0521673
0.0521825
0.0522144
0.0521853
0.0521784
0.0521754
0.0521743
0.0521741
0.0521746
0.0521765
0.0521825
0.0521977
0.0522297
0.0522124
0.0522089
0.052207
0.0522062
0.052206
0.0522065
0.0522085
0.0522145
0.0522297
0.052262
0.0110921
0.01109
0.0110891
0.0110887
0.0110886
0.0110887
0.0110892
0.0110906
0.0110941
0.0111011
0.01109
0.011088
0.0110871
0.0110867
0.0110866
0.0110867
0.0110872
0.0110887
0.0110925
0.0111003
0.0110891
0.0110871
0.0110861
0.0110858
0.0110857
0.0110858
0.0110863
0.0110879
0.0110918
0.0110999
0.0110887
0.0110867
0.0110858
0.0110854
0.0110853
0.0110855
0.011086
0.0110876
0.0110915
0.0110997
0.0110886
0.0110866
0.0110857
0.0110853
0.0110853
0.0110854
0.0110859
0.0110875
0.0110915
0.0110996
0.0110887
0.0110867
0.0110858
0.0110855
0.0110854
0.0110855
0.011086
0.0110876
0.0110916
0.0110998
0.0110892
0.0110872
0.0110863
0.011086
0.0110859
0.011086
0.0110866
0.0110882
0.0110921
0.0111003
0.0110907
0.0110888
0.0110879
0.0110876
0.0110875
0.0110877
0.0110882
0.0110898
0.0110938
0.011102
0.0110944
0.0110927
0.011092
0.0110918
0.0110917
0.0110918
0.0110924
0.011094
0.011098
0.0111062
0.011102
0.0111012
0.0111007
0.0111005
0.0111005
0.0111006
0.0111012
0.0111028
0.0111068
0.0111151
0.00215574
0.00215529
0.00215509
0.00215501
0.00215499
0.00215501
0.0021551
0.00215526
0.00215498
0.00215199
0.00215529
0.00215486
0.00215465
0.00215457
0.00215455
0.00215458
0.00215467
0.00215484
0.00215463
0.00215182
0.00215509
0.00215465
0.00215445
0.00215437
0.00215435
0.00215438
0.00215447
0.00215466
0.00215447
0.00215172
0.00215501
0.00215457
0.00215437
0.00215429
0.00215427
0.0021543
0.0021544
0.00215459
0.00215441
0.00215168
0.00215499
0.00215455
0.00215435
0.00215427
0.00215426
0.00215428
0.00215438
0.00215457
0.0021544
0.00215168
0.00215502
0.00215458
0.00215438
0.0021543
0.00215429
0.00215431
0.00215441
0.0021546
0.00215444
0.00215171
0.00215514
0.00215471
0.00215451
0.00215443
0.00215442
0.00215444
0.00215454
0.00215474
0.00215457
0.00215184
0.0021555
0.00215509
0.0021549
0.00215483
0.00215482
0.00215485
0.00215495
0.00215514
0.00215497
0.00215225
0.00215642
0.00215606
0.0021559
0.00215585
0.00215584
0.00215586
0.00215597
0.00215616
0.00215599
0.00215327
0.00215829
0.00215812
0.00215802
0.00215798
0.00215797
0.002158
0.00215811
0.0021583
0.00215814
0.00215543
0.000385886
0.000385798
0.000385757
0.000385742
0.000385737
0.000385734
0.000385682
0.00038512
0.000380252
0.000341815
0.000385798
0.000385711
0.000385671
0.000385655
0.000385651
0.000385648
0.000385597
0.000385039
0.000380184
0.000341784
0.000385757
0.000385671
0.00038563
0.000385615
0.000385611
0.000385608
0.000385558
0.000385002
0.000380154
0.000341767
0.000385742
0.000385655
0.000385615
0.000385599
0.000385595
0.000385593
0.000385543
0.000384989
0.000380143
0.00034176
0.000385738
0.000385652
0.000385612
0.000385596
0.000385592
0.00038559
0.00038554
0.000384986
0.000380141
0.000341759
0.000385745
0.000385658
0.000385618
0.000385603
0.000385599
0.000385596
0.000385547
0.000384993
0.000380149
0.000341765
0.000385771
0.000385686
0.000385647
0.000385632
0.000385628
0.000385626
0.000385576
0.000385022
0.000380177
0.000341791
0.000385852
0.00038577
0.000385734
0.00038572
0.000385716
0.000385714
0.000385664
0.00038511
0.000380264
0.000341869
0.000386055
0.000385984
0.000385954
0.000385942
0.00038594
0.000385938
0.000385888
0.000385334
0.000380485
0.000342066
0.000386471
0.000386438
0.000386419
0.000386411
0.000386409
0.000386407
0.000386358
0.000385803
0.00038095
0.000342492
6.40303e-05
6.40144e-05
6.4007e-05
6.40041e-05
6.40029e-05
6.3999e-05
6.39649e-05
6.37021e-05
6.1959e-05
5.2232e-05
6.40144e-05
6.39987e-05
6.39914e-05
6.39885e-05
6.39873e-05
6.39834e-05
6.39495e-05
6.36875e-05
6.19471e-05
5.22266e-05
6.4007e-05
6.39914e-05
6.3984e-05
6.39811e-05
6.39799e-05
6.39762e-05
6.39424e-05
6.36809e-05
6.19417e-05
5.22236e-05
6.40042e-05
6.39885e-05
6.39812e-05
6.39783e-05
6.39771e-05
6.39734e-05
6.39397e-05
6.36784e-05
6.19397e-05
5.22224e-05
6.40036e-05
6.3988e-05
6.39807e-05
6.39778e-05
6.39766e-05
6.39728e-05
6.39392e-05
6.3678e-05
6.19395e-05
5.22223e-05
6.40049e-05
6.39893e-05
6.3982e-05
6.39792e-05
6.3978e-05
6.39743e-05
6.39406e-05
6.36794e-05
6.19409e-05
5.22236e-05
6.40103e-05
6.39949e-05
6.39878e-05
6.3985e-05
6.39838e-05
6.39801e-05
6.39465e-05
6.36853e-05
6.19466e-05
5.22283e-05
6.40266e-05
6.40118e-05
6.40051e-05
6.40026e-05
6.40015e-05
6.39978e-05
6.39642e-05
6.37029e-05
6.19636e-05
5.22426e-05
6.40675e-05
6.40547e-05
6.40492e-05
6.40471e-05
6.40462e-05
6.40425e-05
6.40089e-05
6.37474e-05
6.20069e-05
5.2279e-05
6.41512e-05
6.41455e-05
6.4142e-05
6.41405e-05
6.41398e-05
6.41361e-05
6.41025e-05
6.38408e-05
6.20982e-05
5.23574e-05
9.90386e-06
9.9012e-06
9.89996e-06
9.89945e-06
9.89912e-06
9.89761e-06
9.88643e-06
9.8136e-06
9.41018e-06
7.62319e-06
9.9012e-06
9.89857e-06
9.89733e-06
9.89683e-06
9.8965e-06
9.895e-06
9.88386e-06
9.81119e-06
9.40824e-06
7.62228e-06
9.89996e-06
9.89734e-06
9.8961e-06
9.8956e-06
9.89528e-06
9.89378e-06
9.88267e-06
9.81009e-06
9.40737e-06
7.62181e-06
9.89948e-06
9.89686e-06
9.89563e-06
9.89513e-06
9.89481e-06
9.89331e-06
9.88222e-06
9.80967e-06
9.40704e-06
7.62162e-06
9.89939e-06
9.89677e-06
9.89554e-06
9.89504e-06
9.89472e-06
9.89323e-06
9.88214e-06
9.80961e-06
9.407e-06
7.62161e-06
9.89964e-06
9.89702e-06
9.8958e-06
9.89531e-06
9.89499e-06
9.8935e-06
9.88241e-06
9.80988e-06
9.40726e-06
7.62183e-06
9.90064e-06
9.89806e-06
9.89686e-06
9.89638e-06
9.89606e-06
9.89457e-06
9.88349e-06
9.81095e-06
9.40828e-06
7.62265e-06
9.90365e-06
9.90117e-06
9.90005e-06
9.89961e-06
9.89931e-06
9.89782e-06
9.88673e-06
9.81417e-06
9.41136e-06
7.62513e-06
9.91119e-06
9.90906e-06
9.90814e-06
9.90777e-06
9.90749e-06
9.90601e-06
9.89492e-06
9.82229e-06
9.41915e-06
7.63145e-06
9.92664e-06
9.92571e-06
9.92513e-06
9.92486e-06
9.92462e-06
9.92314e-06
9.91203e-06
9.83931e-06
9.43555e-06
7.64502e-06
1.43498e-06
1.43456e-06
1.43437e-06
1.43428e-06
1.43421e-06
1.4338e-06
1.43111e-06
1.41558e-06
1.34052e-06
1.0591e-06
1.43456e-06
1.43415e-06
1.43396e-06
1.43388e-06
1.4338e-06
1.43339e-06
1.43071e-06
1.41521e-06
1.34023e-06
1.05896e-06
1.43437e-06
1.43396e-06
1.43377e-06
1.43368e-06
1.43361e-06
1.4332e-06
1.43053e-06
1.41504e-06
1.34009e-06
1.05889e-06
1.43429e-06
1.43389e-06
1.43369e-06
1.43361e-06
1.43353e-06
1.43313e-06
1.43046e-06
1.41498e-06
1.34004e-06
1.05886e-06
1.43428e-06
1.43387e-06
1.43368e-06
1.4336e-06
1.43352e-06
1.43312e-06
1.43045e-06
1.41497e-06
1.34004e-06
1.05886e-06
1.43432e-06
1.43392e-06
1.43373e-06
1.43364e-06
1.43357e-06
1.43316e-06
1.43049e-06
1.41502e-06
1.34008e-06
1.05889e-06
1.4345e-06
1.43409e-06
1.43391e-06
1.43383e-06
1.43375e-06
1.43335e-06
1.43068e-06
1.4152e-06
1.34025e-06
1.05903e-06
1.43501e-06
1.43462e-06
1.43445e-06
1.43437e-06
1.4343e-06
1.4339e-06
1.43123e-06
1.41574e-06
1.34077e-06
1.05943e-06
1.43629e-06
1.43596e-06
1.43582e-06
1.43576e-06
1.43569e-06
1.43529e-06
1.43261e-06
1.41711e-06
1.34206e-06
1.06046e-06
1.43892e-06
1.43878e-06
1.43869e-06
1.43865e-06
1.43858e-06
1.43818e-06
1.4355e-06
1.41997e-06
1.34479e-06
1.06267e-06
1.95608e-07
1.95547e-07
1.95519e-07
1.95506e-07
1.9549e-07
1.95402e-07
1.9487e-07
1.92079e-07
1.79963e-07
1.39938e-07
1.95547e-07
1.95488e-07
1.95459e-07
1.95446e-07
1.9543e-07
1.95343e-07
1.94813e-07
1.92026e-07
1.79922e-07
1.39917e-07
1.95519e-07
1.9546e-07
1.95431e-07
1.95418e-07
1.95402e-07
1.95315e-07
1.94786e-07
1.92001e-07
1.79902e-07
1.39907e-07
1.95508e-07
1.95449e-07
1.9542e-07
1.95408e-07
1.95392e-07
1.95304e-07
1.94775e-07
1.91992e-07
1.79895e-07
1.39903e-07
1.95506e-07
1.95447e-07
1.95419e-07
1.95406e-07
1.9539e-07
1.95303e-07
1.94774e-07
1.91991e-07
1.79895e-07
1.39903e-07
1.95513e-07
1.95454e-07
1.95426e-07
1.95413e-07
1.95397e-07
1.9531e-07
1.94781e-07
1.91998e-07
1.79902e-07
1.39908e-07
1.95541e-07
1.95482e-07
1.95455e-07
1.95442e-07
1.95426e-07
1.95339e-07
1.9481e-07
1.92027e-07
1.79928e-07
1.39929e-07
1.95622e-07
1.95566e-07
1.9554e-07
1.95529e-07
1.95513e-07
1.95426e-07
1.94897e-07
1.92112e-07
1.80008e-07
1.39991e-07
1.95825e-07
1.95777e-07
1.95756e-07
1.95747e-07
1.95732e-07
1.95645e-07
1.95115e-07
1.92327e-07
1.80209e-07
1.40149e-07
1.96241e-07
1.96221e-07
1.96208e-07
1.96201e-07
1.96187e-07
1.961e-07
1.95569e-07
1.92775e-07
1.80632e-07
1.40485e-07
2.51823e-08
2.51741e-08
2.51702e-08
2.51683e-08
2.51653e-08
2.51491e-08
2.5058e-08
2.46155e-08
2.28561e-08
1.75928e-08
2.51741e-08
2.51659e-08
2.5162e-08
2.51601e-08
2.51572e-08
2.5141e-08
2.50501e-08
2.46083e-08
2.28505e-08
1.75899e-08
2.51702e-08
2.51621e-08
2.51582e-08
2.51563e-08
2.51533e-08
2.51372e-08
2.50465e-08
2.4605e-08
2.28479e-08
1.75885e-08
2.51687e-08
2.51606e-08
2.51567e-08
2.51548e-08
2.51519e-08
2.51358e-08
2.50451e-08
2.46037e-08
2.28469e-08
1.7588e-08
2.51685e-08
2.51604e-08
2.51565e-08
2.51546e-08
2.51517e-08
2.51356e-08
2.50449e-08
2.46036e-08
2.28468e-08
1.7588e-08
2.51696e-08
2.51615e-08
2.51576e-08
2.51557e-08
2.51528e-08
2.51367e-08
2.5046e-08
2.46047e-08
2.28479e-08
1.75888e-08
2.51736e-08
2.51656e-08
2.51618e-08
2.516e-08
2.51571e-08
2.5141e-08
2.50503e-08
2.46089e-08
2.28518e-08
1.75918e-08
2.51857e-08
2.5178e-08
2.51745e-08
2.51728e-08
2.51699e-08
2.51538e-08
2.5063e-08
2.46214e-08
2.28634e-08
1.76008e-08
2.52157e-08
2.52092e-08
2.52063e-08
2.52048e-08
2.5202e-08
2.5186e-08
2.50951e-08
2.46529e-08
2.28926e-08
1.76236e-08
2.52772e-08
2.52745e-08
2.52727e-08
2.52716e-08
2.52689e-08
2.52528e-08
2.51617e-08
2.47184e-08
2.29539e-08
1.76717e-08
3.07231e-09
3.07125e-09
3.07074e-09
3.07047e-09
3.06998e-09
3.06735e-09
3.05338e-09
2.9899e-09
2.75521e-09
2.10704e-09
3.07125e-09
3.0702e-09
3.06969e-09
3.06943e-09
3.06893e-09
3.06631e-09
3.05237e-09
2.98898e-09
2.7545e-09
2.10667e-09
3.07075e-09
3.0697e-09
3.06919e-09
3.06893e-09
3.06844e-09
3.06582e-09
3.0519e-09
2.98855e-09
2.75417e-09
2.10649e-09
3.07056e-09
3.06951e-09
3.069e-09
3.06874e-09
3.06825e-09
3.06563e-09
3.05172e-09
2.98839e-09
2.75404e-09
2.10642e-09
3.07053e-09
3.06948e-09
3.06898e-09
3.06872e-09
3.06823e-09
3.06561e-09
3.0517e-09
2.98837e-09
2.75404e-09
2.10642e-09
3.07068e-09
3.06963e-09
3.06913e-09
3.06887e-09
3.06838e-09
3.06577e-09
3.05185e-09
2.98853e-09
2.75418e-09
2.10653e-09
3.07124e-09
3.07021e-09
3.06972e-09
3.06947e-09
3.06898e-09
3.06636e-09
3.05245e-09
2.98911e-09
2.75472e-09
2.10694e-09
3.07292e-09
3.07193e-09
3.07148e-09
3.07124e-09
3.07076e-09
3.06814e-09
3.05422e-09
2.99084e-09
2.75631e-09
2.10817e-09
3.07709e-09
3.07625e-09
3.07587e-09
3.07567e-09
3.0752e-09
3.07258e-09
3.05864e-09
2.99517e-09
2.76031e-09
2.11127e-09
3.08562e-09
3.08528e-09
3.08505e-09
3.08489e-09
3.08442e-09
3.0818e-09
3.06783e-09
3.00418e-09
2.76866e-09
2.11779e-09
3.56312e-10
3.56182e-10
3.56119e-10
3.56084e-10
3.56009e-10
3.55622e-10
3.53672e-10
3.45291e-10
3.16156e-10
2.40797e-10
3.56182e-10
3.56053e-10
3.55991e-10
3.55956e-10
3.55882e-10
3.55496e-10
3.53549e-10
3.45179e-10
3.16071e-10
2.40751e-10
3.56121e-10
3.55993e-10
3.5593e-10
3.55896e-10
3.55821e-10
3.55436e-10
3.53491e-10
3.45127e-10
3.16031e-10
2.40729e-10
3.56097e-10
3.55969e-10
3.55907e-10
3.55872e-10
3.55798e-10
3.55413e-10
3.53469e-10
3.45107e-10
3.16016e-10
2.40721e-10
3.56094e-10
3.55967e-10
3.55904e-10
3.5587e-10
3.55796e-10
3.55411e-10
3.53467e-10
3.45106e-10
3.16016e-10
2.40721e-10
3.56114e-10
3.55986e-10
3.55925e-10
3.5589e-10
3.55817e-10
3.55431e-10
3.53487e-10
3.45126e-10
3.16034e-10
2.40736e-10
3.56188e-10
3.56062e-10
3.56002e-10
3.55968e-10
3.55895e-10
3.5551e-10
3.53565e-10
3.45202e-10
3.16104e-10
2.40789e-10
3.56409e-10
3.56288e-10
3.56232e-10
3.562e-10
3.56127e-10
3.55742e-10
3.53796e-10
3.45427e-10
3.1631e-10
2.40948e-10
3.56954e-10
3.56852e-10
3.56806e-10
3.56778e-10
3.56706e-10
3.56321e-10
3.54372e-10
3.4599e-10
3.16826e-10
2.41346e-10
3.58069e-10
3.58029e-10
3.58e-10
3.57978e-10
3.57908e-10
3.57521e-10
3.55567e-10
3.47158e-10
3.17902e-10
2.42183e-10
3.93909e-11
3.93758e-11
3.93685e-11
3.93641e-11
3.93537e-11
3.93015e-11
3.90497e-11
3.80198e-11
3.46235e-11
2.63071e-11
3.93758e-11
3.93609e-11
3.93536e-11
3.93493e-11
3.9339e-11
3.92868e-11
3.90355e-11
3.80069e-11
3.46138e-11
2.63018e-11
3.93687e-11
3.93539e-11
3.93466e-11
3.93422e-11
3.9332e-11
3.92799e-11
3.90288e-11
3.80009e-11
3.46092e-11
2.62992e-11
3.9366e-11
3.93512e-11
3.93439e-11
3.93396e-11
3.93293e-11
3.92772e-11
3.90262e-11
3.79987e-11
3.46075e-11
2.62983e-11
3.93657e-11
3.93509e-11
3.93436e-11
3.93393e-11
3.9329e-11
3.9277e-11
3.90261e-11
3.79985e-11
3.46075e-11
2.62984e-11
3.93682e-11
3.93534e-11
3.93462e-11
3.93419e-11
3.93316e-11
3.92796e-11
3.90286e-11
3.80011e-11
3.46098e-11
2.63002e-11
3.93775e-11
3.93628e-11
3.93558e-11
3.93516e-11
3.93413e-11
3.92893e-11
3.90383e-11
3.80104e-11
3.46183e-11
2.63067e-11
3.94048e-11
3.93908e-11
3.93842e-11
3.93802e-11
3.93701e-11
3.9318e-11
3.90668e-11
3.80382e-11
3.46436e-11
2.63261e-11
3.94723e-11
3.94605e-11
3.94551e-11
3.94516e-11
3.94416e-11
3.93895e-11
3.91378e-11
3.81074e-11
3.47068e-11
2.63748e-11
3.96103e-11
3.96057e-11
3.96024e-11
3.95995e-11
3.95896e-11
3.95374e-11
3.92849e-11
3.82508e-11
3.48382e-11
2.64767e-11
4.16154e-12
4.15987e-12
4.15905e-12
4.15853e-12
4.1572e-12
4.15065e-12
4.12033e-12
4.00161e-12
3.62824e-12
2.76331e-12
4.15988e-12
4.15823e-12
4.15742e-12
4.1569e-12
4.15557e-12
4.14903e-12
4.11877e-12
4.0002e-12
3.62717e-12
2.76271e-12
4.15909e-12
4.15745e-12
4.15664e-12
4.15612e-12
4.1548e-12
4.14827e-12
4.11803e-12
3.99954e-12
3.62666e-12
2.76242e-12
4.15879e-12
4.15715e-12
4.15634e-12
4.15582e-12
4.1545e-12
4.14798e-12
4.11775e-12
3.99929e-12
3.62648e-12
2.76232e-12
4.15877e-12
4.15713e-12
4.15632e-12
4.1558e-12
4.15448e-12
4.14796e-12
4.11773e-12
3.99928e-12
3.62648e-12
2.76233e-12
4.15906e-12
4.15742e-12
4.15662e-12
4.15611e-12
4.15479e-12
4.14826e-12
4.11804e-12
3.99958e-12
3.62675e-12
2.76255e-12
4.16015e-12
4.15854e-12
4.15775e-12
4.15725e-12
4.15593e-12
4.14941e-12
4.11917e-12
4.00068e-12
3.62775e-12
2.76332e-12
4.16337e-12
4.16183e-12
4.16109e-12
4.16061e-12
4.15931e-12
4.15278e-12
4.12252e-12
4.00393e-12
3.6307e-12
2.76559e-12
4.17132e-12
4.17001e-12
4.16941e-12
4.16898e-12
4.16769e-12
4.16115e-12
4.13084e-12
4.01201e-12
3.63805e-12
2.77127e-12
4.18753e-12
4.18702e-12
4.18665e-12
4.1863e-12
4.18502e-12
4.17846e-12
4.14803e-12
4.02874e-12
3.65331e-12
2.78312e-12
5.09318e-05
7.22969e-06
9.7709e-07
1.26517e-07
2.23311e-08
6.07192e-08
4.80204e-07
3.72863e-06
2.75855e-05
0.000194305
5.09272e-05
7.229e-06
9.76989e-07
1.26501e-07
2.23136e-08
6.06054e-08
4.79433e-07
3.72376e-06
2.75574e-05
0.000194158
5.09246e-05
7.22863e-06
9.76939e-07
1.26494e-07
2.23074e-08
6.05679e-08
4.7919e-07
3.72231e-06
2.75494e-05
0.000194118
5.09235e-05
7.22848e-06
9.76919e-07
1.26491e-07
2.23055e-08
6.05574e-08
4.79124e-07
3.72192e-06
2.75472e-05
0.000194107
5.09235e-05
7.22848e-06
9.7692e-07
1.26491e-07
2.23053e-08
6.05553e-08
4.79111e-07
3.72185e-06
2.75468e-05
0.000194105
5.09247e-05
7.22869e-06
9.76953e-07
1.26496e-07
2.23062e-08
6.05571e-08
4.79124e-07
3.72194e-06
2.75474e-05
0.000194109
5.09292e-05
7.22945e-06
9.77075e-07
1.26514e-07
2.23097e-08
6.05648e-08
4.79179e-07
3.72232e-06
2.75499e-05
0.000194124
5.0943e-05
7.23177e-06
9.7744e-07
1.26569e-07
2.23197e-08
6.05853e-08
4.79327e-07
3.72338e-06
2.75571e-05
0.000194169
5.09781e-05
7.23763e-06
9.78361e-07
1.26706e-07
2.23434e-08
6.06253e-08
4.79623e-07
3.72559e-06
2.75725e-05
0.000194271
5.10521e-05
7.24983e-06
9.80264e-07
1.26987e-07
2.23876e-08
6.06742e-08
4.79982e-07
3.7284e-06
2.75937e-05
0.000194425
1.27577e-05
2.36706e-06
3.79643e-07
5.54468e-08
1.08764e-08
2.89353e-08
2.09338e-07
1.44346e-06
9.00262e-06
4.85294e-05
1.27564e-05
2.36684e-06
3.79605e-07
5.54399e-08
1.08678e-08
2.8882e-08
2.09007e-07
1.44162e-06
8.9937e-06
4.84943e-05
1.27558e-05
2.36671e-06
3.79585e-07
5.54367e-08
1.08646e-08
2.88634e-08
2.08896e-07
1.44102e-06
8.99083e-06
4.84828e-05
1.27555e-05
2.36666e-06
3.79577e-07
5.54355e-08
1.08636e-08
2.8858e-08
2.08864e-07
1.44085e-06
8.99002e-06
4.84794e-05
1.27555e-05
2.36666e-06
3.79578e-07
5.54356e-08
1.08634e-08
2.88569e-08
2.08858e-07
1.44081e-06
8.98986e-06
4.84788e-05
1.27558e-05
2.36674e-06
3.79592e-07
5.54381e-08
1.08639e-08
2.88578e-08
2.08864e-07
1.44085e-06
8.99008e-06
4.84798e-05
1.27572e-05
2.36703e-06
3.79645e-07
5.54469e-08
1.08658e-08
2.88618e-08
2.0889e-07
1.44102e-06
8.991e-06
4.84843e-05
1.27612e-05
2.36789e-06
3.79804e-07
5.54733e-08
1.08711e-08
2.88724e-08
2.0896e-07
1.44147e-06
8.9936e-06
4.8497e-05
1.27714e-05
2.37008e-06
3.80206e-07
5.55399e-08
1.08837e-08
2.88941e-08
2.09107e-07
1.44244e-06
8.99936e-06
4.85264e-05
1.27934e-05
2.37474e-06
3.8106e-07
5.56806e-08
1.09086e-08
2.89263e-08
2.09325e-07
1.44394e-06
9.00877e-06
4.85778e-05
2.40978e-06
5.4126e-07
1.00144e-07
1.63592e-08
3.57392e-09
9.28556e-09
6.14346e-08
3.79559e-07
2.05345e-06
9.15047e-06
2.40953e-06
5.41206e-07
1.00134e-07
1.63572e-08
3.57097e-09
9.26852e-09
6.13381e-08
3.79079e-07
2.05144e-06
9.14392e-06
2.4094e-06
5.41177e-07
1.00128e-07
1.63562e-08
3.56984e-09
9.26229e-09
6.13035e-08
3.78909e-07
2.05072e-06
9.1415e-06
2.40934e-06
5.41165e-07
1.00126e-07
1.63558e-08
3.56949e-09
9.2604e-09
6.12931e-08
3.78858e-07
2.05051e-06
9.14075e-06
2.40934e-06
5.41166e-07
1.00127e-07
1.63559e-08
3.56944e-09
9.26e-09
6.1291e-08
3.78848e-07
2.05047e-06
9.1406e-06
2.40942e-06
5.41186e-07
1.00131e-07
1.63567e-08
3.56961e-09
9.26033e-09
6.1293e-08
3.78859e-07
2.05053e-06
9.14084e-06
2.40971e-06
5.41261e-07
1.00147e-07
1.63596e-08
3.57028e-09
9.26172e-09
6.13014e-08
3.78907e-07
2.05076e-06
9.14179e-06
2.41059e-06
5.41486e-07
1.00194e-07
1.63683e-08
3.5722e-09
9.26548e-09
6.13244e-08
3.7904e-07
2.05143e-06
9.14455e-06
2.41284e-06
5.4206e-07
1.00314e-07
1.63904e-08
3.57682e-09
9.27347e-09
6.13738e-08
3.79334e-07
2.05295e-06
9.151e-06
2.41767e-06
5.43285e-07
1.0057e-07
1.6437e-08
3.58603e-09
9.2866e-09
6.14556e-08
3.79837e-07
2.05568e-06
9.16326e-06
3.92611e-07
1.01432e-07
2.10423e-08
3.78247e-09
9.10363e-10
2.31236e-09
1.41286e-08
7.95187e-08
3.83962e-07
1.48854e-06
3.92567e-07
1.01421e-07
2.10402e-08
3.78199e-09
9.09585e-10
2.30811e-09
1.41063e-08
7.9418e-08
3.83586e-07
1.48747e-06
3.92543e-07
1.01416e-07
2.1039e-08
3.78175e-09
9.09277e-10
2.30649e-09
1.40979e-08
7.938e-08
3.83442e-07
1.48703e-06
3.92534e-07
1.01414e-07
2.10386e-08
3.78166e-09
9.09177e-10
2.30597e-09
1.40953e-08
7.93682e-08
3.83397e-07
1.48689e-06
3.92534e-07
1.01414e-07
2.10387e-08
3.78168e-09
9.09162e-10
2.30587e-09
1.40948e-08
7.93658e-08
3.83388e-07
1.48687e-06
3.92549e-07
1.01418e-07
2.10397e-08
3.78189e-09
9.09211e-10
2.30595e-09
1.40953e-08
7.93684e-08
3.834e-07
1.48691e-06
3.92604e-07
1.01434e-07
2.10435e-08
3.78265e-09
9.09398e-10
2.30633e-09
1.40974e-08
7.93796e-08
3.8345e-07
1.48709e-06
3.9277e-07
1.01482e-07
2.10547e-08
3.7849e-09
9.09939e-10
2.30738e-09
1.41033e-08
7.94109e-08
3.83591e-07
1.4876e-06
3.93193e-07
1.01605e-07
2.10832e-08
3.7906e-09
9.11246e-10
2.30966e-09
1.41164e-08
7.94817e-08
3.8392e-07
1.48882e-06
3.94096e-07
1.01866e-07
2.11437e-08
3.80264e-09
9.13874e-10
2.31365e-09
1.41395e-08
7.9611e-08
3.84544e-07
1.49126e-06
5.77609e-08
1.65983e-08
3.7778e-09
7.36524e-10
1.93002e-10
4.80047e-10
2.7363e-09
1.42353e-08
6.26971e-08
2.18664e-07
5.77538e-08
1.65964e-08
3.7774e-09
7.36425e-10
1.92831e-10
4.7916e-10
2.73196e-09
1.42171e-08
6.26351e-08
2.18505e-07
5.77502e-08
1.65955e-08
3.77719e-09
7.36377e-10
1.92762e-10
4.78809e-10
2.73025e-09
1.42099e-08
6.261e-08
2.18436e-07
5.77487e-08
1.65951e-08
3.77711e-09
7.3636e-10
1.92738e-10
4.78695e-10
2.7297e-09
1.42076e-08
6.26018e-08
2.18413e-07
5.77489e-08
1.65952e-08
3.77714e-09
7.36365e-10
1.92735e-10
4.7867e-10
2.72958e-09
1.42071e-08
6.26001e-08
2.18409e-07
5.77514e-08
1.6596e-08
3.77735e-09
7.3641e-10
1.92746e-10
4.78689e-10
2.72968e-09
1.42076e-08
6.26023e-08
2.18416e-07
5.77607e-08
1.6599e-08
3.7781e-09
7.36575e-10
1.9279e-10
4.78776e-10
2.73014e-09
1.42099e-08
6.26115e-08
2.18446e-07
5.77887e-08
1.66079e-08
3.78037e-09
7.37064e-10
1.92917e-10
4.79018e-10
2.73142e-09
1.42162e-08
6.26377e-08
2.18532e-07
5.78599e-08
1.66306e-08
3.7861e-09
7.38299e-10
1.93224e-10
4.79557e-10
2.73431e-09
1.42307e-08
6.26995e-08
2.1874e-07
5.80113e-08
1.66788e-08
3.79826e-09
7.40904e-10
1.93845e-10
4.80546e-10
2.73966e-09
1.42584e-08
6.2821e-08
2.19166e-07
7.84165e-09
2.44946e-09
6.01738e-10
1.25753e-10
3.55017e-11
8.66094e-11
4.64643e-10
2.26092e-09
9.23266e-09
2.96405e-08
7.84062e-09
2.44918e-09
6.01673e-10
1.25735e-10
3.54691e-11
8.6448e-11
4.63898e-10
2.258e-09
9.22342e-09
2.96185e-08
7.8401e-09
2.44903e-09
6.01639e-10
1.25727e-10
3.54555e-11
8.63821e-11
4.63594e-10
2.2568e-09
9.2195e-09
2.96086e-08
7.8399e-09
2.44898e-09
6.01627e-10
1.25724e-10
3.54508e-11
8.636e-11
4.63492e-10
2.25639e-09
9.21817e-09
2.96051e-08
7.83992e-09
2.44899e-09
6.01631e-10
1.25725e-10
3.54501e-11
8.6355e-11
4.6347e-10
2.25631e-09
9.21789e-09
2.96044e-08
7.84032e-09
2.44913e-09
6.01669e-10
1.25733e-10
3.54524e-11
8.63588e-11
4.6349e-10
2.2564e-09
9.21825e-09
2.96055e-08
7.84176e-09
2.44963e-09
6.01804e-10
1.25765e-10
3.54613e-11
8.63762e-11
4.63576e-10
2.2568e-09
9.21977e-09
2.961e-08
7.84609e-09
2.45111e-09
6.02208e-10
1.25858e-10
3.54869e-11
8.64246e-11
4.63818e-10
2.25792e-09
9.22412e-09
2.96233e-08
7.85705e-09
2.45488e-09
6.03227e-10
1.26091e-10
3.55493e-11
8.6535e-11
4.64375e-10
2.26055e-09
9.23453e-09
2.96558e-08
7.88028e-09
2.46284e-09
6.0538e-10
1.26583e-10
3.56759e-11
8.67433e-11
4.65441e-10
2.26569e-09
9.25548e-09
2.97233e-08
9.94625e-10
3.32236e-10
8.70037e-11
1.93068e-11
5.81935e-12
1.39458e-11
7.09413e-11
3.25944e-10
1.24955e-09
3.75358e-09
9.94486e-10
3.32196e-10
8.6994e-11
1.93039e-11
5.81381e-12
1.39195e-11
7.08262e-11
3.25518e-10
1.24828e-09
3.75073e-09
9.94416e-10
3.32175e-10
8.6989e-11
1.93025e-11
5.81145e-12
1.39085e-11
7.07777e-11
3.25336e-10
1.24772e-09
3.7494e-09
9.94389e-10
3.32167e-10
8.69872e-11
1.9302e-11
5.81063e-12
1.39047e-11
7.07611e-11
3.25273e-10
1.24753e-09
3.74891e-09
9.94394e-10
3.3217e-10
8.6988e-11
1.93022e-11
5.8105e-12
1.39038e-11
7.07573e-11
3.25259e-10
1.24749e-09
3.74881e-09
9.94451e-10
3.32191e-10
8.69941e-11
1.93037e-11
5.81091e-12
1.39045e-11
7.07606e-11
3.25274e-10
1.24754e-09
3.74897e-09
9.94658e-10
3.32266e-10
8.70159e-11
1.9309e-11
5.81251e-12
1.39076e-11
7.07751e-11
3.25337e-10
1.24777e-09
3.74962e-09
9.95278e-10
3.32492e-10
8.70809e-11
1.93248e-11
5.81712e-12
1.39162e-11
7.08162e-11
3.25518e-10
1.24843e-09
3.75153e-09
9.96844e-10
3.33063e-10
8.72445e-11
1.93643e-11
5.82838e-12
1.39362e-11
7.09124e-11
3.25947e-10
1.25003e-09
3.75622e-09
1.00015e-09
3.34266e-10
8.75888e-11
1.94473e-11
5.85129e-12
1.39749e-11
7.11001e-11
3.26803e-10
1.2533e-09
3.76606e-09
1.18818e-10
4.19338e-11
1.15937e-11
2.71105e-12
8.65806e-13
2.04093e-12
9.9056e-12
4.33033e-11
1.57361e-10
4.47658e-10
1.188e-10
4.19284e-11
1.15923e-11
2.71063e-12
8.64954e-13
2.03704e-12
9.8893e-12
4.32458e-11
1.57198e-10
4.4731e-10
1.18791e-10
4.19257e-11
1.15916e-11
2.71042e-12
8.64584e-13
2.03537e-12
9.88226e-12