/*--------------------------------*- C++ -*----------------------------------*\
  =========                 |
  \\      /  F ield         | OpenFOAM: The Open Source CFD Toolbox
   \\    /   O peration     | Website:  https://openfoam.org
    \\  /    A nd           | Version:  6
     \\/     M anipulation  |
\*---------------------------------------------------------------------------*/
FoamFile
{
    version     2.0;
    format      ascii;
    class       volScalarField;
    location    "0.55";
    object      T;
}
// * * * * * * * * * * * * * * * * * * * * * * * * * * * * * * * * * * * * * //

dimensions      [0 0 0 1 0 0 0];

internalField   nonuniform List<scalar> 
7000
(
105.746
105.744
105.739
105.733
105.726
105.718
105.71
105.702
105.697
105.694
105.746
105.743
105.739
105.733
105.726
105.718
105.71
105.702
105.697
105.694
105.746
105.743
105.739
105.733
105.726
105.718
105.71
105.702
105.697
105.694
105.746
105.743
105.739
105.733
105.726
105.718
105.71
105.702
105.697
105.694
105.746
105.743
105.739
105.733
105.726
105.718
105.71
105.702
105.697
105.694
105.746
105.743
105.739
105.733
105.726
105.718
105.71
105.702
105.697
105.694
105.746
105.743
105.739
105.733
105.726
105.718
105.71
105.702
105.697
105.694
105.746
105.743
105.739
105.733
105.726
105.718
105.71
105.702
105.697
105.694
105.746
105.743
105.739
105.733
105.726
105.718
105.71
105.702
105.697
105.694
105.746
105.743
105.739
105.733
105.726
105.718
105.71
105.702
105.697
105.694
97.2749
97.2682
97.2551
97.2364
97.2136
97.1885
97.1633
97.1409
97.1239
97.1148
97.2749
97.2682
97.255
97.2364
97.2136
97.1884
97.1633
97.1408
97.1239
97.1147
97.2749
97.2681
97.255
97.2364
97.2136
97.1884
97.1633
97.1408
97.1239
97.1147
97.2749
97.2681
97.255
97.2364
97.2136
97.1884
97.1633
97.1408
97.1239
97.1147
97.2749
97.2681
97.255
97.2364
97.2136
97.1884
97.1633
97.1408
97.1239
97.1147
97.2749
97.2681
97.255
97.2364
97.2136
97.1884
97.1633
97.1408
97.1239
97.1147
97.2749
97.2681
97.255
97.2364
97.2136
97.1884
97.1633
97.1408
97.1239
97.1147
97.2749
97.2681
97.255
97.2364
97.2136
97.1884
97.1633
97.1408
97.1239
97.1147
97.2749
97.2681
97.255
97.2364
97.2136
97.1884
97.1633
97.1408
97.1239
97.1147
97.2749
97.2681
97.255
97.2364
97.2136
97.1884
97.1633
97.1408
97.1239
97.1148
88.9167
88.905
88.8821
88.8495
88.8093
88.7647
88.7196
88.6791
88.6482
88.6315
88.9167
88.9049
88.8821
88.8495
88.8093
88.7646
88.7196
88.6791
88.6482
88.6315
88.9167
88.9049
88.8821
88.8494
88.8093
88.7646
88.7196
88.6791
88.6482
88.6315
88.9167
88.9049
88.882
88.8494
88.8092
88.7646
88.7196
88.6791
88.6482
88.6314
88.9167
88.9049
88.882
88.8494
88.8092
88.7646
88.7196
88.679
88.6482
88.6314
88.9167
88.9049
88.882
88.8494
88.8092
88.7646
88.7196
88.679
88.6482
88.6314
88.9167
88.9049
88.882
88.8494
88.8092
88.7646
88.7196
88.6791
88.6482
88.6314
88.9167
88.9049
88.882
88.8494
88.8093
88.7646
88.7196
88.6791
88.6482
88.6314
88.9167
88.9049
88.8821
88.8495
88.8093
88.7646
88.7196
88.6791
88.6482
88.6315
88.9167
88.9049
88.8821
88.8495
88.8093
88.7646
88.7196
88.6791
88.6482
88.6315
80.7433
80.7259
80.6918
80.643
80.5821
80.5138
80.4439
80.3801
80.3308
80.3038
80.7433
80.7259
80.6918
80.6429
80.5821
80.5137
80.4439
80.3801
80.3308
80.3037
80.7433
80.7258
80.6918
80.6429
80.5821
80.5137
80.4438
80.38
80.3308
80.3037
80.7433
80.7258
80.6918
80.6429
80.5821
80.5137
80.4438
80.38
80.3307
80.3037
80.7432
80.7258
80.6917
80.6429
80.582
80.5137
80.4438
80.38
80.3307
80.3037
80.7432
80.7258
80.6917
80.6429
80.582
80.5137
80.4438
80.38
80.3307
80.3037
80.7432
80.7258
80.6917
80.6429
80.582
80.5137
80.4438
80.38
80.3307
80.3037
80.7433
80.7258
80.6918
80.6429
80.5821
80.5137
80.4438
80.38
80.3307
80.3037
80.7433
80.7258
80.6918
80.6429
80.5821
80.5137
80.4439
80.3801
80.3308
80.3037
80.7433
80.7258
80.6918
80.6429
80.5821
80.5138
80.4439
80.3801
80.3308
80.3038
72.823
72.799
72.7519
72.6837
72.5977
72.4995
72.3971
72.3016
72.2261
72.184
72.8229
72.7989
72.7518
72.6836
72.5977
72.4994
72.3971
72.3015
72.2261
72.184
72.8229
72.7989
72.7518
72.6836
72.5976
72.4994
72.397
72.3015
72.2261
72.184
72.8229
72.7989
72.7518
72.6835
72.5976
72.4994
72.397
72.3015
72.226
72.1839
72.8229
72.7989
72.7518
72.6835
72.5976
72.4994
72.397
72.3015
72.226
72.1839
72.8229
72.7989
72.7518
72.6835
72.5976
72.4994
72.397
72.3015
72.226
72.1839
72.8229
72.7989
72.7518
72.6835
72.5976
72.4994
72.397
72.3015
72.226
72.1839
72.8229
72.7989
72.7518
72.6836
72.5976
72.4994
72.397
72.3015
72.2261
72.184
72.8229
72.7989
72.7518
72.6836
72.5976
72.4994
72.3971
72.3015
72.2261
72.184
72.8229
72.7989
72.7519
72.6836
72.5977
72.4995
72.3971
72.3016
72.2261
72.184
65.2185
65.187
65.1248
65.0337
64.9171
64.7809
64.6351
64.4947
64.3801
64.3142
65.2184
65.1869
65.1247
65.0336
64.917
64.7808
64.6351
64.4947
64.38
64.3141
65.2184
65.1869
65.1247
65.0336
64.917
64.7808
64.635
64.4946
64.38
64.3141
65.2183
65.1868
65.1247
65.0336
64.9169
64.7808
64.635
64.4946
64.38
64.3141
65.2183
65.1868
65.1247
65.0336
64.9169
64.7808
64.635
64.4946
64.3799
64.314
65.2183
65.1868
65.1247
65.0335
64.9169
64.7808
64.635
64.4946
64.3799
64.314
65.2183
65.1868
65.1247
65.0336
64.9169
64.7808
64.635
64.4946
64.38
64.3141
65.2183
65.1869
65.1247
65.0336
64.9169
64.7808
64.635
64.4946
64.38
64.3141
65.2184
65.1869
65.1247
65.0336
64.917
64.7808
64.635
64.4946
64.38
64.3141
65.2184
65.1869
65.1248
65.0337
64.917
64.7809
64.6351
64.4947
64.3801
64.3142
57.9859
57.9461
57.8671
57.7497
57.5965
57.4127
57.2088
57.0037
56.8273
56.7207
57.9858
57.9461
57.867
57.7496
57.5964
57.4126
57.2088
57.0036
56.8273
56.7207
57.9858
57.946
57.867
57.7496
57.5964
57.4126
57.2087
57.0036
56.8273
56.7206
57.9857
57.946
57.8669
57.7496
57.5963
57.4126
57.2087
57.0035
56.8272
56.7206
57.9857
57.946
57.8669
57.7495
57.5963
57.4125
57.2087
57.0035
56.8272
56.7206
57.9857
57.946
57.8669
57.7495
57.5963
57.4125
57.2087
57.0035
56.8272
56.7206
57.9857
57.946
57.8669
57.7495
57.5963
57.4126
57.2087
57.0035
56.8272
56.7206
57.9857
57.946
57.8669
57.7496
57.5963
57.4126
57.2087
57.0036
56.8273
56.7206
57.9858
57.946
57.867
57.7496
57.5964
57.4126
57.2088
57.0036
56.8273
56.7207
57.9858
57.9461
57.867
57.7497
57.5964
57.4127
57.2088
57.0036
56.8273
56.7207
51.1736
51.1253
51.0284
50.8824
50.6876
50.4464
50.1667
49.8676
49.5899
49.4062
51.1735
51.1252
51.0283
50.8824
50.6876
50.4464
50.1666
49.8675
49.5898
49.4062
51.1734
51.1251
51.0283
50.8823
50.6875
50.4463
50.1666
49.8675
49.5898
49.4061
51.1734
51.1251
51.0282
50.8823
50.6875
50.4463
50.1665
49.8674
49.5898
49.4061
51.1734
51.1251
51.0282
50.8823
50.6875
50.4463
50.1665
49.8674
49.5898
49.4061
51.1734
51.1251
51.0282
50.8823
50.6875
50.4463
50.1665
49.8674
49.5898
49.4061
51.1734
51.1251
51.0282
50.8823
50.6875
50.4463
50.1665
49.8674
49.5898
49.4061
51.1734
51.1251
51.0282
50.8823
50.6875
50.4463
50.1666
49.8675
49.5898
49.4061
51.1734
51.1252
51.0283
50.8824
50.6876
50.4464
50.1666
49.8675
49.5899
49.4062
51.1735
51.1252
51.0283
50.8824
50.6876
50.4464
50.1667
49.8676
49.5899
49.4062
44.8211
44.7647
44.6507
44.4764
44.2384
43.9332
43.56
43.1284
42.6791
42.3301
44.821
44.7646
44.6506
44.4763
44.2384
43.9331
43.5599
43.1284
42.679
42.3301
44.821
44.7646
44.6505
44.4763
44.2383
43.9331
43.5599
43.1283
42.6789
42.33
44.8209
44.7645
44.6505
44.4763
44.2383
43.933
43.5598
43.1283
42.6789
42.33
44.8209
44.7645
44.6505
44.4762
44.2383
43.933
43.5598
43.1283
42.6789
42.33
44.8209
44.7645
44.6505
44.4762
44.2383
43.933
43.5598
43.1283
42.6789
42.33
44.8209
44.7645
44.6505
44.4763
44.2383
43.933
43.5598
43.1283
42.6789
42.33
44.8209
44.7646
44.6505
44.4763
44.2383
43.9331
43.5599
43.1283
42.679
42.33
44.821
44.7646
44.6506
44.4763
44.2383
43.9331
43.5599
43.1284
42.679
42.3301
44.821
44.7646
44.6506
44.4764
44.2384
43.9332
43.56
43.1284
42.6791
42.3301
38.9582
38.8952
38.7671
38.5689
38.2925
37.9262
37.4529
36.8522
36.1173
35.3581
38.9581
38.8952
38.767
38.5688
38.2925
37.9261
37.4528
36.8521
36.1172
35.3581
38.9581
38.8951
38.767
38.5687
38.2924
37.9261
37.4527
36.8521
36.1172
35.358
38.958
38.8951
38.7669
38.5687
38.2924
37.926
37.4527
36.852
36.1171
35.358
38.958
38.8951
38.7669
38.5687
38.2924
37.926
37.4527
36.852
36.1171
35.358
38.958
38.8951
38.7669
38.5687
38.2924
37.926
37.4527
36.852
36.1171
35.358
38.958
38.8951
38.7669
38.5687
38.2924
37.926
37.4527
36.852
36.1171
35.358
38.958
38.8951
38.767
38.5687
38.2924
37.9261
37.4527
36.8521
36.1172
35.358
38.9581
38.8951
38.767
38.5688
38.2925
37.9261
37.4528
36.8521
36.1172
35.3581
38.9581
38.8952
38.7671
38.5688
38.2925
37.9262
37.4529
36.8522
36.1173
35.3581
33.6039
33.537
33.4004
33.1874
32.8869
32.4794
31.9311
31.1747
30.0525
28.1081
33.6038
33.5369
33.4003
33.1874
32.8868
32.4794
31.931
31.1746
30.0525
28.108
33.6038
33.5369
33.4002
33.1873
32.8867
32.4793
31.931
31.1746
30.0524
28.108
33.6037
33.5369
33.4002
33.1873
32.8867
32.4793
31.931
31.1745
30.0524
28.1079
33.6037
33.5368
33.4002
33.1873
32.8867
32.4793
31.9309
31.1745
30.0524
28.1079
33.6037
33.5368
33.4002
33.1873
32.8867
32.4793
31.9309
31.1745
30.0524
28.1079
33.6037
33.5368
33.4002
33.1873
32.8867
32.4793
31.931
31.1745
30.0524
28.1079
33.6037
33.5369
33.4002
33.1873
32.8867
32.4793
31.931
31.1746
30.0524
28.108
33.6038
33.5369
33.4003
33.1874
32.8868
32.4794
31.931
31.1746
30.0525
28.108
33.6038
33.537
33.4003
33.1874
32.8869
32.4794
31.9311
31.1747
30.0525
28.1081
28.7658
28.6984
28.5608
28.3463
28.0436
27.6335
27.084
26.3391
25.3004
23.8159
28.7657
28.6984
28.5607
28.3463
28.0435
27.6335
27.084
26.339
25.3004
23.8159
28.7657
28.6983
28.5607
28.3462
28.0435
27.6334
27.0839
26.339
25.3003
23.8158
28.7656
28.6983
28.5607
28.3462
28.0434
27.6334
27.0839
26.3389
25.3003
23.8158
28.7656
28.6983
28.5606
28.3462
28.0434
27.6334
27.0839
26.3389
25.3002
23.8158
28.7656
28.6983
28.5606
28.3462
28.0434
27.6334
27.0839
26.3389
25.3002
23.8158
28.7656
28.6983
28.5606
28.3462
28.0434
27.6334
27.0839
26.3389
25.3003
23.8158
28.7657
28.6983
28.5607
28.3462
28.0435
27.6334
27.0839
26.339
25.3003
23.8158
28.7657
28.6983
28.5607
28.3463
28.0435
27.6335
27.084
26.339
25.3004
23.8159
28.7657
28.6984
28.5608
28.3463
28.0436
27.6336
27.084
26.3391
25.3004
23.8159
24.44
24.3758
24.245
24.0427
23.7605
23.3856
22.8991
22.2757
21.4898
20.5482
24.4399
24.3757
24.245
24.0427
23.7605
23.3855
22.899
22.2756
21.4898
20.5481
24.4399
24.3757
24.2449
24.0426
23.7604
23.3855
22.8989
22.2756
21.4897
20.548
24.4399
24.3756
24.2449
24.0426
23.7604
23.3854
22.8989
22.2755
21.4897
20.548
24.4398
24.3756
24.2449
24.0426
23.7604
23.3854
22.8989
22.2755
21.4896
20.548
24.4398
24.3756
24.2449
24.0426
23.7604
23.3854
22.8989
22.2755
21.4897
20.548
24.4399
24.3756
24.2449
24.0426
23.7604
23.3854
22.8989
22.2755
21.4897
20.548
24.4399
24.3757
24.2449
24.0426
23.7604
23.3855
22.8989
22.2756
21.4897
20.548
24.4399
24.3757
24.245
24.0427
23.7605
23.3855
22.899
22.2756
21.4898
20.5481
24.44
24.3758
24.245
24.0427
23.7605
23.3856
22.8991
22.2757
21.4898
20.5482
20.6119
20.5539
20.4367
20.2577
20.0132
19.6987
19.3098
18.8471
18.3259
17.8017
20.6118
20.5538
20.4366
20.2576
20.0132
19.6986
19.3098
18.847
18.3258
17.8016
20.6118
20.5538
20.4366
20.2576
20.0131
19.6985
19.3097
18.847
18.3258
17.8016
20.6118
20.5537
20.4365
20.2576
20.0131
19.6985
19.3097
18.847
18.3257
17.8015
20.6117
20.5537
20.4365
20.2575
20.0131
19.6985
19.3097
18.8469
18.3257
17.8015
20.6117
20.5537
20.4365
20.2575
20.0131
19.6985
19.3097
18.8469
18.3257
17.8015
20.6117
20.5537
20.4365
20.2576
20.0131
19.6985
19.3097
18.847
18.3257
17.8015
20.6118
20.5538
20.4366
20.2576
20.0131
19.6985
19.3097
18.847
18.3258
17.8016
20.6118
20.5538
20.4366
20.2576
20.0132
19.6986
19.3098
18.8471
18.3258
17.8016
20.6119
20.5539
20.4367
20.2577
20.0132
19.6987
19.3099
18.8471
18.3259
17.8017
17.2576
17.208
17.1087
16.96
16.7627
16.52
16.239
15.9359
15.6433
15.4228
17.2575
17.2079
17.1086
16.9599
16.7627
16.5199
16.239
15.9358
15.6432
15.4228
17.2575
17.2079
17.1086
16.9599
16.7626
16.5199
16.2389
15.9358
15.6432
15.4227
17.2575
17.2078
17.1086
16.9598
16.7626
16.5199
16.2389
15.9358
15.6432
15.4227
17.2575
17.2078
17.1086
16.9598
16.7626
16.5199
16.2389
15.9358
15.6431
15.4227
17.2575
17.2078
17.1086
16.9598
16.7626
16.5199
16.2389
15.9358
15.6431
15.4227
17.2575
17.2078
17.1086
16.9598
16.7626
16.5199
16.2389
15.9358
15.6432
15.4227
17.2575
17.2079
17.1086
16.9599
16.7627
16.5199
16.2389
15.9358
15.6432
15.4227
17.2575
17.2079
17.1086
16.9599
16.7627
16.5199
16.239
15.9359
15.6432
15.4228
17.2576
17.208
17.1087
16.96
16.7628
16.52
16.239
15.9359
15.6433
15.4228
14.3462
14.3059
14.2266
14.1107
13.9631
13.7928
13.6148
13.4539
13.3485
13.3543
14.3461
14.3059
14.2265
14.1106
13.9631
13.7928
13.6148
13.4538
13.3484
13.3542
14.3461
14.3059
14.2265
14.1106
13.963
13.7927
13.6147
13.4538
13.3484
13.3542
14.3461
14.3058
14.2265
14.1105
13.963
13.7927
13.6147
13.4538
13.3484
13.3542
14.3461
14.3058
14.2264
14.1105
13.963
13.7927
13.6147
13.4537
13.3484
13.3541
14.3461
14.3058
14.2264
14.1105
13.963
13.7927
13.6147
13.4537
13.3484
13.3541
14.3461
14.3058
14.2265
14.1105
13.963
13.7927
13.6147
13.4538
13.3484
13.3542
14.3461
14.3059
14.2265
14.1106
13.963
13.7927
13.6147
13.4538
13.3484
13.3542
14.3461
14.3059
14.2265
14.1106
13.9631
13.7928
13.6148
13.4538
13.3485
13.3542
14.3462
14.3059
14.2266
14.1107
13.9631
13.7928
13.6148
13.4539
13.3485
13.3543
11.8419
11.811
11.7513
11.667
11.5661
11.4615
11.3735
11.3323
11.3797
11.5661
11.8419
11.811
11.7512
11.667
11.5661
11.4615
11.3735
11.3323
11.3796
11.566
11.8419
11.811
11.7512
11.6669
11.566
11.4614
11.3734
11.3322
11.3795
11.566
11.8418
11.8109
11.7512
11.6669
11.566
11.4614
11.3734
11.3322
11.3795
11.5659
11.8418
11.8109
11.7512
11.6669
11.566
11.4614
11.3734
11.3322
11.3795
11.5659
11.8418
11.8109
11.7512
11.6669
11.566
11.4614
11.3734
11.3322
11.3795
11.5659
11.8418
11.8109
11.7512
11.6669
11.566
11.4614
11.3734
11.3322
11.3795
11.566
11.8419
11.811
11.7512
11.6669
11.566
11.4614
11.3734
11.3323
11.3796
11.566
11.8419
11.811
11.7512
11.667
11.5661
11.4615
11.3735
11.3323
11.3796
11.566
11.8419
11.8111
11.7513
11.667
11.5661
11.4615
11.3736
11.3324
11.3797
11.5661
9.7065
9.6841
9.64186
9.58531
9.52406
9.47356
9.45754
9.51105
9.6825
10.0291
9.70646
9.68406
9.64181
9.58526
9.52402
9.47352
9.45749
9.511
9.68245
10.029
9.70643
9.68402
9.64178
9.58523
9.52399
9.47348
9.45746
9.51096
9.68241
10.029
9.70641
9.684
9.64176
9.58521
9.52396
9.47346
9.45743
9.51094
9.68238
10.0289
9.7064
9.68399
9.64175
9.5852
9.52395
9.47345
9.45742
9.51093
9.68237
10.0289
9.7064
9.68399
9.64175
9.5852
9.52396
9.47345
9.45743
9.51093
9.68237
10.0289
9.70641
9.684
9.64176
9.58522
9.52397
9.47347
9.45744
9.51095
9.68239
10.029
9.70643
9.68403
9.64179
9.58524
9.524
9.47349
9.45747
9.51098
9.68242
10.029
9.70646
9.68406
9.64182
9.58528
9.52403
9.47353
9.45751
9.51102
9.68246
10.029
9.70649
9.6841
9.64187
9.58532
9.52408
9.47358
9.45756
9.51107
9.68252
10.0291
7.90083
7.88551
7.85762
7.82307
7.79197
7.78044
7.81353
7.93026
8.19169
8.6898
7.90079
7.88547
7.85758
7.82303
7.79193
7.7804
7.81349
7.93021
8.19164
8.68975
7.90077
7.88544
7.85755
7.823
7.7919
7.78036
7.81346
7.93018
8.19161
8.68971
7.90075
7.88542
7.85753
7.82298
7.79188
7.78035
7.81344
7.93016
8.19158
8.68969
7.90074
7.88541
7.85753
7.82298
7.79188
7.78034
7.81343
7.93015
8.19157
8.68968
7.90074
7.88541
7.85753
7.82298
7.79188
7.78034
7.81343
7.93015
8.19158
8.68968
7.90075
7.88543
7.85754
7.82299
7.79189
7.78035
7.81344
7.93016
8.19159
8.68969
7.90077
7.88545
7.85756
7.82301
7.79191
7.78038
7.81347
7.93019
8.19162
8.68972
7.90079
7.88547
7.85759
7.82304
7.79195
7.78041
7.8135
7.93023
8.19166
8.68977
7.90083
7.88551
7.85763
7.82309
7.79199
7.78046
7.81355
7.93028
8.19171
8.68983
6.38677
6.37686
6.35968
6.34073
6.3293
6.33984
6.39468
6.52995
6.8126
7.40159
6.38673
6.37683
6.35964
6.3407
6.32926
6.33981
6.39464
6.52991
6.81256
7.40155
6.38671
6.37681
6.35962
6.34067
6.32924
6.33978
6.39462
6.52988
6.81253
7.40152
6.38669
6.37679
6.3596
6.34065
6.32922
6.33976
6.3946
6.52986
6.81251
7.4015
6.38669
6.37678
6.35959
6.34065
6.32921
6.33976
6.39459
6.52985
6.8125
7.40149
6.38669
6.37678
6.3596
6.34065
6.32922
6.33976
6.39459
6.52985
6.8125
7.40149
6.3867
6.37679
6.35961
6.34066
6.32923
6.33977
6.39461
6.52987
6.81252
7.4015
6.38671
6.37681
6.35962
6.34068
6.32925
6.33979
6.39463
6.52989
6.81254
7.40153
6.38674
6.37684
6.35965
6.34071
6.32928
6.33982
6.39466
6.52992
6.81258
7.40157
6.38677
6.37687
6.35969
6.34075
6.32932
6.33986
6.3947
6.52997
6.81263
7.40162
23.7188
21.7776
21.4848
22.5767
25.0253
28.9521
34.6267
42.5279
53.5182
69.3096
23.7187
21.7775
21.4847
22.5766
25.0251
28.952
34.6265
42.5278
53.518
69.3094
23.7186
21.7774
21.4846
22.5765
25.025
28.9519
34.6264
42.5276
53.5179
69.3093
23.7186
21.7774
21.4846
22.5765
25.025
28.9518
34.6264
42.5276
53.5178
69.3092
23.7185
21.7773
21.4845
22.5764
25.025
28.9518
34.6263
42.5275
53.5178
69.3091
23.7185
21.7773
21.4845
22.5764
25.0249
28.9518
34.6263
42.5275
53.5178
69.3091
23.7186
21.7774
21.4846
22.5765
25.025
28.9518
34.6263
42.5275
53.5178
69.3091
23.7186
21.7774
21.4846
22.5765
25.025
28.9519
34.6264
42.5276
53.5179
69.3092
23.7186
21.7774
21.4846
22.5766
25.0251
28.9519
34.6265
42.5277
53.518
69.3093
23.7187
21.7775
21.4847
22.5766
25.0251
28.952
34.6266
42.5278
53.5181
69.3094
21.8276
20.7306
20.7502
21.925
24.3137
28.0404
33.3126
40.4355
49.8054
61.759
21.8275
20.7305
20.7501
21.9249
24.3136
28.0403
33.3125
40.4354
49.8052
61.7589
21.8275
20.7304
20.75
21.9248
24.3135
28.0402
33.3124
40.4353
49.8051
61.7587
21.8274
20.7304
20.75
21.9248
24.3134
28.0401
33.3123
40.4352
49.805
61.7586
21.8274
20.7304
20.75
21.9247
24.3134
28.0401
33.3123
40.4351
49.8049
61.7586
21.8274
20.7304
20.7499
21.9247
24.3134
28.0401
33.3123
40.4351
49.8049
61.7586
21.8274
20.7304
20.75
21.9248
24.3134
28.0401
33.3123
40.4352
49.805
61.7586
21.8275
20.7304
20.75
21.9248
24.3134
28.0401
33.3124
40.4352
49.805
61.7587
21.8275
20.7305
20.7501
21.9249
24.3135
28.0402
33.3125
40.4353
49.8051
61.7588
21.8276
20.7306
20.7501
21.925
24.3136
28.0403
33.3126
40.4354
49.8053
61.759
19.6012
19.1644
19.5051
20.758
23.0233
26.4102
31.0496
37.0788
44.5779
53.3873
19.6012
19.1643
19.505
20.7579
23.0232
26.4101
31.0495
37.0787
44.5777
53.3872
19.6011
19.1643
19.505
20.7579
23.0231
26.41
31.0494
37.0786
44.5776
53.3871
19.6011
19.1642
19.5049
20.7578
23.023
26.41
31.0493
37.0785
44.5775
53.387
19.601
19.1642
19.5049
20.7578
23.023
26.4099
31.0493
37.0785
44.5775
53.3869
19.601
19.1642
19.5049
20.7578
23.023
26.4099
31.0493
37.0785
44.5775
53.3869
19.6011
19.1642
19.5049
20.7578
23.023
26.4099
31.0493
37.0785
44.5775
53.387
19.6011
19.1642
19.505
20.7578
23.023
26.41
31.0494
37.0786
44.5776
53.387
19.6012
19.1643
19.505
20.7579
23.0231
26.4101
31.0495
37.0787
44.5777
53.3871
19.6012
19.1644
19.5051
20.758
23.0232
26.4102
31.0496
37.0788
44.5778
53.3873
17.4135
17.4087
17.9817
19.2647
21.3559
24.3375
28.2777
33.2093
39.0766
45.6368
17.4134
17.4087
17.9816
19.2646
21.3558
24.3374
28.2775
33.2091
39.0765
45.6367
17.4134
17.4086
17.9815
19.2646
21.3557
24.3373
28.2775
33.209
39.0764
45.6365
17.4133
17.4085
17.9815
19.2645
21.3556
24.3372
28.2774
33.209
39.0763
45.6365
17.4133
17.4085
17.9815
19.2645
21.3556
24.3372
28.2774
33.2089
39.0763
45.6364
17.4133
17.4085
17.9815
19.2645
21.3556
24.3372
28.2773
33.2089
39.0763
45.6364
17.4133
17.4085
17.9815
19.2645
21.3556
24.3372
28.2774
33.209
39.0763
45.6365
17.4134
17.4086
17.9815
19.2646
21.3557
24.3373
28.2774
33.209
39.0764
45.6365
17.4134
17.4086
17.9816
19.2646
21.3558
24.3374
28.2775
33.2091
39.0765
45.6366
17.4135
17.4087
17.9817
19.2647
21.3559
24.3375
28.2776
33.2093
39.0766
45.6368
15.3779
15.649
16.3662
17.6318
19.5228
22.0927
25.3672
29.3271
33.878
38.8118
15.3778
15.649
16.3661
17.6317
19.5226
22.0926
25.3671
29.3269
33.8778
38.8116
15.3777
15.6489
16.366
17.6317
19.5226
22.0925
25.367
29.3268
33.8777
38.8115
15.3777
15.6489
16.366
17.6316
19.5225
22.0924
25.3669
29.3268
33.8777
38.8114
15.3777
15.6488
16.366
17.6316
19.5225
22.0924
25.3669
29.3267
33.8776
38.8114
15.3777
15.6488
16.366
17.6316
19.5225
22.0924
25.3669
29.3267
33.8776
38.8114
15.3777
15.6489
16.366
17.6316
19.5225
22.0924
25.3669
29.3268
33.8777
38.8114
15.3777
15.6489
16.366
17.6316
19.5226
22.0925
25.367
29.3268
33.8777
38.8115
15.3778
15.649
16.3661
17.6317
19.5226
22.0926
25.3671
29.3269
33.8778
38.8116
15.3779
15.649
16.3662
17.6318
19.5227
22.0927
25.3672
29.3271
33.878
38.8118
13.5437
13.9988
14.801
16.021
17.7117
19.9023
22.5918
25.738
29.2453
32.9571
13.5436
13.9987
14.8009
16.0209
17.7116
19.9022
22.5917
25.7379
29.2452
32.957
13.5436
13.9986
14.8008
16.0209
17.7115
19.9021
22.5916
25.7378
29.2451
32.9569
13.5435
13.9986
14.8008
16.0208
17.7114
19.9021
22.5916
25.7378
29.245
32.9568
13.5435
13.9986
14.8008
16.0208
17.7114
19.902
22.5915
25.7377
29.245
32.9568
13.5435
13.9986
14.8008
16.0208
17.7114
19.902
22.5915
25.7377
29.245
32.9568
13.5436
13.9986
14.8008
16.0208
17.7114
19.9021
22.5916
25.7378
29.245
32.9568
13.5436
13.9986
14.8008
16.0209
17.7115
19.9021
22.5916
25.7378
29.2451
32.9569
13.5436
13.9987
14.8009
16.0209
17.7116
19.9022
22.5917
25.7379
29.2452
32.957
13.5437
13.9988
14.801
16.021
17.7117
19.9023
22.5918
25.738
29.2453
32.9571
11.9405
12.5359
13.3955
14.5645
16.0765
17.9431
20.146
22.6314
25.3083
28.0592
11.9404
12.5358
13.3954
14.5644
16.0764
17.943
20.1459
22.6313
25.3082
28.059
11.9404
12.5358
13.3954
14.5643
16.0763
17.9429
20.1458
22.6312
25.3081
28.0589
11.9403
12.5357
13.3953
14.5643
16.0762
17.9428
20.1458
22.6311
25.3081
28.0589
11.9403
12.5357
13.3953
14.5643
16.0762
17.9428
20.1457
22.6311
25.308
28.0589
11.9403
12.5357
13.3953
14.5643
16.0762
17.9428
20.1457
22.6311
25.308
28.0589
11.9403
12.5357
13.3953
14.5643
16.0763
17.9428
20.1458
22.6311
25.3081
28.0589
11.9404
12.5358
13.3954
14.5643
16.0763
17.9429
20.1458
22.6312
25.3081
28.059
11.9404
12.5358
13.3954
14.5644
16.0764
17.943
20.1459
22.6313
25.3082
28.0591
11.9405
12.5359
13.3955
14.5645
16.0765
17.9431
20.146
22.6314
25.3084
28.0592
10.5899
11.3218
12.2369
13.3676
14.7382
16.3497
18.1713
20.1372
22.15
24.1026
10.5898
11.3218
12.2368
13.3675
14.7381
16.3496
18.1712
20.1371
22.1499
24.1024
10.5898
11.3217
12.2368
13.3675
14.7381
16.3495
18.1711
20.137
22.1498
24.1024
10.5898
11.3217
12.2367
13.3674
14.738
16.3494
18.171
20.1369
22.1498
24.1023
10.5897
11.3217
12.2367
13.3674
14.738
16.3494
18.171
20.1369
22.1497
24.1023
10.5897
11.3217
12.2367
13.3674
14.738
16.3494
18.171
20.1369
22.1498
24.1023
10.5898
11.3217
12.2367
13.3674
14.738
16.3495
18.1711
20.137
22.1498
24.1023
10.5898
11.3217
12.2368
13.3675
14.7381
16.3495
18.1711
20.137
22.1498
24.1024
10.5899
11.3218
12.2368
13.3676
14.7382
16.3496
18.1712
20.1371
22.1499
24.1025
10.5899
11.3219
12.2369
13.3676
14.7383
16.3497
18.1713
20.1372
22.1501
24.1026
9.51841
10.4171
11.3997
12.5141
13.7897
15.2242
16.7771
18.3653
19.8613
21.1103
9.51835
10.417
11.3996
12.514
13.7896
15.2241
16.777
18.3652
19.8612
21.1102
9.51831
10.417
11.3996
12.5139
13.7896
15.2241
16.777
18.3651
19.8612
21.1101
9.51828
10.4169
11.3995
12.5139
13.7895
15.224
16.7769
18.365
19.8611
21.1101
9.51827
10.4169
11.3995
12.5139
13.7895
15.224
16.7769
18.365
19.8611
21.1101
9.51827
10.4169
11.3995
12.5139
13.7895
15.224
16.7769
18.365
19.8611
21.1101
9.51829
10.417
11.3995
12.5139
13.7896
15.224
16.7769
18.3651
19.8611
21.1101
9.51832
10.417
11.3996
12.514
13.7896
15.2241
16.777
18.3651
19.8612
21.1102
9.51837
10.417
11.3996
12.514
13.7897
15.2242
16.7771
18.3652
19.8613
21.1103
9.51844
10.4171
11.3997
12.5141
13.7898
15.2243
16.7772
18.3653
19.8614
21.1104
8.80461
9.90346
10.9526
12.0678
13.2972
14.6407
16.0513
17.4278
18.5944
19.2474
8.80456
9.90341
10.9525
12.0677
13.2972
14.6406
16.0512
17.4277
18.5943
19.2474
8.80452
9.90337
10.9525
12.0677
13.2971
14.6405
16.0511
17.4277
18.5942
19.2473
8.8045
9.90334
10.9524
12.0677
13.2971
14.6405
16.0511
17.4276
18.5942
19.2472
8.80448
9.90332
10.9524
12.0676
13.2971
14.6405
16.0511
17.4276
18.5941
19.2472
8.80449
9.90333
10.9524
12.0676
13.2971
14.6405
16.0511
17.4276
18.5942
19.2472
8.80451
9.90335
10.9524
12.0677
13.2971
14.6405
16.0511
17.4277
18.5942
19.2473
8.80454
9.90338
10.9525
12.0677
13.2972
14.6406
16.0512
17.4277
18.5942
19.2473
8.80458
9.90343
10.9525
12.0678
13.2972
14.6406
16.0512
17.4278
18.5943
19.2474
8.80464
9.9035
10.9526
12.0679
13.2973
14.6407
16.0513
17.4279
18.5944
19.2475
93.84
105.294
112.155
116.848
120.245
122.745
124.565
125.838
126.646
127.039
93.8398
105.294
112.155
116.848
120.245
122.745
124.565
125.838
126.646
127.039
93.8397
105.294
112.155
116.848
120.245
122.744
124.565
125.838
126.646
127.039
93.8396
105.294
112.155
116.848
120.245
122.744
124.565
125.838
126.646
127.038
93.8395
105.294
112.155
116.848
120.245
122.744
124.565
125.837
126.646
127.038
93.8395
105.294
112.155
116.848
120.245
122.744
124.565
125.837
126.646
127.038
93.8396
105.294
112.155
116.848
120.245
122.744
124.565
125.838
126.646
127.039
93.8396
105.294
112.155
116.848
120.245
122.744
124.565
125.838
126.646
127.039
93.8398
105.294
112.155
116.848
120.245
122.745
124.565
125.838
126.646
127.039
93.8399
105.294
112.155
116.848
120.245
122.745
124.565
125.838
126.646
127.039
75.6936
85.7317
92.7122
97.6814
101.298
103.948
105.869
107.206
108.053
108.463
75.6934
85.7315
92.712
97.6812
101.297
103.948
105.869
107.206
108.053
108.463
75.6933
85.7314
92.7118
97.6811
101.297
103.948
105.869
107.206
108.053
108.463
75.6932
85.7313
92.7117
97.681
101.297
103.948
105.869
107.206
108.052
108.463
75.6931
85.7312
92.7117
97.6809
101.297
103.948
105.869
107.206
108.052
108.463
75.6931
85.7312
92.7117
97.6809
101.297
103.948
105.869
107.206
108.052
108.463
75.6932
85.7313
92.7117
97.681
101.297
103.948
105.869
107.206
108.052
108.463
75.6932
85.7314
92.7118
97.6811
101.297
103.948
105.869
107.206
108.053
108.463
75.6934
85.7315
92.712
97.6812
101.297
103.948
105.869
107.206
108.053
108.463
75.6935
85.7317
92.7122
97.6814
101.298
103.948
105.869
107.206
108.053
108.464
62.6934
70.5496
76.6621
81.2993
84.7882
87.39
89.2915
90.6215
91.4654
91.8751
62.6933
70.5494
76.6619
81.2991
84.788
87.3898
89.2913
90.6213
91.4652
91.875
62.6931
70.5493
76.6617
81.2989
84.7879
87.3896
89.2911
90.6212
91.4651
91.8748
62.693
70.5492
76.6617
81.2988
84.7878
87.3895
89.291
90.6211
91.465
91.8748
62.693
70.5491
76.6616
81.2988
84.7877
87.3895
89.291
90.6211
91.465
91.8747
62.693
70.5491
76.6616
81.2988
84.7877
87.3895
89.291
90.6211
91.465
91.8747
62.693
70.5492
76.6617
81.2988
84.7878
87.3895
89.2911
90.6211
91.465
91.8748
62.6931
70.5493
76.6618
81.2989
84.7879
87.3896
89.2912
90.6213
91.4652
91.8749
62.6932
70.5494
76.6619
81.2991
84.7881
87.3898
89.2913
90.6214
91.4653
91.8751
62.6934
70.5496
76.6621
81.2993
84.7883
87.39
89.2916
90.6216
91.4656
91.8753
52.3393
58.3768
63.4126
67.4415
70.5854
72.9866
74.7688
76.0277
76.8312
77.2225
52.3392
58.3766
63.4124
67.4414
70.5852
72.9864
74.7686
76.0275
76.831
77.2224
52.3391
58.3765
63.4123
67.4412
70.5851
72.9863
74.7685
76.0274
76.8309
77.2223
52.339
58.3764
63.4122
67.4411
70.585
72.9862
74.7684
76.0273
76.8308
77.2222
52.3389
58.3763
63.4121
67.4411
70.585
72.9861
74.7684
76.0272
76.8308
77.2222
52.3389
58.3763
63.4121
67.4411
70.585
72.9861
74.7684
76.0273
76.8308
77.2222
52.339
58.3764
63.4122
67.4411
70.585
72.9862
74.7684
76.0273
76.8308
77.2223
52.3391
58.3765
63.4123
67.4412
70.5851
72.9863
74.7685
76.0274
76.831
77.2224
52.3392
58.3766
63.4124
67.4414
70.5853
72.9865
74.7687
76.0276
76.8311
77.2226
52.3393
58.3768
63.4126
67.4416
70.5855
72.9867
74.7689
76.0278
76.8314
77.2228
43.7878
48.4067
52.4278
55.7761
58.4748
60.5868
62.1823
63.3231
64.0572
64.4163
43.7877
48.4066
52.4276
55.776
58.4746
60.5866
62.1821
63.323
64.057
64.4162
43.7876
48.4064
52.4275
55.7758
58.4745
60.5865
62.1819
63.3228
64.0569
64.4161
43.7875
48.4064
52.4274
55.7758
58.4744
60.5864
62.1819
63.3227
64.0568
64.416
43.7874
48.4063
52.4274
55.7757
58.4743
60.5863
62.1818
63.3227
64.0568
64.416
43.7874
48.4063
52.4274
55.7757
58.4743
60.5863
62.1818
63.3227
64.0568
64.416
43.7875
48.4064
52.4274
55.7758
58.4744
60.5864
62.1819
63.3228
64.0569
64.4161
43.7876
48.4065
52.4275
55.7759
58.4745
60.5865
62.182
63.3229
64.057
64.4162
43.7877
48.4066
52.4277
55.776
58.4746
60.5867
62.1822
63.3231
64.0571
64.4164
43.7878
48.4068
52.4278
55.7762
58.4748
60.5869
62.1824
63.3233
64.0574
64.4166
36.6674
40.1653
43.298
45.9883
48.2181
50.0041
51.3778
52.3731
53.0193
53.3372
36.6672
40.1651
43.2979
45.9882
48.218
50.0039
51.3776
52.373
53.0192
53.337
36.6671
40.165
43.2978
45.988
48.2178
50.0038
51.3775
52.3728
53.0191
53.3369
36.6671
40.165
43.2977
45.988
48.2178
50.0037
51.3774
52.3728
53.019
53.3369
36.667
40.1649
43.2976
45.9879
48.2177
50.0037
51.3774
52.3727
53.019
53.3369
36.667
40.1649
43.2977
45.9879
48.2177
50.0037
51.3774
52.3728
53.019
53.3369
36.6671
40.165
43.2977
45.988
48.2178
50.0037
51.3774
52.3728
53.0191
53.3369
36.6671
40.1651
43.2978
45.9881
48.2179
50.0038
51.3775
52.3729
53.0192
53.3371
36.6673
40.1652
43.2979
45.9882
48.218
50.004
51.3777
52.3731
53.0193
53.3372
36.6674
40.1653
43.2981
45.9884
48.2182
50.0042
51.3779
52.3733
53.0195
53.3374
30.7666
33.3452
35.7116
37.8023
39.5822
41.0407
42.1833
43.0227
43.5729
43.8451
30.7665
33.345
35.7115
37.8022
39.582
41.0406
42.1832
43.0226
43.5728
43.845
30.7664
33.3449
35.7114
37.8021
39.5819
41.0405
42.1831
43.0225
43.5727
43.8449
30.7663
33.3449
35.7113
37.802
39.5819
41.0404
42.183
43.0224
43.5726
43.8448
30.7663
33.3448
35.7113
37.802
39.5818
41.0404
42.183
43.0224
43.5726
43.8448
30.7663
33.3448
35.7113
37.802
39.5818
41.0404
42.183
43.0224
43.5726
43.8448
30.7663
33.3449
35.7113
37.802
39.5819
41.0404
42.183
43.0225
43.5727
43.8449
30.7664
33.345
35.7114
37.8021
39.582
41.0405
42.1831
43.0226
43.5728
43.845
30.7665
33.3451
35.7115
37.8023
39.5821
41.0407
42.1833
43.0227
43.5729
43.8451
30.7667
33.3452
35.7117
37.8024
39.5823
41.0408
42.1834
43.0229
43.5731
43.8453
25.9348
27.7166
29.4175
30.9778
32.3488
33.5011
34.4216
35.1079
35.5623
35.7884
25.9346
27.7165
29.4173
30.9777
32.3486
33.5009
34.4215
35.1078
35.5622
35.7883
25.9345