/*--------------------------------*- C++ -*----------------------------------*\
  =========                 |
  \\      /  F ield         | OpenFOAM: The Open Source CFD Toolbox
   \\    /   O peration     | Website:  https://openfoam.org
    \\  /    A nd           | Version:  6
     \\/     M anipulation  |
\*---------------------------------------------------------------------------*/
FoamFile
{
    version     2.0;
    format      ascii;
    class       volScalarField;
    location    "500";
    object      p;
}
// * * * * * * * * * * * * * * * * * * * * * * * * * * * * * * * * * * * * * //

dimensions      [0 2 -2 0 0 0 0];

internalField   nonuniform List<scalar> 
7000
(
0.0409029
0.0386721
0.0381586
0.0379413
0.0378452
0.0378788
0.038039
0.0383107
0.0388666
0.0411531
0.0386736
0.0364442
0.0359344
0.035721
0.0356294
0.0356682
0.0358339
0.0361105
0.0366696
0.0389639
0.0381615
0.0359356
0.0354278
0.0352174
0.0351296
0.0351727
0.0353429
0.0356235
0.0361864
0.0384846
0.0379456
0.0357229
0.035218
0.0350116
0.0349287
0.0349775
0.0351534
0.0354394
0.0360069
0.0383116
0.0378503
0.0356313
0.0351297
0.0349279
0.0348509
0.0349063
0.0350892
0.0353816
0.0359547
0.0382673
0.037884
0.0356688
0.0351706
0.0349735
0.0349027
0.0349652
0.0351554
0.0354545
0.0360335
0.0383545
0.0380433
0.0358317
0.0353367
0.0351441
0.035079
0.0351482
0.0353453
0.035651
0.0362357
0.0385644
0.0383133
0.0361045
0.0356121
0.0354232
0.0353629
0.0354376
0.0356406
0.0359518
0.0365415
0.038877
0.0388673
0.0366595
0.0361692
0.0359831
0.0359265
0.0360054
0.0362129
0.0365284
0.0371218
0.0394634
0.0411509
0.0389474
0.0384584
0.0382756
0.0382235
0.0383074
0.0385202
0.0388411
0.0394399
0.0417844
0.0379562
0.0365546
0.0365839
0.0363706
0.0362731
0.0363076
0.0364713
0.0367413
0.0367499
0.0382121
0.0365549
0.0351557
0.0351908
0.0349811
0.0348886
0.0349289
0.035099
0.0353756
0.0353857
0.0368563
0.0365863
0.0351927
0.0352289
0.0350223
0.0349337
0.0349786
0.0351535
0.0354346
0.0354493
0.0369225
0.0363746
0.0349839
0.035023
0.0348211
0.0347381
0.0347894
0.0349712
0.0352586
0.0352785
0.0367605
0.0362781
0.0348912
0.0349337
0.034737
0.0346606
0.0347194
0.0349092
0.0352043
0.0352305
0.0367222
0.0363128
0.0349299
0.0349759
0.0347845
0.0347149
0.0347817
0.0349799
0.0352831
0.0353159
0.0368175
0.0364757
0.0350967
0.0351461
0.0349596
0.0348965
0.0349707
0.0351768
0.0354878
0.0355268
0.0370377
0.0367444
0.035369
0.035421
0.0352386
0.0351808
0.0352613
0.0354742
0.0357921
0.0358367
0.0373548
0.0367525
0.0353762
0.035431
0.0352515
0.0351975
0.0352823
0.0354999
0.0358227
0.0358704
0.0373966
0.0382105
0.0368376
0.0368916
0.0367162
0.036667
0.0367572
0.0369805
0.0373083
0.0373631
0.0388938
0.0354973
0.0346923
0.0350454
0.0348487
0.0348082
0.0348439
0.0349533
0.0352097
0.034889
0.0357597
0.0346924
0.0338945
0.0342562
0.0340632
0.0340295
0.0340731
0.0341908
0.0344573
0.0341379
0.0350166
0.0350484
0.0342588
0.0346206
0.0344315
0.0344023
0.0344513
0.0345751
0.0348471
0.0345341
0.0354156
0.0348536
0.0340666
0.0344321
0.0342488
0.0342266
0.0342838
0.0344166
0.0346973
0.034391
0.0352865
0.0348146
0.0340326
0.0344018
0.0342248
0.0342107
0.0342775
0.0344209
0.0347121
0.0344141
0.0353238
0.0348512
0.0340741
0.0344473
0.0342767
0.034271
0.0343478
0.0345021
0.0348043
0.034515
0.0354396
0.0349605
0.0341877
0.0345646
0.0344001
0.0344024
0.0344885
0.0346531
0.0349657
0.0346847
0.0356233
0.035216
0.0344487
0.0348283
0.0346687
0.0346775
0.0347715
0.0349448
0.0352665
0.0349929
0.0359411
0.0348973
0.0341271
0.0345105
0.0343538
0.034367
0.0344661
0.0346449
0.0349728
0.0347022
0.0356639
0.0357638
0.0349938
0.0353746
0.0352239
0.0352427
0.0353485
0.035535
0.0358686
0.0356097
0.0365799
0.0342114
0.0336361
0.0340103
0.0338006
0.03383
0.0338671
0.0339089
0.0341815
0.0338354
0.0344782
0.0336369
0.0330728
0.0334574
0.0332522
0.0332919
0.03334
0.0333932
0.0336811
0.0333387
0.033994
0.0340156
0.0334613
0.0338456
0.0336458
0.0336914
0.0337469
0.0338086
0.0341045
0.0337718
0.0344343
0.0338087
0.0332574
0.0336468
0.0334546
0.0335096
0.0335766
0.0336514
0.0339606
0.0336378
0.034323
0.0338414
0.0332973
0.0336913
0.0335074
0.0335732
0.0336536
0.0337435
0.0340686
0.0337588
0.0344665
0.0338813
0.0333435
0.0337425
0.033567
0.0336442
0.0337383
0.033844
0.0341858
0.0338895
0.0346215
0.0339249
0.033392
0.0337958
0.0336282
0.033716
0.033823
0.0339433
0.0343008
0.0340172
0.0347727
0.0341987
0.0336733
0.0340801
0.033919
0.0340155
0.0341333
0.0342659
0.0346366
0.034365
0.0351357
0.0338579
0.0333293
0.0337413
0.0335836
0.0336858
0.0338103
0.0339505
0.0343308
0.0340634
0.034851
0.0345005
0.0339701
0.0343793
0.03423
0.0343387
0.0344722
0.0346235
0.0350114
0.0347572
0.0355612
0.0332947
0.032828
0.0331462
0.0329204
0.0329959
0.0330336
0.03303
0.0333208
0.0330236
0.0335558
0.0328304
0.032379
0.0327088
0.0324893
0.0325795
0.032633
0.0326457
0.0329592
0.0326722
0.033225
0.0331555
0.0327147
0.0330443
0.0328324
0.0329306
0.0329946
0.03302
0.0333458
0.0330737
0.0336423
0.0329349
0.0324982
0.0328347
0.0326328
0.0327444
0.032825
0.0328698
0.0332165
0.0329603
0.0335659
0.033017
0.0325902
0.0329328
0.0327423
0.032869
0.0329688
0.0330363
0.0334076
0.0331727
0.033816
0.0330616
0.032643
0.0329921
0.0328132
0.0329555
0.0330752
0.0331663
0.0335636
0.0333511
0.0340362
0.0330643
0.0326514
0.033007
0.0328387
0.0329955
0.0331336
0.0332464
0.0336681
0.0334768
0.0342015
0.0333605
0.0329573
0.0333166
0.0331571
0.0333259
0.0334791
0.0336098
0.0340516
0.0338793
0.0346295
0.0330761
0.0326707
0.0330368
0.0328814
0.0330579
0.0332204
0.033362
0.0338176
0.0336527
0.0344289
0.0336163
0.0332076
0.0335718
0.0334273
0.0336116
0.0337861
0.0339431
0.034409
0.0342636
0.0350573
0.0322635
0.0319048
0.0321949
0.0319752
0.0320761
0.0321122
0.032079
0.0323606
0.0320808
0.0324867
0.03191
0.0315714
0.0318746
0.0316643
0.0317854
0.0318439
0.0318345
0.0321494
0.0318887
0.0323339
0.0322105
0.0318836
0.0321872
0.031987
0.0321192
0.0321927
0.0322023
0.0325364
0.0322978
0.0327753
0.032
0.0316789
0.0319917
0.031805
0.0319559
0.0320534
0.0320919
0.032459
0.0322471
0.0327854
0.0321135
0.0318055
0.0321263
0.0319549
0.032127
0.0322523
0.0323248
0.0327309
0.0325543
0.0331589
0.0321636
0.0318663
0.0321958
0.0320402
0.032234
0.032388
0.032496
0.0329436
0.0328059
0.0334839
0.0321452
0.0318551
0.0321931
0.0320517
0.0322655
0.0324456
0.0325862
0.0330729
0.0329713
0.0337191
0.0324415
0.0321632
0.0325061
0.0323766
0.0326066
0.032808
0.0329751
0.0334926
0.0334227
0.0342162
0.0321864
0.0319069
0.0322581
0.0321341
0.0323745
0.0325888
0.0327713
0.0333104
0.0332544
0.0340797
0.0326242
0.0323402
0.032691
0.0325801
0.0328303
0.0330599
0.0332632
0.0338174
0.0337796
0.0346327
0.0311377
0.0308783
0.0311525
0.0309516
0.0310654
0.0310958
0.0310369
0.0312891
0.0310003
0.0312648
0.0308874
0.0306538
0.0309429
0.0307558
0.0308967
0.0309581
0.0309337
0.0312331
0.0309798
0.0313127
0.0311768
0.0309562
0.0312469
0.0310731
0.031229
0.0313116
0.0313148
0.0316438
0.0314244
0.0318165
0.0309915
0.0307794
0.0310821
0.0309262
0.031108
0.0312248
0.0312708
0.0316511
0.0314757
0.0319693
0.0311272
0.0309317
0.0312448
0.0311097
0.0313207
0.0314772
0.0315741
0.0320155
0.0318985
0.0325113
0.0311836
0.0310017
0.0313262
0.031212
0.031453
0.0316504
0.0318006
0.032308
0.0322582
0.0330071
0.0311543
0.0309814
0.0313171
0.0312216
0.0314895
0.0317238
0.0319225
0.0324916
0.0325065
0.0333835
0.0314367
0.0312775
0.0316195
0.0315396
0.0318289
0.0320924
0.0323292
0.0329458
0.0330134
0.0339711
0.0311975
0.031039
0.0313905
0.0313175
0.0316202
0.0319009
0.0321595
0.0328061
0.032896
0.0339067
0.0315417
0.0313762
0.0317287
0.0316707
0.0319851
0.0322848
0.032569
0.0332347
0.0333543
0.0343867
0.0300191
0.0298314
0.030079
0.0298949
0.0300093
0.0300274
0.0299406
0.0301485
0.0298485
0.0299237
0.0298455
0.0296892
0.0299537
0.0297888
0.0299382
0.0299978
0.0299594
0.0302336
0.0299887
0.0301972
0.0301145
0.0299722
0.0302397
0.0300917
0.0302609
0.0303493
0.0303499
0.0306694
0.0304766
0.0308004
0.0299546
0.0298243
0.030107
0.0299822
0.0301863
0.0303224
0.0303851
0.030784
0.0306641
0.0311644
0.0301045
0.0299945
0.0302904
0.0301928
0.0304362
0.0306278
0.0307653
0.0312593
0.0312392
0.0319503
0.030167
0.0300738
0.0303841
0.0303136
0.030597
0.0308458
0.0310618
0.0316621
0.0317632
0.0327383
0.0301343
0.0300525
0.0303767
0.0303299
0.0306487
0.0309482
0.0312351
0.0319347
0.0321567
0.0333923
0.0304018
0.0303354
0.0306675
0.0306403
0.0309863
0.0313244
0.0316649
0.0324375
0.0327482
0.0341407
0.0301882
0.0301239
0.0304666
0.0304479
0.0308107
0.031171
0.0315403
0.0323563
0.0327047
0.0341507
0.0304639
0.0303914
0.0307367
0.0307344
0.0311106
0.0314926
0.0318921
0.0327334
0.0331027
0.0345586
0.028912
0.0287722
0.0289847
0.0288122
0.0289148
0.0289111
0.0287875
0.0289377
0.0286081
0.0284007
0.0287921
0.0286892
0.0289206
0.0287734
0.0289194
0.028969
0.0289095
0.029145
0.0288955
0.0289204
0.0290332
0.0289454
0.0291814
0.0290547
0.029226
0.0293134
0.0293068
0.0296083
0.0294367
0.0296772
0.0288962
0.0288243
0.0290787
0.0289816
0.0291985
0.0293505
0.0294324
0.0298532
0.0298005
0.0303425
0.0290527
0.0290048
0.0292755
0.0292129
0.0294811
0.0297086
0.0298975
0.0304654
0.030574
0.0314757
0.0291205
0.0290926
0.029381
0.0293523
0.0296723
0.0299772
0.0302796
0.0310138
0.0313348
0.0327473
0.0290906
0.0290764
0.0293813
0.0293815
0.0297463
0.0301186
0.0305214
0.0314095
0.0319589
0.0339264
0.0293448
0.0293473
0.0296615
0.029685
0.0300825
0.0305034
0.0309774
0.0319707
0.0326749
0.0349483
0.0291627
0.0291692
0.0294947
0.0295278
0.0299446
0.0303913
0.0309003
0.0319475
0.032693
0.0350205
0.0293923
0.0293883
0.0297174
0.0297667
0.0301968
0.0306654
0.0312037
0.0322711
0.0330508
0.0353333
0.0277813
0.0276767
0.0278546
0.0276913
0.0277722
0.0277367
0.0275598
0.0276139
0.0272496
0.0264625
0.0277022
0.0276396
0.027838
0.0277062
0.0278382
0.0278661
0.0277662
0.0279199
0.0276456
0.0272738
0.027916
0.0278692
0.0280737
0.0279656
0.0281279
0.0282025
0.0281706
0.0284154
0.0282556
0.028362
0.0278008
0.0277739
0.0279998
0.0279278
0.0281473
0.0283061
0.0283953
0.0288138
0.028858
0.0295025
0.0279579
0.0279583
0.0282035
0.0281732
0.0284566
0.0287137
0.028949
0.0295852
0.0298982
0.0310701
0.0280292
0.0280525
0.028318
0.028328
0.0286751
0.0290323
0.0294243
0.0303093
0.0310071
0.0331637
0.0280044
0.0280433
0.0283273
0.0283705
0.0287708
0.0292122
0.0297388
0.0308579
0.0319941
0.0354457
0.0282429
0.0282989
0.028593
0.0286617
0.0290983
0.0295953
0.0302077
0.0314689
0.0328673
0.036966
0.02809
0.0281508
0.0284559
0.0285345
0.0289908
0.0295143
0.0301608
0.0314738
0.0329186
0.0368531
0.0282823
0.0283309
0.0286401
0.028733
0.0292004
0.0297414
0.0304085
0.0317364
0.0332082
0.0368695
0.0266053
0.026529
0.0266761
0.0265216
0.0265744
0.0264986
0.0262514
0.026146
0.0257382
0.0246148
0.0265584
0.0265288
0.0266976
0.0265797
0.0266892
0.0266817
0.0265124
0.0264942
0.0260461
0.0251825
0.0267477
0.0267342
0.02691
0.0268183
0.0269623
0.0270087
0.0269211
0.0270209
0.0266779
0.0263815
0.0266533
0.0266634
0.0268632
0.0268138
0.0270265
0.0271782
0.0272492
0.0275936
0.0275488
0.0280185
0.0268067
0.0268466
0.0270679
0.0270664
0.0273547
0.0276274
0.0278875
0.0285269
0.0288905
0.0301487
0.026879
0.0269438
0.0271872
0.0272311
0.0275926
0.0279863
0.0284475
0.0294257
0.0303319
0.033211
0.0268591
0.0269403
0.0272029
0.0272821
0.0277019
0.0281921
0.0288216
0.0301083
0.0316348
0.0369907
0.0270794
0.0271769
0.027449
0.0275536
0.0280085
0.028554
0.0292708
0.0307063
0.0325816
0.0390884
0.0269494
0.0270525
0.0273346
0.0274473
0.0279187
0.0284837
0.0292171
0.0306676
0.0325362
0.0384844
0.0271104
0.0271972
0.0274823
0.0276043
0.0280795
0.0286502
0.0293849
0.0308142
0.0326895
0.0383772
0.0253873
0.0253356
0.0254571
0.0253142
0.0253413
0.0252275
0.0249203
0.0246442
0.0241548
0.0236926
0.025365
0.0253636
0.0255066
0.0254036
0.0254883
0.0254368
0.0251758
0.0249018
0.023942
0.021967
0.0255306
0.0255448
0.025695
0.0256187
0.0257395
0.0257441
0.0255628
0.0253983
0.024349
0.0216853
0.025454
0.0254947
0.0256702
0.0256409
0.0258396
0.0259678
0.0259811
0.0261271
0.0254298
0.0234475
0.0255992
0.0256707
0.0258686
0.0258909
0.0261723
0.0264378
0.026678
0.0271885
0.02708
0.0267697
0.0256693
0.0257661
0.0259858
0.0260549
0.0264126
0.0268072
0.0272694
0.0281658
0.0286149
0.0304904
0.0256521
0.0257647
0.0260022
0.0261045
0.0265171
0.0270032
0.0276279
0.0288211
0.0296807
0.0339362
0.0258512
0.0259776
0.0262224
0.0263454
0.0267836
0.0273066
0.0279811
0.0292325
0.0301708
0.035058
0.0257399
0.0258707
0.0261226
0.0262493
0.0266947
0.0272195
0.0278724
0.0290425
0.029824
0.0339834
0.0258705
0.0259813
0.0262339
0.0263622
0.0267998
0.027313
0.0279428
0.0290477
0.029914
0.0341519
0.0241284
0.0240999
0.024202
0.0240778
0.0240926
0.0239585
0.0236242
0.0232283
0.0223648
0.0211674
0.0241227
0.0241468
0.0242688
0.0241848
0.0242534
0.024169
0.0238294
0.0233409
0.0219496
0.0183498
0.0242643
0.0243024
0.0244305
0.0243719
0.0244754
0.0244469
0.024182
0.023819
0.0225418
0.0182545
0.0242011
0.0242673
0.0244208
0.0244118
0.0245992
0.0247086
0.0246751
0.0247223
0.0240121
0.0212217
0.0243339
0.0244303
0.0246049
0.0246476
0.0249183
0.0251708
0.0253915
0.0258831
0.0258652
0.0259583
0.0243981
0.0245182
0.0247123
0.0247981
0.0251384
0.0255078
0.0259308
0.0267821
0.0271695
0.029807
0.0243811
0.0245144
0.0247223
0.0248338
0.025214
0.0256434
0.0261584
0.0271601
0.0274499
0.0312008
0.0245582
0.0247009
0.0249116
0.0250343
0.0254204
0.0258461
0.0263207
0.0271767
0.0269455
0.0293851
0.0244617
0.0246076
0.0248217
0.0249412
0.02532
0.0257185
0.0261143
0.0267567
0.0260592
0.0268815
0.0245663
0.0246863
0.0248972
0.0250086
0.0253649
0.0257298
0.0260822
0.0266306
0.0259502
0.0270226
0.0228346
0.0228314
0.0229237
0.0228322
0.0228634
0.0227545
0.0224529
0.0220781
0.0211735
0.0193947
0.0228385
0.0228883
0.0229972
0.0229438
0.023023
0.0229567
0.0226274
0.0221121
0.020921
0.0167264
0.0229555
0.0230164
0.0231292
0.0230981
0.0232099
0.0232041
0.0229743
0.0226475
0.0219191
0.0178593
0.022901
0.0229902
0.0231267
0.0231454
0.0233432
0.0234855
0.02352
0.0237033
0.023683
0.0218587
0.0230175
0.0231342
0.0232886
0.0233547
0.0236297
0.0239072
0.0241944
0.0248813
0.0254295
0.026912
0.0230724
0.0232091
0.0233783
0.0234789
0.0238075
0.0241724
0.0246039
0.0255902
0.0262602
0.0299901
0.0230527
0.0231983
0.0233752
0.0234893
0.0238329
0.0242084
0.0246201
0.0255525
0.0256313
0.0287348
0.0232058
0.0233552
0.023529
0.0236412
0.0239641
0.0242826
0.0245379
0.025094
0.0241387
0.0238227
0.0231213
0.0232709
0.0234434
0.023544
0.0238424
0.0240997
0.024218
0.0244545
0.022805
0.020393
0.0231995
0.0233181
0.0234833
0.0235652
0.0238256
0.0240249
0.0240814
0.0242112
0.0225692
0.0209661
0.0215031
0.0215281
0.0216208
0.0215776
0.0216606
0.0216431
0.0214725
0.0212796
0.0207444
0.0187645
0.0215098
0.0215861
0.0216903
0.0216805
0.021802
0.0218224
0.021628
0.0212456
0.0206697
0.0166856
0.0216015
0.0216848
0.0217895
0.021797
0.0219462
0.0220302
0.0219672
0.0218361
0.0219246
0.0193958
0.0215513
0.0216612
0.0217863
0.0218407
0.0220733
0.0223051
0.0225144
0.022966
0.0237571
0.0244613
0.0216482
0.021781
0.021919
0.0220131
0.0223109
0.0226604
0.0230925
0.0240788
0.0253134
0.0293272
0.0216907
0.0218384
0.0219849
0.0221022
0.0224331
0.0228366
0.0233472
0.0245564
0.025733
0.0309793
0.0216659
0.021817
0.0219642
0.022081
0.0223996
0.0227638
0.0231454
0.024107
0.0243793
0.0271126
0.0217952
0.0219438
0.0220817
0.0221833
0.0224552
0.0227144
0.0228416
0.0232547
0.0222797
0.0203684
0.0217202
0.0218671
0.0219999
0.022083
0.0223171
0.0224906
0.0224444
0.0225041
0.0208289
0.0168171
0.0217764
0.0218868
0.0220088
0.0220646
0.0222501
0.0223469
0.0222246
0.0222057
0.0204837
0.0175601
0.0201382
0.0201932
0.0202948
0.0203127
0.0204767
0.0206123
0.0206757
0.020789
0.0208785
0.0187291
0.020142
0.0202439
0.0203494
0.0203915
0.0205765
0.0207289
0.020765
0.0205919
0.0205764
0.016999
0.0202084
0.0203116
0.0204127
0.020464
0.0206654
0.020869
0.0210426
0.0211259
0.021632
0.0207454
0.0201586
0.0202852
0.0204016
0.0204934
0.0207682
0.0211084
0.0215289
0.0222428
0.0234603
0.0273567
0.020234
0.0203775
0.0205008
0.0206222
0.0209475
0.0213883
0.0219916
0.0232877
0.0252212
0.0329818
0.0202624
0.0204152
0.0205408
0.0206751
0.0210158
0.0214873
0.0221223
0.0236035
0.0256388
0.0336575
0.0202312
0.0203822
0.0205026
0.0206256
0.020933
0.0213321
0.0217733
0.0228598
0.0238522
0.0275213
0.0203367
0.0204798
0.0205864
0.0206848
0.0209289
0.0211974
0.0213425
0.0218058
0.0215316
0.0198824
0.02027
0.0204095
0.0205087
0.0205855
0.0207873
0.0209633
0.0209308
0.0210862
0.0201525
0.0163613
0.0203049
0.0204045
0.0204916
0.0205356
0.0206848
0.0207746
0.0206529
0.0207691
0.0196436
0.016526
0.0187378
0.0188199
0.0189326
0.0190139
0.0192685
0.019589
0.0199593
0.0204866
0.0216529
0.0199007
0.0187328
0.0188543
0.0189601
0.0190497
0.019294
0.0195777
0.0198699
0.0199658
0.0205489
0.0173667
0.0187738
0.0188894
0.0189841
0.0190707
0.0193108
0.0196086
0.019988
0.0202816
0.0206451
0.020354
0.0187212
0.0188549
0.0189582
0.0190746
0.0193703
0.0197809
0.0203614
0.0212776
0.0221829
0.0280968
0.0187737
0.0189173
0.0190207
0.0191558
0.0194861
0.0199884
0.0207396
0.0222545
0.0245221
0.0363186
0.0187873
0.0189347
0.019035
0.0191754
0.0195094
0.0200359
0.0208148
0.0224911
0.0254586
0.0376145
0.0187494
0.018891
0.0189823
0.0191054
0.0193954
0.0198355
0.0203983
0.0216109
0.0235116
0.0296065
0.0188336
0.0189633
0.0190391
0.0191342
0.0193568
0.0196654
0.0199417
0.0205738
0.0213194
0.0216516
0.018775
0.0189017
0.0189709
0.0190468
0.0192341
0.0194663
0.0195859
0.0200037
0.0202567
0.0183311
0.0187946
0.0188797
0.0189382
0.0189814
0.0191229
0.019277
0.019295
0.0197253
0.019759
0.0174811
0.0173052
0.0174054
0.0175237
0.017657
0.0179891
0.0184945
0.0192353
0.0203198
0.0234613
0.0247758
0.0172873
0.017416
0.0175135
0.0176322
0.01791
0.0182921
0.0188402
0.0193482
0.0211768
0.0198964
0.0173042
0.0174183
0.0174968
0.0175964
0.0178393
0.0181693
0.018673
0.019224
0.0195465
0.0188559
0.0172467
0.0173722
0.0174508
0.017565
0.0178337
0.0182279
0.0188329
0.0198034
0.0197082
0.0249778
0.0172766
0.0174045
0.0174761
0.0175973
0.0178811
0.0183533
0.0191248
0.0205551
0.0220873
0.0361809
0.0172761
0.0174031
0.0174677
0.0175897
0.0178716
0.018371
0.0192037
0.0207704
0.0237639
0.0395369
0.0172328
0.0173517
0.017406
0.0175105
0.0177492
0.0181656
0.0188052
0.0199725
0.0221689
0.0310164
0.0172979
0.0174033
0.0174436
0.0175232
0.0177045
0.0180149
0.0184399
0.0192034
0.0207052
0.0241882
0.0172479
0.0173523
0.0173893
0.0174578
0.0176215
0.017896
0.018222
0.0189037
0.0203875
0.0218344
0.0172551
0.0173195
0.017351
0.017393
0.0175284
0.017762
0.0179968
0.0187832
0.0204558
0.0208367
0.0158428
0.0159462
0.0160585
0.0162203
0.0165917
0.0172314
0.0183658
0.0199434
0.0253053
0.0374992
0.0158089
0.0159273
0.0160033
0.0161238
0.0163934
0.0168169
0.0176074
0.0185503
0.0222815
0.0303179
0.0158035
0.0158984
0.0159469
0.0160288
0.0162262
0.0165117
0.017032
0.0178218
0.0189423
0.0226421
0.0157399
0.0158377
0.0158756
0.0159508
0.016127
0.0163756
0.0167823
0.0175788
0.0163309
0.0216557
0.0157483
0.0158402
0.015863
0.0159302
0.0160911
0.0163643
0.016885
0.0177508
0.0168465
0.0308965
0.015735
0.015822
0.0158347
0.0158993
0.0160534
0.016351
0.0169704
0.0178717
0.0187011
0.0357854
0.0156878
0.0157661
0.0157694
0.0158203
0.0159425
0.0161808
0.0166698
0.0173659
0.0184804
0.0303539
0.0157375
0.0158027
0.0157962
0.0158312
0.0159197
0.016106
0.0165063
0.017134
0.0184276
0.0266865
0.0156968
0.0157652
0.0157613
0.0157986
0.0158953
0.0161087
0.0165197
0.0172454
0.0191767
0.0272021
0.0156977
0.0157302
0.0157292
0.0157533
0.0158505
0.0160963
0.0165113
0.0174466
0.020444
0.028646
0.0143591
0.014447
0.0145355
0.0146871
0.0150284
0.0156482
0.017017
0.0188855
0.0234709
0.0478578
0.0143088
0.014398
0.0144373
0.0145255
0.0147349
0.0151003
0.0160655
0.0175269
0.0220214
0.0462195
0.0142853
0.0143429
0.0143482
0.0143815
0.0144883
0.0146486
0.015119
0.0163022
0.0183124
0.0342216
0.014216
0.0142674
0.0142502
0.0142506
0.014276
0.0142528
0.0142754
0.0149488
0.0122116
0.0196653
0.0142052
0.0142421
0.0142011
0.0141738
0.0141398
0.0140301
0.013976
0.0140752
0.00835071
0.0154459
0.0141814
0.0142098
0.0141563
0.0141214
0.014073
0.0139652
0.0139964
0.0138324
0.00889554
0.0181925
0.0141324
0.0141529
0.0140923
0.0140498
0.0139894
0.0138678
0.0138833
0.0138294
0.0110979
0.022016
0.0141695
0.0141791
0.0141143
0.0140689
0.0140081
0.0139077
0.0139947
0.0143488
0.013386
0.0255174
0.0141386
0.0141562
0.0141003
0.0140724
0.0140474
0.0140394
0.0142838
0.0149442
0.0152874
0.0302024
0.0141365
0.014125
0.0140824
0.0140612
0.0140703
0.0141838
0.0146128
0.0155239
0.0173276
0.0338938
0.0233202
0.0236586
0.0219969
0.0195562
0.0175885
0.016873
0.0171584
0.0176408
0.0184412
0.017312
0.0231681
0.0234991
0.0225017
0.0201354
0.0174896
0.0162918
0.0167532
0.0178061
0.0191818
0.0188435
0.0245426
0.0269203
0.0266619
0.0232521
0.0193021
0.0172064
0.017283
0.0185426
0.0203286
0.020482
0.0269576
0.0307741
0.0303152
0.0254338
0.0204828
0.0180004
0.0179933
0.019433
0.0215957
0.0222754
0.0298164
0.0340544
0.0326313
0.0266431
0.02113
0.0184835
0.018522
0.0202207
0.0228243
0.0239579
0.0339319
0.0368407
0.0338799
0.027342
0.0219036
0.0192885
0.019357
0.0211855
0.0240053
0.0254729
0.0381463
0.0383494
0.0337473
0.027282
0.0222508
0.0198314
0.0199888
0.0219014
0.0247694
0.026376
0.0403724
0.0387477
0.0337145
0.027858
0.0230562
0.0204796
0.020427
0.0222199
0.0250124
0.0266297
0.039563
0.0388485
0.0337146
0.0276116
0.0228951
0.0206713
0.0208797
0.0224855
0.0247703
0.0258484
0.0392683
0.0390718
0.0344321
0.0283204
0.0239284
0.0221282
0.022292
0.023142
0.0242978
0.023852
0.0222924
0.0205808
0.0184677
0.0161828
0.0144642
0.014213
0.0153601
0.0168034
0.0182375
0.0197702
0.0195516
0.0192001
0.0179126
0.0154316
0.0129511
0.0122444
0.0132827
0.0155078
0.0182366
0.0201162
0.0197308
0.0216117
0.0209859
0.0177476
0.0146169
0.0135109
0.0140251
0.0158329
0.0186325
0.0204497
0.0230971
0.0252398
0.0242588
0.0196226
0.0159942
0.0146452
0.0149034
0.0165368
0.0195102
0.021702
0.0272611
0.0280484
0.0260255
0.0209309
0.0170904
0.0154762
0.0156423
0.0173666
0.0207363
0.0235044
0.0312297
0.0300963
0.0267135
0.0219871
0.0181648
0.0162415
0.0163048
0.0182408
0.0220742
0.0252978
0.0343885
0.030809
0.0269853
0.0226078
0.0189444
0.0168876
0.0168228
0.0188417
0.0228452
0.02608
0.0348495
0.0304778
0.0271303
0.0230075
0.019353
0.0173042
0.017242
0.019162
0.0230444
0.0260545
0.0338552
0.0299568
0.0258768
0.0214495
0.0180006
0.0165135
0.0171259
0.0195682
0.0235077
0.0265547
0.035054
0.03183
0.02698
0.0221172
0.018975
0.018293
0.0197493
0.0220722
0.0243876
0.0263349
0.0201577
0.0182421
0.0169169
0.0154413
0.0134943
0.0125866
0.013413
0.0152351
0.0169041
0.0181478
0.0162291
0.0166092
0.0156818
0.0132652
0.0107401
0.0104734
0.0115763
0.0136618
0.0164141
0.0176534
0.0168702
0.0181954
0.0172134
0.0136382
0.0112985
0.0113882
0.0123973
0.0141235
0.0165892
0.0174743
0.0215558
0.021573
0.0195159
0.0150099
0.0127035
0.01255
0.0133764
0.0148693
0.0172561
0.0184646
0.0266748
0.0237836
0.0209599
0.0166657
0.014101
0.0134695
0.0141529
0.01571
0.0184162
0.0202328
0.0295293
0.0250789
0.0221151
0.0184508
0.015467
0.0141726
0.0145355
0.0162153
0.0194782
0.0219262
0.0294627
0.0257257
0.0226963
0.0191892
0.0162455
0.0147352
0.0148659
0.0165457
0.0200486
0.0226902
0.0266738
0.0244148
0.0219736
0.01855
0.0157556
0.0144699
0.0148216
0.0166628
0.0202717
0.0228457
0.0250045
0.0224046
0.0198293
0.0164807
0.0139985
0.0131897
0.0140891
0.0166707
0.0209337
0.023819
0.0275643
0.0242815
0.020906
0.0177415
0.0155327
0.0150025
0.0165727
0.0196508
0.0227186
0.0244842
0.0189924
0.0173849
0.0168129
0.0155819
0.0125582
0.0110106
0.0113823
0.0129614
0.0144275
0.0145165
0.0151036
0.0156918
0.0152964
0.0124886
0.0096024
0.00948923
0.0103932
0.0119326
0.0141419
0.0142916
0.016888
0.0168721
0.0152498
0.0108662
0.00917939
0.0097827
0.0109795
0.0125739
0.014548
0.0143658
0.0211006
0.0199925
0.0164424
0.0117348
0.0101916
0.0105974
0.0118576
0.0133353
0.0151095
0.0151549
0.0247483
0.0215389
0.017765
0.0133905
0.0113391
0.0112923
0.0123827
0.0138605
0.0158893
0.0165562
0.0261715
0.0226243
0.0192306
0.015233
0.0125293
0.0117774
0.0124978
0.0139663
0.0164115
0.0177039
0.0241389
0.0224861
0.0191774
0.0153901
0.0128023
0.0118904
0.012473
0.0140196
0.0167362
0.0182847
0.01942
0.0195339
0.01732
0.0140675
0.0119967
0.0114015
0.0121511
0.01395
0.0170097
0.0187007
0.0174961
0.0168141
0.015273
0.0128557
0.0111836
0.0105686
0.0113504
0.0136389
0.0174728
0.0195823
0.0209334
0.0189659
0.0174333
0.0158253
0.014046
0.0128431
0.0134932
0.0161368
0.0191971
0.0200606
0.0188736
0.0173606
0.0172716
0.015445
0.0112739
0.00985285
0.0101295
0.0112469
0.0123542
0.0118782
0.0154593
0.0156924
0.0158049
0.0120371
0.00902326
0.00902416
0.00971436
0.0107666
0.0123852
0.0119808
0.0178602
0.0166431
0.0146684
0.00963369
0.00820193
0.00886638
0.0099975
0.0113981
0.0129667
0.0123199
0.0214513
0.0197066
0.01498
0.00993232
0.00861826
0.0092723
0.0106411
0.0119681
0.01334
0.0128349
0.023535
0.0211292
0.0160728
0.0112782
0.00933795
0.00958723
0.0108171
0.0121264
0.0136608
0.0136899
0.0240126
0.0215866
0.0171529
0.0125235
0.0100638
0.00980214
0.010784
0.012028
0.0137727
0.0142481
0.0206776
0.0198023
0.0161728
0.0122
0.00999898
0.00959151
0.0104884
0.0118442
0.0138561
0.0145269
0.0150707
0.0157099
0.014199
0.0111689
0.0094097
0.00903299
0.0098522
0.0114696
0.0139768
0.0149308
0.0136057
0.0135403
0.0131159
0.0113128
0.00966695
0.00876673
0.00921351
0.0109103
0.0140589
0.0154826
0.0171291
0.0160483
0.0156808
0.014721
0.0126927
0.0106993
0.0105855
0.0125236
0.0152825
0.0155785
0.0190709
0.0175344
0.017889
0.0155383
0.0108669
0.00962835
0.00985834
0.0107874
0.011541
0.0106365
0.0156265
0.0157387
0.016443
0.0124693
0.00926044
0.00910969
0.00974794
0.0106699
0.011677
0.0106205
0.0175099
0.0165248
0.014997
0.00987054
0.00838462
0.00894051
0.00994118
0.0111327
0.012221
0.0109494
0.0214271
0.0197018
0.0148523
0.00933181
0.00810862
0.00896856
0.0102188
0.0113545
0.0123569
0.0111424
0.0240539
0.021431
0.0154629
0.0101511
0.00830611
0.00878395
0.00997844
0.0111416
0.0123175
0.0114639
0.024211
0.021165
0.0157734
0.0106798
0.0084472
0.00865724
0.0098431
0.0109905
0.0122214
0.0116458
0.0194426
0.0182196
0.0144242
0.0102064
0.00827716
0.00832568
0.00943088
0.0106585
0.0121371
0.0117583
0.0142141
0.0143566
0.0131207
0.00972212
0.00797056
0.00770949
0.00848367
0.00990224
0.011956
0.0120019
0.0132551
0.0130121
0.0125923
0.0103999
0.0083396
0.00732974
0.00775549
0.00910845
0.0116016
0.0120577
0.0160557
0.0151786
0.0149199
0.0137475
0.0108189
0.00838229
0.0082724
0.0099584
0.012338
0.0118581
0.0194868
0.0179651
0.0188892
0.0170044
0.0116053
0.01033
0.0103153
0.0112115
0.0117694
0.0106025
0.0145549
0.0154356
0.0173361
0.0147696
0.0105359
0.00992497
0.0103999
0.0112671
0.011631
0.00996376
0.0150789
0.0156206
0.01599
0.0118185
0.00972245
0.00991847
0.0107693
0.0117098
0.0119753
0.0100734
0.0201482
0.0191549
0.0157983
0.00999085
0.00859996
0.00938889
0.0106679
0.0118813
0.0121111
0.00999642
0.025067
0.0222802
0.0162176
0.0100641
0.00807863
0.00854415
0.0098247
0.0110819
0.0119159
0.00993928
0.0263639
0.0223149
0.0160682
0.0101933
0.00783162
0.00818275
0.00948516
0.0107153
0.0117504
0.00993852
0.0207213
0.019009
0.0148916
0.00981624
0.00774219
0.00798818
0.00915429
0.0104451
0.0117015
0.0101822
0.0162054
0.015804
0.0144566
0.0099389
0.00774056
0.00745764
0.00829259
0.00970801
0.0114033
0.0104073
0.0147917
0.0145767
0.0139282
0.0108279
0.00801886
0.00701009
0.00758489
0.00891149
0.0107852
0.00997327
0.016792
0.0160786
0.0154194
0.014083
0.0102451
0.00761889
0.00762357
0.00936763
0.0111753
0.0096385
0.0224879
0.0200466
0.0219767
0.0218939
0.0142723
0.0115868
0.0112057
0.0118753
0.0129371
0.012603
0.0136183
0.0156021
0.0198764
0.0206704
0.0137122
0.0115981
0.0114304
0.0116669
0.0123019
0.0109027
0.0110067
0.0138999
0.018669
0.0168185
0.0120202
0.0114095
0.0119947
0.0120352
0.0123174
0.0106572
0.0167165
0.0174695
0.018549
0.0129966
0.0100789
0.0103858
0.0114995
0.0119329
0.0120385
0.00951289
0.0248616
0.0231079
0.019246
0.0120916
0.00905841
0.00931341
0.010603
0.0116465
0.0120913
0.00902341
0.0288479
0.0251116
0.0193932
0.0119806
0.00873433
0.00889313
0.0102125
0.0116185
0.0126156
0.00985956
0.0232949
0.0223983
0.0188975
0.0121035
0.00888357
0.00887796
0.0100324
0.0116498
0.0131462
0.0110234
0.0189996
0.0192586
0.0187438
0.0128988
0.00912308
0.00845448
0.0093311
0.0110354
0.0129415
0.0115138
0.0168263
0.0173735
0.0178985
0.0139444
0.00926374
0.00793859
0.00861172
0.0103044
0.0120945
0.0104974
0.0188522
0.0183665
0.018537
0.0176437
0.0120709
0.00847735
0.00849308
0.0104043
0.0118258
0.00970984
0.0382545
0.0282126
0.0301886
0.0322978
0.0226319
0.0145416
0.00990554
0.00844986
0.0150713
0.0297687
0.0241873
0.0207926
0.0283109
0.0325661
0.0218733
0.0137857
0.00868241
0.00597948
0.0119286
0.0242603
0.0140467
0.0175242
0.0276803
0.0289064
0.0182773
0.0128279
0.00925984
0.0058553
0.0110587
0.0217282
0.0164116
0.0198002
0.0268938
0.0223571
0.0142608
0.0112019
0.00942026
0.00602704
0.00938827
0.0162992
0.0237971
0.0251534
0.025983
0.0190489
0.0124625
0.0103474
0.00987026
0.00871163
0.00995671
0.0127827
0.0293492
0.0282548
0.0259104
0.0184511
0.012057
0.00988546
0.00991766
0.0103064
0.0120616
0.0134933
0.0257985
0.0268058
0.025941
0.0191516
0.0125535
0.0100615
0.00993603
0.0108491
0.0136299
0.0153774
0.0223477
0.0242054
0.0255015
0.0199728
0.0129425
0.00971862
0.00917544
0.0102711
0.0137568
0.0164473
0.0223244
0.0227992
0.024686
0.0207866
0.0130789
0.00911123
0.00820407
0.00901349
0.0123467
0.0151794
0.0271275
0.0236746
0.0246382
0.0241431
0.0171031
0.0103493
0.00771749
0.00801069
0.0118376
0.0169482
0.0779998
0.0472484
0.0404618
0.0420646
0.0375393
0.0301247
0.0186042
0.0113519
0.0459649
0.137024
0.0701485
0.0432112
0.0422741
0.0448422
0.0392432
0.0299661
0.0165249
0.00699645
0.0405437
0.130862
0.0464707
0.0369462
0.0412615
0.0429225
0.0365598
0.0278674
0.0144012
0.00315891
0.0333565
0.119336
0.0296195
0.0328428
0.0373783
0.0370256
0.031455
0.0251957
0.0137045
0.00138088
0.0262559
0.104381
0.0260104
0.0304923
0.0329712
0.0311614
0.0268677
0.0230204
0.0152171
0.00508575
0.0244839
0.0912213
0.0268968