/*--------------------------------*- C++ -*----------------------------------*\
  =========                 |
  \\      /  F ield         | OpenFOAM: The Open Source CFD Toolbox
   \\    /   O peration     | Website:  https://openfoam.org
    \\  /    A nd           | Version:  6
     \\/     M anipulation  |
\*---------------------------------------------------------------------------*/
FoamFile
{
    version     2.0;
    format      ascii;
    class       surfaceScalarField;
    location    "500";
    object      phi;
}
// * * * * * * * * * * * * * * * * * * * * * * * * * * * * * * * * * * * * * //

dimensions      [0 3 -1 0 0 0 0];

internalField   nonuniform List<scalar> 
19500
(
1.55636e-07
1.55617e-07
9.9688e-05
1.66201e-08
1.55568e-07
9.99827e-05
1.06049e-08
1.55462e-07
9.98497e-05
4.97436e-09
1.55251e-07
9.98495e-05
-1.53664e-09
1.54995e-07
9.98506e-05
-7.91223e-09
1.54694e-07
9.98508e-05
-1.30884e-08
1.54373e-07
9.98499e-05
-1.82975e-08
1.54087e-07
9.98502e-05
-1.58947e-07
1.53781e-07
9.99859e-05
1.53304e-07
9.9687e-05
1.55587e-07
1.668e-08
9.99825e-05
1.64638e-08
1.6533e-08
0.000100277
1.04548e-08
1.64408e-08
0.000100144
4.77659e-09
1.63258e-08
0.000100144
-1.76623e-09
1.61801e-08
0.000100144
-8.15635e-09
1.60171e-08
0.000100144
-1.33189e-08
1.58516e-08
0.000100143
-1.84051e-08
1.56978e-08
0.000100142
-1.59429e-07
1.55581e-08
0.000100278
1.54082e-08
9.99776e-05
1.55494e-07
1.06803e-08
9.98497e-05
1.63715e-08
1.05536e-08
0.000100144
1.0314e-08
1.04214e-08
0.000100011
4.60688e-09
1.02469e-08
0.000100011
-1.96228e-09
1.00273e-08
0.000100012
-8.36248e-09
9.77985e-09
0.000100012
-1.3501e-08
9.52684e-09
0.00010001
-1.85414e-08
9.29442e-09
0.00010001
-1.59785e-07
9.08303e-09
0.000100147
8.76794e-09
9.9846e-05
1.55314e-07
5.07814e-09
9.98494e-05
1.62646e-08
4.92432e-09
0.000100144
1.01411e-08
4.77839e-09
0.000100011
4.38864e-09
4.57512e-09
0.00010001
-2.21027e-09
4.31542e-09
0.000100011
-8.6196e-09
4.01912e-09
0.000100011
-1.37346e-08
3.7127e-09
0.00010001
-1.87181e-08
3.4279e-09
0.00010001
-1.60173e-07
3.16335e-09
0.000100146
2.7913e-09
9.9845e-05
1.55115e-07
-1.39253e-09
9.98505e-05
1.61396e-08
-1.55389e-09
0.000100145
9.93987e-09
-1.70649e-09
0.000100012
4.13094e-09
-1.91543e-09
0.000100011
-2.50489e-09
-2.18424e-09
0.000100012
-8.92678e-09
-2.49326e-09
0.000100012
-1.40173e-08
-2.81595e-09
0.000100011
-1.8931e-08
-3.11902e-09
0.00010001
-1.60644e-07
-3.39926e-09
0.000100147
-3.78499e-09
9.98451e-05
1.54901e-07
-7.72354e-09
9.98506e-05
1.60133e-08
-7.8764e-09
0.000100144
9.73402e-09
-8.01915e-09
0.000100012
3.86344e-09
-8.21142e-09
0.000100011
-2.8131e-09
-8.46065e-09
0.000100012
-9.25103e-09
-8.74949e-09
0.000100012
-1.43204e-08
-9.0543e-09
0.00010001
-1.91625e-08
-9.34473e-09
0.00010001
-1.6113e-07
-9.61166e-09
0.000100147
-9.9744e-09
9.98443e-05
1.54695e-07
-1.2872e-08
9.98496e-05
1.59002e-08
-1.29994e-08
0.000100143
9.54646e-09
-1.31045e-08
0.000100011
3.61595e-09
-1.32552e-08
0.00010001
-3.10069e-09
-1.34547e-08
0.000100011
-9.55671e-09
-1.369e-08
0.00010001
-1.46114e-08
-1.39433e-08
0.000100009
-1.93876e-08
-1.41891e-08
0.000100009
-1.61582e-07
-1.44303e-08
0.000100146
-1.47334e-08
9.98424e-05
1.54538e-07
-1.81007e-08
9.98499e-05
1.58108e-08
-1.81163e-08
0.000100143
9.39738e-09
-1.81773e-08
0.000100011
3.41551e-09
-1.82711e-08
0.00010001
-3.33624e-09
-1.83958e-08
0.000100011
-9.81089e-09
-1.85468e-08
0.00010001
-1.48582e-08
-1.87139e-08
0.000100009
-1.9586e-08
-1.88845e-08
0.000100008
-1.61978e-07
-1.90645e-08
0.000100146
-1.93277e-08
9.98418e-05
1.5437e-07
-1.58696e-07
9.99854e-05
1.57496e-08
-1.5896e-07
0.000100279
9.2879e-09
-1.59144e-07
0.000100147
3.26e-09
-1.59331e-07
0.000100146
-3.51781e-09
-1.59583e-07
0.000100147
-1.00066e-08
-1.59865e-07
0.000100147
-1.50647e-08
-1.60162e-07
0.000100146
-1.97641e-08
-1.6046e-07
0.000100145
-1.62217e-07
-1.60655e-07
0.000100283
-1.60782e-07
9.99787e-05
1.54104e-07
9.96865e-05
1.57154e-08
9.99786e-05
9.13011e-09
9.98466e-05
3.0594e-09
9.98459e-05
-3.74725e-09
9.98464e-05
-1.02518e-08
9.98458e-05
-1.52968e-08
9.9844e-05
-1.99966e-08
9.98433e-05
-1.62347e-07
9.99811e-05
9.96763e-05
2.21007e-07
2.20801e-07
9.9243e-05
6.82254e-08
2.20572e-07
9.99116e-05
3.9914e-08
2.2001e-07
9.96546e-05
1.40771e-08
2.19521e-07
9.96523e-05
-5.9145e-09
2.18837e-07
9.96481e-05
-2.54824e-08
2.18033e-07
9.96485e-05
-5.00192e-08
2.17172e-07
9.96533e-05
-7.61002e-08
2.16317e-07
9.96561e-05
-2.30563e-07
2.15859e-07
9.99208e-05
2.14561e-07
9.92395e-05
2.20777e-07
6.85713e-08
9.99107e-05
6.78826e-08
6.82677e-08
0.000100579
3.93526e-08
6.79576e-08
0.000100321
1.3321e-08
6.75214e-08
0.000100318
-6.78473e-09
6.70001e-08
0.000100312
-2.64016e-08
6.64195e-08
0.000100311
-5.0938e-08
6.58267e-08
0.000100314
-7.69121e-08
6.53037e-08
0.000100315
-2.31889e-07
6.48681e-08
0.00010058
6.39431e-08
9.98939e-05
2.20239e-07
4.04614e-08
9.96541e-05
6.7569e-08
3.99876e-08
0.000100322
3.89561e-08
3.96144e-08
0.000100064
1.28222e-08
3.9038e-08
0.000100062
-7.35733e-09
3.83273e-08
0.000100057
-2.69997e-08
3.75341e-08
0.000100056
-5.15012e-08
3.67287e-08
0.00010006
-7.7352e-08
3.60097e-08
0.000100061
-2.32475e-07
3.53913e-08
0.000100327
3.42226e-08
9.96407e-05
2.19818e-07
1.48529e-08
9.96518e-05
6.71504e-08
1.42509e-08
0.000100319
3.83785e-08
1.38089e-08
0.000100062
1.21187e-08
1.31472e-08
0.000100059
-8.14039e-09
1.23163e-08
0.000100054
-2.77935e-08
1.13841e-08
0.000100053
-5.2224e-08
1.04332e-08
0.000100056
-7.79324e-08
9.57294e-09
0.000100058
-2.33581e-07
8.85398e-09
0.000100324
7.54622e-09
9.96355e-05
2.19261e-07
-4.8392e-09
9.96475e-05
6.66802e-08
-5.47958e-09
0.000100313
3.77066e-08
-5.95387e-09
0.000100057
1.12851e-08
-6.64136e-09
0.000100054
-9.07419e-09
-7.51159e-09
0.000100048
-2.87448e-08
-8.49294e-09
0.000100047
-5.31005e-08
-9.50099e-09
0.000100051
-7.86529e-08
-1.04298e-08
0.000100052
-2.34814e-07
-1.11953e-08
0.000100319
-1.2557e-08
9.96279e-05
2.18653e-07
-2.40521e-08
9.96477e-05
6.61937e-08
-2.46701e-08
0.000100312
3.70083e-08
-2.51254e-08
0.000100056
1.04125e-08
-2.57679e-08
0.000100053
-1.00569e-08
-2.65877e-08
0.000100048
-2.97531e-08
-2.75186e-08
0.000100047
-5.40451e-08
-2.84879e-08
0.00010005
-7.94363e-08
-2.93993e-08
0.00010005
-2.36082e-07
-3.01611e-08
0.000100319
-3.14689e-08
9.96247e-05
2.18054e-07
-4.82883e-08
9.96524e-05
6.57407e-08
-4.88531e-08
0.000100316
3.6356e-08
-4.92339e-08
0.00010006
9.59088e-09
-4.97597e-08
0.000100057
-1.09888e-08
-5.04466e-08
0.000100052
-3.07223e-08
-5.12389e-08
0.00010005
-5.49705e-08
-5.208e-08
0.000100053
-8.02232e-08
-5.29133e-08
0.000100053
-2.373e-07
-5.36473e-08
0.000100323
-5.48086e-08
9.96261e-05
2.17504e-07
-7.4405e-08
9.96551e-05
6.53915e-08
-7.48657e-08
0.000100318
3.58307e-08
-7.51089e-08
0.000100062
8.91212e-09
-7.54805e-08
0.000100059
-1.17718e-08
-7.59887e-08
0.000100053
-3.15522e-08
-7.65837e-08
0.000100052
-5.58044e-08
-7.72385e-08
0.000100054
-8.09934e-08
-7.79472e-08
0.000100055
-2.3838e-07
-7.86427e-08
0.000100325
-7.93472e-08
9.96259e-05
2.17347e-07
-2.29432e-07
9.99196e-05
6.51512e-08
-2.30188e-07
0.000100583
3.5429e-08
-2.30409e-07
0.000100328
8.40999e-09
-2.31066e-07
0.000100325
-1.23413e-08
-2.31827e-07
0.00010032
-3.21704e-08
-2.32675e-07
0.000100319
-5.64651e-08
-2.33576e-07
0.000100322
-8.16785e-08
-2.34447e-07
0.000100323
-2.393e-07
-2.35251e-07
0.000100594
-2.36005e-07
9.98935e-05
2.16614e-07
9.9238e-05
6.46354e-08
9.9898e-05
3.47594e-08
9.96436e-05
7.62357e-09
9.96395e-05
-1.32368e-08
9.96329e-05
-3.31195e-08
9.96304e-05
-5.73819e-08
9.96319e-05
-8.22322e-08
9.96313e-05
-2.40045e-07
9.99009e-05
9.91994e-05
2.48193e-07
2.47668e-07
9.87441e-05
8.74695e-08
2.47352e-07
9.98217e-05
5.35076e-08
2.46055e-07
9.94392e-05
1.889e-08
2.45278e-07
9.94382e-05
-9.84737e-09
2.44046e-07
9.94292e-05
-3.78358e-08
2.42628e-07
9.94301e-05
-7.01945e-08
2.41124e-07
9.94407e-05
-1.00374e-07
2.39493e-07
9.94429e-05
-2.62439e-07
2.3904e-07
9.98402e-05
2.36594e-07
9.87382e-05
2.47875e-07
8.74878e-08
9.98197e-05
8.70332e-08
8.71237e-08
0.000100897
5.2487e-08
8.64684e-08
0.000100512
1.75038e-08
8.55994e-08
0.000100509
-1.14923e-08
8.45718e-08
0.000100497
-3.96201e-08
8.34005e-08
0.000100495
-7.19831e-08
8.21695e-08
0.000100502
-1.02167e-07
8.10641e-08
0.0001005
-2.64872e-07
8.02871e-08
0.000100898
7.82528e-08
9.9785e-05
2.46627e-07
5.36938e-08
9.94379e-05
8.63739e-08
5.28428e-08
0.000100513
5.17379e-08
5.21425e-08
0.00010013
1.65471e-08
5.10109e-08
0.000100128
-1.25893e-08
4.96167e-08
0.000100117
-4.07706e-08
4.80306e-08
0.000100115
-7.30917e-08
4.63742e-08
0.000100124
-1.02961e-07
4.48596e-08
0.000100123
-2.65599e-07
4.36468e-08
0.000100523
4.13271e-08
9.94096e-05
2.45983e-07
1.9349e-08
9.94367e-05
8.55473e-08
1.82707e-08
0.00010051
5.06007e-08
1.74377e-08
0.000100128
1.51485e-08
1.61422e-08
0.000100125
-1.41669e-08
1.45125e-08
0.000100114
-4.24031e-08
1.26551e-08
0.000100112
-7.46092e-08
1.07143e-08
0.00010012
-1.04192e-07
8.91199e-09
0.000100119
-2.67751e-07
7.51451e-09
0.00010052
4.90801e-09
9.94016e-05
2.45003e-07
-8.97889e-09
9.94274e-05
8.46423e-08
-1.01556e-08
0.000100498
4.92971e-08
-1.10339e-08
0.000100117
1.35109e-08
-1.23768e-08
0.000100114
-1.60326e-08
-1.40858e-08
0.000100103
-4.43455e-08
-1.60394e-08
0.0001001
-7.64353e-08
-1.80895e-08
0.000100107
-1.05711e-07
-2.00172e-08
0.000100106
-2.70034e-07
-2.15016e-08
0.000100509
-2.41991e-08
9.93844e-05
2.43977e-07
-3.6467e-08
9.94278e-05
8.36983e-08
-3.7631e-08
0.000100497
4.79378e-08
-3.84643e-08
0.000100116
1.17981e-08
-3.9724e-08
0.000100113
-1.799e-08
-4.13435e-08
0.000100101
-4.63932e-08
-4.3202e-08
0.000100098
-7.83715e-08
-4.51647e-08
0.000100104
-1.07321e-07
-4.70416e-08
0.000100102
-2.72444e-07
-4.85214e-08
0.000100507
-5.10867e-08
9.93766e-05
2.43002e-07
-6.83787e-08
9.9438e-05
8.28039e-08
-6.94464e-08
0.000100505
4.66532e-08
-7.01599e-08
0.000100125
1.01744e-08
-7.12038e-08
0.000100121
-1.98528e-08
-7.25746e-08
0.000100109
-4.83536e-08
-7.41558e-08
0.000100106
-8.02498e-08
-7.58463e-08
0.000100111
-1.0891e-07
-7.75202e-08
0.000100108
-2.74804e-07
-7.89014e-08
0.000100515
-8.10274e-08
9.93788e-05
2.41987e-07
-9.85102e-08
9.94399e-05
8.2112e-08
-9.95847e-08
0.000100504
4.5608e-08
-9.99726e-08
0.000100125
8.81837e-09
-1.00714e-07
0.000100122
-2.14286e-08
-1.01736e-07
0.000100109
-5.00395e-08
-1.02924e-07
0.000100105
-8.19208e-08
-1.04212e-07
0.00010011
-1.10435e-07
-1.05583e-07
0.000100107
-2.7666e-07
-1.06829e-07
0.000100515
-1.08302e-07
9.93738e-05
2.42101e-07
-2.61322e-07
9.98368e-05
8.17314e-08
-2.62601e-07
0.000100902
4.48513e-08
-2.62589e-07
0.000100524
7.8781e-09
-2.63786e-07
0.000100521
-2.25166e-08
-2.65053e-07
0.00010051
-5.12244e-08
-2.66522e-07
0.000100507
-8.31371e-08
-2.6813e-07
0.000100513
-1.11669e-07
-2.69496e-07
0.000100511
-2.79001e-07
-2.71626e-07
0.000100921
-2.72469e-07
9.97771e-05
2.40825e-07
9.87335e-05
8.0598e-08
9.97931e-05
4.36326e-08
9.94154e-05
6.43735e-09
9.94102e-05
-2.41305e-08
9.93956e-05
-5.29241e-08
9.93897e-05
-8.46873e-08
9.93925e-05
-1.12864e-07
9.93866e-05
-2.79842e-07
9.97945e-05
9.86457e-05
2.63976e-07
2.6305e-07
9.8214e-05
9.64159e-08
2.62656e-07
9.97234e-05
5.75396e-08
2.60524e-07
9.92142e-05
1.93588e-08
2.5939e-07
9.92135e-05
-1.37546e-08
2.57397e-07
9.92013e-05
-4.58028e-08
2.55165e-07
9.92032e-05
-8.08039e-08
2.52831e-07
9.92189e-05
-1.14394e-07
2.50088e-07
9.92225e-05
-2.82726e-07
2.49476e-07
9.97555e-05
2.45277e-07
9.82081e-05
2.63573e-07
9.61682e-08
9.97198e-05
9.58328e-08
9.57118e-08
0.000101228
5.59404e-08
9.46216e-08
0.000100714
1.71913e-08
9.32306e-08
0.00010071
-1.64217e-08
9.15789e-08
0.000100693
-4.87904e-08
8.96576e-08
0.000100688
-8.38103e-08
8.75886e-08
0.000100698
-1.17497e-07
8.56802e-08
0.000100694
-2.86807e-07
8.44333e-08
0.000101228
8.08297e-08
9.96605e-05
2.6153e-07
5.74381e-08
9.92117e-05
9.47399e-08
5.61402e-08
0.000100715
5.47543e-08
5.50377e-08
0.000100206
1.56614e-08
5.3237e-08
0.000100203
-1.81655e-08
5.10042e-08
0.000100187
-5.06234e-08
4.84153e-08
0.000100185
-8.56084e-08
4.56551e-08
0.000100196
-1.18785e-07
4.30632e-08
0.000100194
-2.87949e-07
4.1072e-08
0.000100731
3.70008e-08
9.91632e-05
2.60627e-07
1.95678e-08
9.92105e-05
9.34281e-08
1.79533e-08
0.000100712
5.29402e-08
1.66449e-08
0.000100203
1.33961e-08
1.45807e-08
0.000100199
-2.07623e-08
1.19663e-08
0.000100183
-5.33559e-08
8.93457e-09
0.00010018
-8.81994e-08
5.70404e-09
0.00010019
-1.20939e-07
2.63011e-09
0.000100188
-2.91673e-07
3.26942e-10
0.000100727
-4.30726e-09
9.91489e-05
2.59078e-07
-1.30193e-08
9.91974e-05
9.20099e-08
-1.48364e-08
0.000100695
5.08798e-08
-1.61779e-08
0.000100187
1.07659e-08
-1.83131e-08
0.000100183
-2.38135e-08
-2.10558e-08
0.000100166
-5.65908e-08
-2.42435e-08
0.000100162
-9.12939e-08
-2.76478e-08
0.000100171
-1.23569e-07
-3.09291e-08
0.000100167
-2.95513e-07
-3.34395e-08
0.00010071
-3.81743e-08
9.91203e-05
2.57545e-07
-4.43849e-08
9.91983e-05
9.05261e-08
-4.62334e-08
0.000100692
4.87295e-08
-4.74713e-08
0.000100185
8.01739e-09
-4.94684e-08
0.000100181
-2.70099e-08
-5.20647e-08
0.000100163
-5.99908e-08
-5.50883e-08
0.000100158
-9.45624e-08
-5.83367e-08
0.000100165
-1.26363e-07
-6.15259e-08
0.00010016
-2.99657e-07
-6.4074e-08
0.000100707
-6.85111e-08
9.91047e-05
2.56171e-07
-7.8724e-08
9.92128e-05
8.9114e-08
-8.03869e-08
0.000100702
4.66947e-08
-8.14445e-08
0.000100197
5.41435e-09
-8.31021e-08
0.000100193
-3.00412e-08
-8.52982e-08
0.000100174
-6.3236e-08
-8.78645e-08
0.000100168
-9.772e-08
-9.06436e-08
0.000100174
-1.29112e-07
-9.34846e-08
0.000100167
-3.03792e-07
-9.58427e-08
0.000100717
-9.97082e-08
9.91033e-05
2.54576e-07
-1.12202e-07
9.92153e-05
8.80213e-08
-1.13951e-07
0.000100701
4.50328e-08
-1.14465e-07
0.000100197
3.23406e-09
-1.15642e-07
0.000100192
-3.26181e-08
-1.17286e-07
0.000100173
-6.60317e-08
-1.19207e-07
0.000100166
-1.00546e-07
-1.2131e-07
0.000100171
-1.31736e-07
-1.23622e-07
0.000100163
-3.07083e-07
-1.25917e-07
0.000100716
-1.27895e-07
9.90928e-05
2.55004e-07
-2.81702e-07
9.97478e-05
8.7528e-08
-2.83689e-07
0.000101236
4.3908e-08
-2.83455e-07
0.000100732
1.80855e-09
-2.85332e-07
0.000100729
-3.43308e-08
-2.87176e-07
0.000100711
-6.7961e-08
-2.89441e-07
0.000100706
-1.02573e-07
-2.92041e-07
0.000100714
-1.34003e-07
-2.94296e-07
0.000100708
-3.10659e-07
-2.9737e-07
0.000101266
-2.9955e-07
9.96349e-05
2.52958e-07
9.81963e-05
8.56592e-08
9.96742e-05
4.19968e-08
9.9173e-05
-4.99813e-10
9.91646e-05
-3.68897e-08
9.91419e-05
-7.06317e-08
9.91309e-05
-1.05247e-07
9.91316e-05
-1.35357e-07
9.91198e-05
-3.12883e-07
9.9671e-05
9.80328e-05
2.75476e-07
2.73971e-07
9.76618e-05
1.03275e-07
2.73417e-07
9.96192e-05
5.94382e-08
2.70371e-07
9.89845e-05
1.85353e-08
2.68726e-07
9.89824e-05
-1.77209e-08
2.65684e-07
9.89685e-05
-5.26241e-08
2.62317e-07
9.89722e-05
-8.94648e-08
2.58809e-07
9.89932e-05
-1.26593e-07
2.54483e-07
9.90014e-05
-2.98498e-07
2.53279e-07
9.9671e-05
2.46383e-07
9.76615e-05
2.74899e-07
1.02586e-07
9.96132e-05
1.02386e-07
1.01912e-07
0.000101569
5.70409e-08
1.00295e-07
0.000100926
1.53059e-08
9.82171e-08
0.000100919
-2.18126e-08
9.57018e-08
0.000100896
-5.73236e-08
9.27219e-08
0.00010089
-9.42088e-08
8.94466e-08
0.0001009
-1.31578e-07
8.63003e-08
0.000100895
-3.05056e-07
8.42338e-08
0.000101568
7.82454e-08
9.95219e-05
2.72004e-07
5.88216e-08
9.89802e-05
1.00771e-07
5.69318e-08
0.000100928
5.5276e-08
5.53035e-08
0.000100292
1.29939e-08
5.26132e-08
0.000100287
-2.44633e-08
4.92327e-08
0.000100267
-6.01438e-08
4.52347e-08
0.000100264
-9.70531e-08
4.08777e-08
0.000100277
-1.33737e-07
3.66556e-08
0.000100276
-3.07232e-07
3.34639e-08
0.000100952
2.66444e-08
9.89058e-05
2.70742e-07
1.82209e-08
9.8977e-05
9.88281e-08
1.59304e-08
0.000100921
5.25582e-08
1.39952e-08
0.000100287
9.53615e-09
1.09022e-08
0.00010028
-2.85015e-08
6.94094e-09
0.000100259
-6.44845e-08
2.25394e-09
0.000100255
-1.01262e-07
-2.84727e-09
0.000100266
-1.37352e-07
-7.84423e-09
0.000100263
-3.13349e-07
-1.14688e-08
0.000100945
-1.93487e-08
9.88796e-05
2.68438e-07
-1.7409e-08
9.89613e-05
9.67247e-08
-2.00399e-08
0.000100899
4.94838e-08
-2.19876e-08
0.000100267
5.54516e-09
-2.51823e-08
0.00010026
-3.3224e-08
-2.93367e-08
0.000100237
-6.96017e-08
-3.4261e-08
0.000100231
-1.06252e-07
-3.96398e-08
0.00010024
-1.41628e-07
-4.49522e-08
0.000100235
-3.19652e-07
-4.8917e-08
0.000100922
-5.70957e-08
9.88359e-05
2.66256e-07
-5.14059e-08
9.89627e-05
9.45289e-08
-5.41244e-08
0.000100894
4.62776e-08
-5.58858e-08
0.000100264
1.37688e-09
-5.88664e-08
0.000100256
-3.81674e-08
-6.27901e-08
0.000100232
-7.49836e-08
-6.74507e-08
0.000100224
-1.11503e-07
-7.2567e-08
0.00010023
-1.46139e-07
-7.77326e-08
0.000100223
-3.26706e-07
-8.18681e-08
0.000100916
-8.96103e-08
9.88076e-05
2.64399e-07
-8.7272e-08
9.89809e-05
9.24464e-08
-8.96552e-08
0.000100906
4.32487e-08
-9.11605e-08
0.000100278
-2.55872e-09
-9.3629e-08
0.000100269
-4.28421e-08
-9.6927e-08
0.000100244
-8.00962e-08
-1.00847e-07
0.000100234
-1.16573e-07
-1.05197e-07
0.000100239
-1.50641e-07
-1.09765e-07
0.000100229
-3.33931e-07
-1.13667e-07
0.000100928
-1.2016e-07
9.87972e-05
2.62093e-07
-1.24062e-07
9.89867e-05
9.0816e-08
-1.26604e-07
0.000100905
4.07675e-08
-1.27318e-07
0.00010028
-5.85009e-09
-1.2908e-07
0.00010027
-4.67978e-08
-1.31534e-07
0.000100244
-8.44919e-08
-1.34458e-07
0.000100233
-1.21104e-07
-1.37743e-07
0.000100236
-1.54989e-07
-1.41407e-07
0.000100224
-3.39409e-07
-1.44993e-07
0.000100926
-1.49303e-07
9.8779e-05
2.62731e-07
-2.98078e-07
9.96554e-05
9.01443e-08
-3.00801e-07
0.000101579
3.91729e-08
-3.0045e-07
0.000100953
-7.89988e-09
-3.03167e-07
0.000100946
-4.93566e-08
-3.05736e-07
0.000100923
-8.74847e-08
-3.09076e-07
0.000100915
-1.24293e-07
-3.13099e-07
0.000100921
-1.58525e-07
-3.164e-07
0.000100911
-3.45876e-07
-3.22077e-07
0.000101624
-3.24594e-07
9.94634e-05
2.59835e-07
9.7636e-05
8.74158e-08
9.95432e-05
3.63755e-08
9.89208e-05
-1.13851e-08
9.89063e-05
-5.32266e-08
9.8875e-05
-9.15877e-08
9.88568e-05
-1.28338e-07
9.88517e-05
-1.61843e-07
9.88321e-05
-3.48571e-07
9.95347e-05
9.73581e-05
2.82146e-07
2.79786e-07
9.70973e-05
1.07823e-07
2.78952e-07
9.95119e-05
6.04738e-08
2.74859e-07
9.87542e-05
1.7439e-08
2.72465e-07
9.87501e-05
-2.16413e-08
2.68008e-07
9.87365e-05
-5.91139e-08
2.63055e-07
9.87432e-05
-9.73343e-08
2.57808e-07
9.87698e-05
-1.36501e-07
2.51137e-07
9.87857e-05
-3.08688e-07
2.48639e-07
9.95915e-05
2.3752e-07
9.71142e-05
2.81257e-07
1.06409e-07
9.95026e-05
1.06436e-07
1.0537e-07
0.000101914
5.69844e-08
1.031e-07
0.000101144
1.2732e-08
1.00102e-07
0.000101132
-2.77266e-08
9.63738e-08
0.000101105
-6.62734e-08
9.18695e-08
0.000101096
-1.04711e-07
8.68088e-08
0.000101105
-1.44305e-07
8.17023e-08
0.0001011
-3.19084e-07
7.81996e-08
0.00010191
6.83866e-08
9.9371e-05
2.77406e-07
5.89407e-08
9.87473e-05
1.04173e-07
5.62748e-08
0.000101147
5.44416e-08
5.39496e-08
0.000100388
9.34248e-09
5.00548e-08
0.000100379
-3.16852e-08
4.5067e-08
0.000100356
-7.05886e-08
3.90361e-08
0.000100351
-1.09216e-07
3.23103e-08
0.000100366
-1.47984e-07
2.55477e-08
0.000100367
-3.23379e-07
2.04925e-08
0.000101182
9.05839e-09
9.86411e-05
2.75615e-07
1.60831e-08
9.87412e-05
1.01399e-07
1.29145e-08
0.000101136
5.04942e-08
1.01488e-08
0.000100378
4.21217e-09
5.65484e-09
0.000100367
-3.78099e-08
-1.94205e-10
0.000100343
-7.73298e-08
-7.2734e-09
0.000100336
-1.15944e-07
-1.51732e-08
0.000100347
-1.53885e-07
-2.30684e-08
0.000100346
-3.33368e-07
-2.88621e-08
0.00010117
-4.22616e-08
9.85963e-05
2.72344e-07
-2.23369e-08
9.87243e-05
9.83677e-08
-2.60033e-08
0.000101109
4.60317e-08
-2.87655e-08
0.000100354
-1.69211e-09
-3.3404e-08
0.000100343
-4.49544e-08
-3.95311e-08
0.000100316
-8.52627e-08
-4.69676e-08
0.000100306
-1.238e-07
-5.52726e-08
0.000100314
-1.60815e-07
-6.3679e-08
0.000100308
-3.43906e-07
-7.02743e-08
0.000101142
-8.43048e-08
9.85322e-05
2.69322e-07
-5.86535e-08
9.87266e-05
9.52175e-08
-6.24627e-08
0.000101101
4.13813e-08
-6.49371e-08
0.00010035
-7.85339e-09
-6.92513e-08
0.000100337
-5.24341e-08
-7.50135e-08
0.000100308
-9.35833e-08
-8.20152e-08
0.000100296
-1.32097e-07
-8.98979e-08
0.000100299
-1.68367e-07
-9.81296e-08
0.000100289
-3.55845e-07
-1.0517e-07
0.000101134
-1.18503e-07
9.8483e-05
2.66839e-07
-9.54129e-08
9.87477e-05
9.22514e-08
-9.86895e-08
0.000101114
3.70091e-08
-1.008e-07
0.000100366
-1.3642e-08
-1.04366e-07
0.000100351
-5.94631e-08
-1.09175e-07
0.00010032
-1.01466e-07
-1.15026e-07
0.000100305
-1.40174e-07
-1.21695e-07
0.000100305
-1.76051e-07
-1.28997e-07
0.000100291
-3.68119e-07
-1.35585e-07
0.000101146
-1.47371e-07
9.84531e-05
2.63675e-07
-1.34051e-07
9.87583e-05
8.9892e-08
-1.37456e-07
0.000101114
3.34148e-08
-1.38495e-07
0.00010037
-1.84692e-08
-1.41056e-07
0.000100355
-6.53853e-08
-1.44615e-07
0.000100323
-1.0822e-07
-1.48952e-07
0.000100305
-1.47404e-07
-1.53973e-07
0.000100302
-1.83323e-07
-1.59853e-07
0.000100285
-3.78084e-07
-1.65907e-07
0.000101146
-1.72599e-07
9.84234e-05
2.64494e-07
-3.09848e-07
9.95633e-05
8.89324e-08
-3.13472e-07
0.000101927
3.1187e-08
-3.13109e-07
0.000101181
-2.13893e-08
-3.16846e-07
0.00010117
-6.91319e-08
-3.20362e-07
0.000101142
-1.12742e-07
-3.25135e-07
0.00010113
-1.52522e-07
-3.31101e-07
0.000101132
-1.89246e-07
-3.36544e-07
0.000101118
-3.87316e-07
-3.43728e-07
0.000101997
-3.49576e-07
9.92493e-05
2.60513e-07
9.70631e-05
8.51756e-08
9.94025e-05
2.72311e-08
9.86628e-05
-2.64352e-08
9.86401e-05
-7.48155e-08
9.85998e-05
-1.18902e-07
9.85722e-05
-1.59265e-07
9.85563e-05
-1.9346e-07
9.85273e-05
-3.93644e-07
9.93861e-05
9.66146e-05
2.84439e-07
2.80854e-07
9.65297e-05
1.09761e-07
2.79572e-07
9.94046e-05
6.01797e-08
2.74263e-07
9.85271e-05
1.58819e-08
2.70799e-07
9.85211e-05
-2.51609e-08
2.64478e-07
9.85104e-05
-6.43741e-08
2.57329e-07
9.85221e-05
-1.03131e-07
2.49559e-07
9.85554e-05
-1.43501e-07
2.39507e-07
9.85824e-05
-3.12378e-07
2.34681e-07
9.95231e-05
2.16375e-07
9.65848e-05
2.83048e-07
1.07196e-07
9.93906e-05
1.07623e-07
1.05611e-07
0.000102261
5.52241e-08
1.02512e-07
0.000101365
9.14146e-09
9.82839e-08
0.000101348
-3.40288e-08
9.28753e-08
0.000101316
-7.50124e-08
8.62075e-08
0.000101304
-1.14397e-07
7.8525e-08
0.000101311
-1.55594e-07
7.0376e-08
0.000101306
-3.29345e-07
6.43214e-08
0.000102251
4.84473e-08
9.92105e-05
2.78115e-07
5.7114e-08
9.85165e-05
1.04542e-07
5.3454e-08
0.00010137
5.1634e-08
5.02003e-08
0.00010049
4.27949e-09
4.46847e-08
0.000100476
-3.98434e-08
3.74677e-08
0.000100452
-8.15482e-08
2.85348e-08
0.000100447
-1.21468e-07
1.82862e-08
0.000100461
-1.6194e-07
7.59454e-09
0.000100465
-3.37319e-07
-5.60534e-10
0.00010142
-1.97821e-08
9.83729e-05
2.75566e-07
1.26637e-08
9.85072e-05
1.00668e-07
8.36318e-09
0.000101353
4.60236e-08
4.50272e-09
0.000100475
-3.17446e-09
-1.8804e-09
0.00010046
-4.89571e-08
-1.03487e-08
0.000100433
-9.18754e-08
-2.08613e-08
0.000100425
-1.32075e-07
-3.29298e-08
0.000100434
-1.71619e-07
-4.54589e-08
0.000100433
-3.5354e-07
-5.47e-08
0.000101404
-7.71438e-08
9.83005e-05
2.7108e-07
-2.78748e-08
9.84908e-05
9.63959e-08
-3.28453e-08
0.000101321
3.9674e-08
-3.66904e-08
0.000100449
-1.17445e-08
-4.32731e-08
0.000100432
-5.95851e-08
-5.21275e-08
0.000100402
-1.04026e-07
-6.31581e-08
0.000100389
-1.44516e-07
-7.58857e-08
0.000100393
-1.8286e-07
-8.93223e-08
0.000100385
-3.70952e-07
-9.97234e-08
0.000101373
-1.24154e-07
9.82058e-05
2.66987e-07
-6.57912e-08
9.84946e-05
9.19784e-08
-7.09395e-08
0.000101311
3.30697e-08
-7.4368e-08
0.000100444
-2.0678e-08
-8.04672e-08
0.000100425
-7.07083e-08
-8.87508e-08
0.000100391
-1.16819e-07
-9.90937e-08
0.000100374
-1.5777e-07
-1.1115e-07
0.000100371
-1.94957e-07
-1.24347e-07
0.000100357
-3.91532e-07
-1.35587e-07
0.000101362
-1.60295e-07
9.81212e-05
2.63691e-07
-1.02622e-07
9.85179e-05
8.78558e-08
-1.06983e-07
0.000101323
2.68995e-08
-1.09883e-07
0.000100459
-2.90174e-08
-1.14893e-07
0.000100438
-8.11106e-08
-1.21734e-07
0.000100402
-1.28902e-07
-1.30274e-07
0.00010038
-1.70673e-07
-1.40374e-07
0.000100372
-2.07342e-07
-1.51928e-07
0.000100351
-4.14105e-07
-1.63127e-07
0.000101371
-1.8311e-07
9.80566e-05
2.59533e-07
-1.41748e-07
9.85348e-05
8.45399e-08
-1.46189e-07
0.000101325
2.18345e-08
-1.47673e-07
0.000100467
-3.59215e-08
-1.51269e-07
0.000100445
-8.97771e-08
-1.56261e-07
0.000100407
-1.39129e-07
-1.62518e-07
0.000100383
-1.82025e-07
-1.7007e-07
0.00010037
-2.19519e-07
-1.79091e-07
0.000100344
-4.31358e-07
-1.88636e-07
0.000101375
-2.01281e-07
9.80047e-05
2.60417e-07
-3.17558e-07
9.94752e-05
8.31953e-08
-3.2206e-07
0.000102276
1.87994e-08
-3.2179e-07
0.000101416
-3.99808e-08
-3.2669e-07
0.0001014
-9.51307e-08
-3.31398e-07
0.000101368
-1.45865e-07
-3.38022e-07
0.000101351
-1.89825e-07
-3.46634e-07
0.000101346
-2.28791e-07
-3.54421e-07
0.000101325
-4.46807e-07
-3.6665e-07
0.000102385
-3.74051e-07
9.89739e-05
2.55276e-07
9.64879e-05
7.82174e-08
9.92548e-05
1.33875e-08
9.8403e-05
-4.70319e-08
9.83708e-05
-1.03264e-07
9.83212e-05
-1.55002e-07
9.82816e-05
-1.99617e-07
9.82495e-05
-2.37821e-07
9.82036e-05
-4.55795e-07
9.92369e-05
9.57828e-05
2.84155e-07
2.78846e-07
9.59649e-05
1.10242e-07
2.76932e-07
9.92997e-05
5.91375e-08
2.70256e-07
9.8306e-05
1.43436e-08
2.65342e-07
9.82985e-05
-2.74997e-08
2.56646e-07
9.82934e-05
-6.72791e-08
2.46577e-07
9.83123e-05
-1.06299e-07
2.3522e-07
9.83548e-05
-1.47e-07
2.2025e-07
9.83982e-05
-3.07652e-07
2.10873e-07
9.94695e-05
1.8077e-07
9.60953e-05
2.82046e-07
1.05905e-07
9.92795e-05
1.07043e-07
1.03551e-07
0.000102607
5.22559e-08
9.94167e-08
0.000101589
4.8733e-09
9.35711e-08
0.000101565
-4.01346e-08
8.58887e-08
0.00010153
-8.27957e-08
7.62084e-08
0.000101514
-1.23401e-07
6.46823e-08
0.000101517
-1.66156e-07
5.16767e-08
0.000101512
-3.35636e-07
4.15116e-08
0.000102589
1.38111e-08
9.90415e-05
2.75922e-07
5.35829e-08
9.82906e-05
1.02948e-07
4.86747e-08
0.000101596
4.72936e-08
4.42127e-08
0.000100598
-1.95764e-09
3.65557e-08
0.00010058
-4.85236e-08
2.63057e-08
0.000100555
-9.26101e-08
1.32794e-08
0.00010055
-1.34596e-07
-2.16568e-09
0.000100564
-1.76817e-07
-1.89272e-08
0.000100573
-3.51967e-07
-3.19604e-08
0.000101668
-6.42439e-08
9.80978e-05
2.72345e-07
7.89905e-09
9.82781e-05
9.76395e-08
2.17067e-09
0.000101571
3.94703e-08
-3.10039e-09
0.000100578
-1.25856e-08
-1.19791e-08
0.000100557
-6.18739e-08
-2.4015e-08
0.000100529
-1.08235e-07
-3.94009e-08
0.000100519
-1.51185e-07
-5.76462e-08
0.000100527
-1.9243e-07
-7.71129e-08
0.000100528
-3.7848e-07
-9.16292e-08
0.000101648
-1.28926e-07
9.79812e-05
2.66378e-07
-3.40276e-08
9.82638e-05
9.1748e-08
-4.06e-08
0.000101536
3.06087e-08
-4.58449e-08
0.00010055
-2.48066e-08
-5.49838e-08
0.000100527
-7.7469e-08
-6.75409e-08
0.000100494
-1.26641e-07
-8.36799e-08
0.000100478
-1.70485e-07
-1.02978e-07
0.000100477
-2.10166e-07
-1.23956e-07
0.000100468
-4.07098e-07
-1.41679e-07
0.000101615
-1.84261e-07
9.78449e-05
2.60956e-07
-7.27437e-08
9.82697e-05
8.56873e-08
-7.94987e-08
0.000101523
2.14192e-08
-8.41575e-08
0.000100543
-3.75303e-08
-9.25776e-08
0.000100518
-9.38067e-08
-1.04241e-07
0.000100481
-1.46103e-07
-1.19262e-07
0.000100458
-1.91306e-07
-1.37512e-07
0.000100447
-2.30868e-07
-1.58266e-07
0.000100427
-4.42592e-07
-1.79593e-07
0.000101603
-2.23253e-07
9.77112e-05
2.5663e-07
-1.09093e-07
9.82949e-05
8.00898e-08
-1.14753e-07
0.000101531
1.29031e-08
-1.18644e-07
0.000100558
-4.93107e-08
-1.25504e-07
0.00010053
-1.08957e-07
-1.35009e-07
0.000100489
-1.64423e-07
-1.47247e-07
0.00010046
-2.1169e-07
-1.62335e-07
0.00010044
-2.53908e-07
-1.80968e-07
0.000100408
-4.81672e-07
-2.0039e-07
0.000101612
-2.38965e-07
9.75832e-05
2.51335e-07
-1.48186e-07
9.83196e-05
7.5569e-08
-1.53719e-07
0.000101537
5.94402e-09
-1.55796e-07
0.000100571
-5.89521e-08
-1.60698e-07
0.000100542
-1.21408e-07
-1.67548e-07
0.000100498
-1.79687e-07
-1.764e-07
0.000100466
-2.29995e-07
-1.87552e-07
0.00010044
-2.74641e-07
-2.01834e-07
0.0001004
-5.14803e-07
-2.16874e-07
0.000101623
-2.39317e-07
9.74855e-05
2.52227e-07
-3.22661e-07
9.93943e-05
7.37088e-08
-3.28173e-07
0.000102626
1.89736e-09
-3.28127e-07
0.000101656
-6.4502e-08
-3.34331e-07
0.000101636
-1.28941e-07
-3.40487e-07
0.0001016
-1.89524e-07
-3.49397e-07
0.000101578
-2.42387e-07
-3.61271e-07
0.000101564
-2.8916e-07
-3.73188e-07
0.000101534
-5.38491e-07
-3.88221e-07
0.0001028
-4.00656e-07
9.85895e-05
2.45691e-07
9.59171e-05
6.73327e-08
9.91024e-05
-5.30607e-09
9.81446e-05
-7.40522e-08
9.8102e-05
-1.40237e-07
9.80432e-05
-2.02614e-07
9.79898e-05
-2.5767e-07
9.79362e-05
-3.01237e-07
9.78707e-05
-5.53714e-07
9.90926e-05
9.48201e-05
2.8273e-07
2.75138e-07
9.54055e-05
1.10421e-07
2.72389e-07
9.9198e-05
5.83177e-08
2.64201e-07
9.80923e-05
1.36578e-08
2.57435e-07
9.80841e-05
-2.78735e-08
2.45821e-07
9.80872e-05
-6.68344e-08
2.32034e-07
9.81166e-05
-1.04862e-07
2.15915e-07
9.81728e-05
-1.46354e-07
1.94318e-07
9.82389e-05
-2.93677e-07
1.78815e-07
9.94293e-05
1.25409e-07
9.56625e-05
2.79655e-07
1.03508e-07
9.91696e-05
1.05793e-07
1.00132e-07
0.000102951
4.89801e-08
9.47456e-08
0.000101813
6.40385e-10
8.68311e-08
0.000101782
-4.54499e-08
7.61787e-08
0.000101743
-8.88919e-08
6.24293e-08
0.000101723
-1.29988e-07
4.55206e-08
0.000101724
-1.75642e-07
2.57414e-08
0.000101719
-3.41616e-07
8.54981e-09
0.000102917
-4.38467e-08
9.88541e-05
2.72251e-07
4.90132e-08
9.80707e-05
1.00478e-07
4.25709e-08
0.000101823
4.22837e-08
3.65921e-08
0.000100712
-8.72688e-09
2.61846e-08
0.000100689
-5.72963e-08
1.19289e-08
0.000100665
-1.03281e-07
-6.69653e-09
0.000100661
-1.46705e-07
-2.9559e-08
0.000100677
-1.93367e-07
-5.55037e-08
0.000100694
-3.7545e-07
-7.63898e-08
0.000101924
-1.34562e-07
9.77895e-05
2.6735e-07
2.14327e-09
9.80553e-05
9.33473e-08
-5.33681e-09
0.000101791
3.15947e-08
-1.23721e-08
0.000100686
-2.35779e-08
-2.44498e-08
0.00010066
-7.64776e-08
-4.11959e-08
0.000100632
-1.26527e-07
-6.32336e-08
0.000100622
-1.72372e-07
-9.04026e-08
0.000100628
-2.18864e-07
-1.21148e-07
0.000100634
-4.21625e-07
-1.44827e-07
0.000101904
-2.07068e-07
9.76033e-05
2.59631e-07
-4.07425e-08
9.80447e-05
8.54027e-08
-4.92278e-08
0.000101752
1.94865e-08
-5.62213e-08
0.000100657
-4.06535e-08
-6.86168e-08
0.000100628
-9.89068e-08
-8.60255e-08
0.000100594
-1.5403e-07
-1.09134e-07
0.000100575
-2.02922e-07
-1.38093e-07
0.000100569
-2.48652e-07
-1.72273e-07
0.00010056
-4.6696e-07
-2.02019e-07
0.000101875
-2.7297e-07
9.74257e-05
2.52612e-07
-7.97797e-08
9.80537e-05