/*--------------------------------*- C++ -*----------------------------------*\
  =========                 |
  \\      /  F ield         | OpenFOAM: The Open Source CFD Toolbox
   \\    /   O peration     | Website:  https://openfoam.org
    \\  /    A nd           | Version:  6
     \\/     M anipulation  |
\*---------------------------------------------------------------------------*/
FoamFile
{
    version     2.0;
    format      ascii;
    class       volVectorField;
    location    "1900";
    object      U;
}
// * * * * * * * * * * * * * * * * * * * * * * * * * * * * * * * * * * * * * //

dimensions      [0 1 -1 0 0 0 0];

internalField   nonuniform List<vector> 
7000
(
(0.000604029 0.000600209 0.997867)
(0.000766693 0.000600861 0.999407)
(0.000225832 0.000600147 0.998942)
(9.83206e-05 0.000599691 0.998942)
(3.96712e-05 0.000599098 0.998945)
(-2.11917e-05 0.000598384 0.998944)
(-8.17506e-05 0.000597621 0.998941)
(-0.000211983 0.000596919 0.998939)
(-0.000754096 0.000596751 0.999408)
(-0.000597555 0.000594908 0.997858)
(0.000604621 0.000759315 0.999409)
(0.000766276 0.000759025 1.00095)
(0.000224773 0.000758412 1.00049)
(9.7113e-05 0.000757491 1.00049)
(3.82739e-05 0.000756386 1.00049)
(-2.27371e-05 0.000755106 1.00049)
(-8.3207e-05 0.000753785 1.00048)
(-0.000213099 0.000752662 1.00048)
(-0.000755912 0.000751702 1.00095)
(-0.000599434 0.000749918 0.9994)
(0.000603943 0.000217211 0.998944)
(0.000765694 0.000216368 1.00048)
(0.000224167 0.000215808 1.00002)
(9.6251e-05 0.00021495 1.00002)
(3.7207e-05 0.000213837 1.00002)
(-2.39095e-05 0.000212569 1.00002)
(-8.4335e-05 0.00021128 1.00002)
(-0.000214107 0.000210162 1.00002)
(-0.000756876 0.00020916 1.00049)
(-0.000599606 0.000208 0.998935)
(0.000603582 8.68709e-05 0.998944)
(0.000764912 8.60394e-05 1.00049)
(0.000223353 8.53358e-05 1.00002)
(9.51639e-05 8.43204e-05 1.00002)
(3.59005e-05 8.3003e-05 1.00002)
(-2.53067e-05 8.15071e-05 1.00002)
(-8.56416e-05 7.99884e-05 1.00002)
(-0.000215222 7.8688e-05 1.00002)
(-0.000758025 7.75719e-05 1.00049)
(-0.000600339 7.59679e-05 0.998936)
(0.000603163 2.59384e-05 0.998947)
(0.000764093 2.51069e-05 1.00049)
(0.000222424 2.43439e-05 1.00002)
(9.39159e-05 2.32704e-05 1.00002)
(3.43929e-05 2.18682e-05 1.00003)
(-2.69245e-05 2.0269e-05 1.00003)
(-8.71539e-05 1.86414e-05 1.00002)
(-0.0002165 1.72527e-05 1.00002)
(-0.000759422 1.60914e-05 1.00049)
(-0.000601184 1.42993e-05 0.998939)
(0.000602717 -3.5781e-05 0.998947)
(0.000763269 -3.65944e-05 1.00049)
(0.000221509 -3.73273e-05 1.00002)
(9.26855e-05 -3.83255e-05 1.00002)
(3.28982e-05 -3.96407e-05 1.00003)
(-2.85328e-05 -4.11476e-05 1.00003)
(-8.86564e-05 -4.26848e-05 1.00002)
(-0.000217764 -4.39993e-05 1.00002)
(-0.00076081 -4.50661e-05 1.00049)
(-0.000602011 -4.67871e-05 0.998939)
(0.000602288 -9.54088e-05 0.998944)
(0.000762527 -9.60372e-05 1.00049)
(0.000220706 -9.66556e-05 1.00002)
(9.16016e-05 -9.74696e-05 1.00002)
(3.15709e-05 -9.85551e-05 1.00002)
(-2.99667e-05 -9.98081e-05 1.00002)
(-9.0004e-05 -0.000101096 1.00002)
(-0.000218892 -0.000102196 1.00002)
(-0.000762069 -0.000103075 1.00049)
(-0.000602756 -0.000104653 0.998936)
(0.000601951 -0.000223532 0.998944)
(0.000762029 -0.000223836 1.00048)
(0.000220107 -0.000224323 1.00002)
(9.07856e-05 -0.000224921 1.00002)
(3.05603e-05 -0.000225728 1.00002)
(-3.10706e-05 -0.000226667 1.00002)
(-9.10419e-05 -0.000227635 1.00002)
(-0.000219769 -0.000228472 1.00002)
(-0.000763162 -0.000229116 1.00049)
(-0.000603371 -0.000230638 0.998936)
(0.000602111 -0.000765188 0.999411)
(0.000761645 -0.00076606 1.00095)
(0.000219624 -0.000766455 1.00049)
(9.01708e-05 -0.000766985 1.00049)
(2.98158e-05 -0.00076779 1.00049)
(-3.18617e-05 -0.000768717 1.00049)
(-9.17797e-05 -0.000769678 1.00049)
(-0.000220371 -0.000770607 1.00048)
(-0.000764048 -0.000771449 1.00095)
(-0.000604336 -0.000772557 0.999403)
(0.000600803 -0.000603544 0.997866)
(0.000760773 -0.00060487 0.999405)
(0.000219255 -0.000604722 0.998941)
(8.94122e-05 -0.00060509 0.998941)
(2.8803e-05 -0.000605581 0.998943)
(-3.29601e-05 -0.000606119 0.998942)
(-9.29159e-05 -0.000606661 0.998939)
(-0.00022163 -0.00060715 0.998938)
(-0.000765011 -0.000608066 0.999407)
(-0.000604096 -0.00060789 0.997856)
(0.00148553 0.00146286 0.994354)
(0.00175246 0.00146682 0.999237)
(0.000452114 0.00146219 0.997354)
(0.000293664 0.00146021 0.997348)
(0.000115811 0.00145698 0.997345)
(-7.73726e-05 0.00145307 0.997351)
(-0.000256226 0.00144873 0.997369)
(-0.000416087 0.00144408 0.997387)
(-0.00168204 0.00144351 0.999228)
(-0.00143321 0.00143255 0.994453)
(0.00148946 0.00172098 0.999192)
(0.0017511 0.00171998 1.00408)
(0.000447176 0.00171663 1.00219)
(0.000287682 0.0017131 1.00218)
(0.00010821 0.00170858 1.00217)
(-8.62074e-05 0.00170314 1.00217)
(-0.000265385 0.00169709 1.00218)
(-0.000423624 0.00169122 1.00218)
(-0.00169313 0.00168717 1.00402)
(-0.0014441 0.00167557 0.999225)
(0.00148514 0.000431407 0.997332)
(0.001748 0.000427791 1.00221)
(0.000445683 0.000426501 1.00033)
(0.000285408 0.00042414 1.00032)
(0.000105373 0.000421208 1.00031)
(-8.95533e-05 0.000417751 1.00032)
(-0.000268973 0.000413899 1.00033)
(-0.000427224 0.00041008 1.00034)
(-0.00169763 0.000406235 1.00219)
(-0.0014451 0.000397457 0.997385)
(0.00148382 0.000266858 0.997323)
(0.00174529 0.00026328 1.0022)
(0.000443467 0.000261581 1.00032)
(0.000282395 0.000258804 1.00031)
(0.000101761 0.000255291 1.0003)
(-9.36415e-05 0.000251141 1.0003)
(-0.00027322 0.000246534 1.00032)
(-0.000431319 0.000241958 1.00033)
(-0.00170463 0.000237571 1.00218)
(-0.00145058 0.000226321 0.997363)
(0.00148178 8.39343e-05 0.997315)
(0.00174231 7.99405e-05 1.00219)
(0.000441102 7.81295e-05 1.00031)
(0.0002791 7.52961e-05 1.0003)
(9.76911e-05 7.15881e-05 1.00029)
(-9.83229e-05 6.71463e-05 1.00029)
(-0.000278159 6.21666e-05 1.0003)
(-0.000436067 5.71602e-05 1.00031)
(-0.00171255 5.254e-05 1.00217)
(-0.00145622 4.0759e-05 0.997342)
(0.00147964 -0.000112643 0.997317)
(0.00173925 -0.000116736 1.00219)
(0.000438776 -0.000118533 1.00031)
(0.000275842 -0.000121182 1.0003)
(9.36023e-05 -0.000124735 1.00029)
(-0.000103062 -0.000129026 1.00029)
(-0.000283194 -0.00013386 1.0003)
(-0.000440866 -0.000138753 1.00031)
(-0.00172045 -0.000143125 1.00217)
(-0.00146183 -0.000154189 0.997331)
(0.00147759 -0.000292376 0.997328)
(0.00173637 -0.000296111 1.00219)
(0.000436682 -0.00029767 1.00032)
(0.000272897 -0.000299857 1.00031)
(8.98501e-05 -0.000302899 1.0003)
(-0.000107436 -0.00030662 1.0003)
(-0.000287865 -0.000310846 1.00031)
(-0.000445315 -0.000315202 1.00031)
(-0.00172762 -0.000318986 1.00218)
(-0.00146686 -0.000328416 0.997331)
(0.00147544 -0.000450242 0.997337)
(0.00173411 -0.000452396 1.0022)
(0.000435114 -0.000453701 1.00032)
(0.000270615 -0.000455308 1.00031)
(8.68442e-05 -0.0004576 1.0003)
(-0.000110994 -0.000460396 1.0003)
(-0.000291755 -0.000463595 1.00031)
(-0.000449049 -0.000466948 1.00032)
(-0.00173354 -0.000469662 1.00218)
(-0.00147051 -0.000477549 0.997331)
(0.00147732 -0.00174027 0.999213)
(0.00173363 -0.00174502 1.00408)
(0.000433798 -0.00174558 1.0022)
(0.00026895 -0.00174805 1.0022)
(8.47776e-05 -0.00175137 1.00219)
(-0.000113339 -0.00175527 1.00219)
(-0.000294267 -0.00175951 1.0022)
(-0.000451312 -0.00176381 1.00221)
(-0.00173872 -0.00176855 1.00408)
(-0.00147645 -0.00177279 0.999224)
(0.00147001 -0.0014749 0.994353)
(0.00172877 -0.00148215 0.999202)
(0.000431425 -0.00148036 0.997331)
(0.000264723 -0.00148266 0.997319)
(7.97356e-05 -0.00148506 0.997306)
(-0.000118814 -0.00148782 0.997303)
(-0.000299798 -0.00149075 0.997307)
(-0.000457075 -0.00149317 0.997311)
(-0.00174236 -0.00149862 0.99918)
(-0.00147405 -0.00149626 0.994317)
(0.00202866 0.00198555 0.990164)
(0.00221046 0.00199446 0.998923)
(0.000491902 0.00198379 0.995608)
(0.000493765 0.00198048 0.995597)
(0.000211982 0.00197384 0.995553)
(-7.37912e-05 0.00196594 0.995572)
(-0.000364336 0.00195731 0.995653)
(-0.000380039 0.0019471 0.995696)
(-0.00205984 0.00194728 0.998897)
(-0.00192941 0.00192552 0.990463)
(0.00203754 0.002142 0.998794)
(0.00220917 0.00214111 1.00756)
(0.000483462 0.00213243 1.00422)
(0.000483312 0.00212524 1.0042)
(0.000197624 0.00211539 1.00414)
(-9.09052e-05 0.00210349 1.00413)
(-0.000383019 0.00209027 1.00419)
(-0.000395633 0.00207685 1.0042)
(-0.00208184 0.00206994 1.0074)
(-0.001951 0.0020471 0.998896)
(0.00202749 0.000428972 0.995538)
(0.00220103 0.000422423 1.00429)
(0.000479528 0.000418899 1.00097)
(0.00047729 0.000412329 1.00095)
(0.00019027 0.000404276 1.00089)
(-9.94382e-05 0.000394721 1.0009)
(-0.000391917 0.000384151 1.00096)
(-0.000404059 0.000373989 1.00099)
(-0.00208949 0.000365021 1.0042)
(-0.00195152 0.00034716 0.995693)
(0.00202549 0.000409247 0.995521)
(0.00219552 0.000402608 1.00426)
(0.000473295 0.000397886 1.00095)
(0.000468674 0.000389922 1.00093)
(0.000179904 0.000379881 1.00087)
(-0.000111169 0.000367997 1.00087)
(-0.000403926 0.000354925 1.00094)
(-0.000414803 0.000342201 1.00096)
(-0.00210517 0.00033166 1.00418)
(-0.0019634 0.00030879 0.995639)
(0.00202125 0.000112082 0.995466)
(0.00218894 0.000103923 1.00419)
(0.000466728 9.90269e-05 1.00088)
(0.000459269 9.08265e-05 1.00086)
(0.000168305 8.01987e-05 1.00081)
(-0.000124424 6.75608e-05 1.00081)
(-0.000417719 5.36218e-05 1.00087)
(-0.000427206 3.98699e-05 1.00088)
(-0.00212221 2.8755e-05 1.00412)
(-0.00197471 5.77371e-06 0.995544)
(0.00201702 -0.000182388 0.995471)
(0.00218221 -0.000190939 1.00419)
(0.000460157 -0.00019572 1.00088)
(0.000449856 -0.000203525 1.00086)
(0.00015663 -0.000213781 1.0008)
(-0.000137748 -0.000225955 1.0008)
(-0.000431594 -0.000239338 1.00086)
(-0.000439587 -0.000252606 1.00087)
(-0.00213903 -0.000263108 1.00412)
(-0.00198599 -0.000284239 0.99551)
(0.00201315 -0.000472426 0.995534)
(0.0021759 -0.000480943 1.00424)
(0.000454126 -0.000485013 1.00094)
(0.000441219 -0.000491607 1.00092)
(0.000145878 -0.000500518 1.00086)
(-0.000149971 -0.000511122 1.00085)
(-0.000444329 -0.000522795 1.00091)
(-0.000450908 -0.000534539 1.00092)
(-0.00215416 -0.00054359 1.00418)
(-0.00199622 -0.000560714 0.995539)
(0.00200821 -0.000475077 0.995557)
(0.00217038 -0.000480247 1.00425)
(0.000449538 -0.000483454 1.00095)
(0.000434357 -0.000488119 1.00093)
(0.000137111 -0.000494668 1.00087)
(-0.000160032 -0.000502426 1.00087)
(-0.000454992 -0.000510981 1.00092)
(-0.000460404 -0.000519712 1.00093)
(-0.002166 -0.000525987 1.0042)
(-0.00200277 -0.000540019 0.995534)
(0.00201365 -0.00218409 0.998852)
(0.00217121 -0.0021941 1.00755)
(0.000446283 -0.00219351 1.00426)
(0.000429999 -0.00219947 1.00424)
(0.00013163 -0.00220675 1.00419)
(-0.000166199 -0.00221523 1.00419)
(-0.000461451 -0.00222438 1.00425)
(-0.000465819 -0.00223292 1.00427)
(-0.00217818 -0.00224409 1.00755)
(-0.00201599 -0.00225025 0.998868)
(0.00199854 -0.00201052 0.990158)
(0.00216092 -0.00202549 0.998823)
(0.000440661 -0.00202028 0.995538)
(0.000420534 -0.00202557 0.995508)
(0.000121257 -0.00203017 0.995437)
(-0.000177169 -0.00203567 0.995424)
(-0.000471696 -0.00204165 0.995468)
(-0.000476233 -0.0020457 0.99547)
(-0.00218343 -0.00205782 0.99874)
(-0.00200952 -0.00205138 0.990045)
(0.0023913 0.00232946 0.984946)
(0.00242956 0.00234407 0.998069)
(0.000474377 0.00232604 0.993438)
(0.000666748 0.00232166 0.99344)
(0.000280328 0.00231064 0.993356)
(-3.17475e-05 0.00229792 0.993398)
(-0.000435631 0.00228421 0.993567)
(-0.000276318 0.00226635 0.993637)
(-0.00218564 0.00226701 0.998056)
(-0.00223779 0.00223055 0.985603)
(0.00240573 0.00232546 0.997824)
(0.00242834 0.00232488 1.01095)
(0.000462352 0.00230953 1.00628)
(0.000651546 0.00229842 1.00626)
(0.000257889 0.0022821 1.00614)
(-5.92033e-05 0.00226247 1.00613)
(-0.000467131 0.00224055 1.00625)
(-0.000303147 0.00221698 1.00625)
(-0.00222335 0.00220622 1.01067)
(-0.00227404 0.00216668 0.998075)
(0.00238879 0.000368157 0.993301)
(0.00241396 0.000358865 1.0064)
(0.000455707 0.000352916 1.00176)
(0.000640926 0.000341368 1.00174)
(0.000245117 0.000327424 1.00164)
(-7.39307e-05 0.000310618 1.00165)
(-0.000482499 0.000291815 1.00178)
(-0.000318015 0.000273545 1.00181)
(-0.00223579 0.000257655 1.00625)
(-0.00227499 0.000226036 0.993646)
(0.00238657 0.000522598 0.993288)
(0.00240565 0.000513243 1.00637)
(0.000444745 0.000504904 1.00174)
(0.000625897 0.000491076 1.00172)
(0.000226837 0.000473573 1.00161)
(-9.4887e-05 0.000452573 1.00162)
(-0.000504289 0.000429192 1.00174)
(-0.000337368 0.000405959 1.00177)
(-0.00226378 0.000387441 1.00623)
(-0.00229615 0.000347635 0.993552)
(0.00237961 0.000108654 0.99318)
(0.00239494 9.61264e-05 1.00624)
(0.000433518 8.7783e-05 1.00161)
(0.000609589 7.35396e-05 1.0016)
(0.000206525 5.50352e-05 1.00148)
(-0.000118385 3.28104e-05 1.00148)
(-0.000529125 8.0445e-06 1.00161)
(-0.000359781 -1.69177e-05 1.00162)
(-0.0022931 -3.65107e-05 1.00611)
(-0.00231508 -7.54023e-05 0.993353)
(0.00237318 -0.000219461 0.993189)
(0.00238431 -0.000232698 1.00622)
(0.000422224 -0.000240603 1.00161)
(0.000593217 -0.000254215 1.00159)
(0.000186105 -0.000272077 1.00147)
(-0.000141884 -0.000293387 1.00147)
(-0.000553953 -0.000316984 1.00158)
(-0.000381925 -0.000340812 1.00159)
(-0.00232205 -0.000359166 1.0061)
(-0.00233431 -0.000394463 0.993275)
(0.00236783 -0.000623229 0.993314)
(0.00237468 -0.000637318 1.00632)
(0.000411808 -0.000643802 1.00172)
(0.00057816 -0.000655369 1.0017)
(0.000167361 -0.00067094 1.00158)
(-0.000163286 -0.00068947 1.00157)
(-0.000576452 -0.000709925 1.00168)
(-0.000401713 -0.000730713 1.00168)
(-0.00234793 -0.000746717 1.00621)
(-0.00235203 -0.000774052 0.993323)
(0.00235939 -0.000441098 0.993339)
(0.00236539 -0.000449785 1.00632)
(0.000404026 -0.000455128 1.00173)
(0.000566089 -0.000463023 1.00171)
(0.000151974 -0.000474348 1.00158)
(-0.000180939 -0.000487738 1.00157)
(-0.000595185 -0.00050243 1.00168)
(-0.000418603 -0.000517985 1.00168)
(-0.00236735 -0.000528395 1.00622)
(-0.00236213 -0.000549529 0.993288)
(0.00236955 -0.00239024 0.997932)
(0.00236855 -0.00240596 1.01093)
(0.000398604 -0.00240314 1.00634)
(0.000559135 -0.00241313 1.00633)
(0.000142882 -0.00242441 1.00621)
(-0.00019139 -0.00243794 1.00622)
(-0.000606603 -0.00245288 1.00634)
(-0.000427513 -0.00246618 1.00635)
(-0.00238759 -0.00248439 1.01093)
(-0.00238389 -0.00249386 0.997947)
(0.00234565 -0.00236813 0.984939)
(0.00235243 -0.00239175 0.997882)
(0.000389253 -0.00238192 0.993303)
(0.000543445 -0.00239093 0.993265)
(0.000126621 -0.00239755 0.993125)
(-0.000208562 -0.00240606 0.993098)
(-0.000621705 -0.00241594 0.993182)
(-0.000442156 -0.00242132 0.993164)
(-0.0023953 -0.00244089 0.997709)
(-0.00237404 -0.00243121 0.984709)
(0.00266967 0.0025896 0.979206)
(0.0025788 0.00261006 0.996964)
(0.000481796 0.00258389 0.99104)
(0.000830713 0.0025781 0.991051)
(0.000335328 0.00256106 0.990954)
(5.41393e-05 0.00254167 0.991035)
(-0.000469293 0.0025208 0.991293)
(-0.000168688 0.0024918 0.991418)
(-0.00220454 0.00248999 0.997004)
(-0.00244025 0.00243255 0.980424)
(0.00268966 0.00243742 0.996582)
(0.0025769 0.00243663 1.01435)
(0.00046519 0.00241392 1.00836)
(0.00080919 0.00239787 1.00833)
(0.00030169 0.00237289 1.00817)
(1.19405e-05 0.0023427 1.00816)
(-0.000519601 0.00230858 1.00832)
(-0.000213264 0.00227017 1.00833)
(-0.0022672 0.00225089 1.01392)
(-0.00249738 0.0021847 0.997071)
(0.00266525 0.000326934 0.990819)
(0.00255576 0.000314467 1.00853)
(0.000455424 0.00030581 1.00259)
(0.000792563 0.000287961 1.00258)
(0.000281777 0.000266523 1.00244)
(-1.12404e-05 0.000240096 1.00246)
(-0.000543964 0.000209781 1.00266)
(-0.000237857 0.000179861 1.0027)
(-0.00228976 0.000153173 1.00832)
(-0.00250239 9.83162e-05 0.991461)
(0.00266289 0.000619003 0.990806)
(0.00254417 0.000606629 1.00849)
(0.000438536 0.000593734 1.00256)
(0.000769515 0.000572711 1.00255)
(0.000253199 0.000545775 1.0024)
(-4.47117e-05 0.000512794 1.00242)
(-0.000579692 0.000475237 1.0026)
(-0.000269982 0.000436675 1.00264)
(-0.00233761 0.00040597 1.0083)
(-0.00253859 0.00033781 0.991292)
(0.00265238 7.96379e-05 0.990662)
(0.00252831 6.20076e-05 1.00831)
(0.000421681 4.94988e-05 1.00239)
(0.000744611 2.78118e-05 1.00237)
(0.000221674 -5.68357e-07 1.00222)
(-8.19422e-05 -3.53134e-05 1.00223)
(-0.000620096 -7.48343e-05 1.0024)
(-0.000307435 -0.000115861 1.00242)
(-0.00238692 -0.000148563 1.00812)
(-0.00257038 -0.000213837 0.990975)
(0.0026434 -0.000229746 0.990677)
(0.00251312 -0.000248288 1.00829)
(0.000404649 -0.000259851 1.00239)
(0.000719617 -0.000280564 1.00236)
(0.000190076 -0.000307855 1.0022)
(-0.000118984 -0.00034097 1.0022)
(-0.000660082 -0.00037827 1.00236)
(-0.000343952 -0.000416915 1.00237)
(-0.00243509 -0.00044743 1.00811)
(-0.00260244 -0.000505846 0.990824)
(0.00263671 -0.000756716 0.990849)
(0.00249992 -0.000777383 1.00842)
(0.000388912 -0.000786527 1.00254)
(0.000696715 -0.000804253 1.00251)
(0.000161282 -0.000828032 1.00234)
(-0.000152353 -0.000856697 1.00234)
(-0.00069582 -0.000888684 1.00248)
(-0.000376068 -0.000922052 1.00248)
(-0.0024779 -0.000947987 1.00826)
(-0.002632 -0.000992267 0.990854)
(0.00262397 -0.000426256 0.990884)
(0.00248606 -0.000438841 1.00842)
(0.000377308 -0.000446947 1.00255)
(0.00067813 -0.000458667 1.00252)
(0.000137544 -0.000475872 1.00235)
(-0.000179815 -0.000496335 1.00233)
(-0.000725429 -0.000518995 1.00247)
(-0.000402959 -0.000543488 1.00246)
(-0.00250849 -0.000559431 1.00826)
(-0.00264823 -0.000592785 0.990782)
(0.00263931 -0.00252476 0.996754)
(0.00249163 -0.00254674 1.01432)
(0.000369147 -0.00254189 1.00844)
(0.000668356 -0.00255681 1.00843)
(0.000124192 -0.00257261 1.00828)
(-0.000195697 -0.0025924 1.00828)
(-0.000742988 -0.00261489 1.00844)
(-0.000416229 -0.00263415 1.00845)
(-0.00253983 -0.00266144 1.01431)
(-0.00268096 -0.00267653 0.996751)
(0.00260549 -0.00264276 0.979205)
(0.00246876 -0.00267608 0.996674)
(0.000355198 -0.00266144 0.990828)
(0.000644923 -0.00267512 0.990771)
(0.000100606 -0.00268384 0.990576)
(-0.000220788 -0.00269618 0.990529)
(-0.000764612 -0.00271117 0.990633)
(-0.000437301 -0.00271859 0.990593)
(-0.00255125 -0.00274704 0.996395)
(-0.00266728 -0.00273392 0.978802)
(0.0028868 0.00278827 0.973328)
(0.00268693 0.00281425 0.995849)
(0.00051403 0.00277915 0.988603)
(0.0009923 0.00277108 0.988607)
(0.000394664 0.00274581 0.988525)
(0.000186211 0.00271693 0.98866)
(-0.000450301 0.00268538 0.989018)
(-3.54028e-05 0.00263954 0.989252)
(-0.00211381 0.00263057 0.995978)
(-0.00253772 0.00254198 0.975411)
(0.00291188 0.00250485 0.995308)
(0.00268311 0.00250295 1.01785)
(0.000491299 0.002472 1.0105)
(0.000961722 0.00244928 1.01044)
(0.000344988 0.00241254 1.01025)
(0.000122397 0.00236745 1.01025)
(-0.000529353 0.00231552 1.01045)
(-0.000108408 0.00225404 1.01048)
(-0.00221674 0.00221886 1.0172)
(-0.00262648 0.00210808 0.996153)
(0.00287946 0.00030212 0.988286)
(0.00265461 0.000285767 1.01073)
(0.000477565 0.000273714 1.00346)
(0.000937181 0.00024773 1.00343)
(0.00031536 0.000216299 1.00328)
(8.72328e-05 0.000176342 1.00332)
(-0.000567176 0.000129305 1.00357)
(-0.000148247 8.08731e-05 1.00367)
(-0.0022596 3.60724e-05 1.01046)
(-0.00264289 -6.07233e-05 0.989375)
(0.00287668 0.000699598 0.988252)
(0.00263877 0.000683425 1.01067)
(0.0004531 0.000664715 1.00341)
(0.000903627 0.000634455 1.00337)
(0.000272584 0.000594877 1.00321)
(3.57982e-05 0.000545121 1.00324)
(-0.000624251 0.000486797 1.00347)
(-0.000201834 0.000423995 1.00355)
(-0.00234211 0.000371961 1.01041)
(-0.00270479 0.000254129 0.989066)
(0.00286166 3.38622e-05 0.988092)
(0.00261644 9.93527e-06 1.01044)
(0.000429089 -7.77697e-06 1.00321)
(0.000867373 -3.91315e-05 1.00317)
(0.000225677 -8.06873e-05 1.00299)
(-2.11747e-05 -0.000132885 1.00301)
(-0.00068827 -0.000193972 1.00322)
(-0.000264011 -0.000260245 1.00327)
(-0.00242605 -0.0003148 1.0102)
(-0.00275911 -0.000427143 0.988595)
(0.00284953 -0.000223505 0.988115)
(0.00259558 -0.000248336 1.01041)
(0.0004047 -0.00026453 1.0032)
(0.000831043 -0.000294378 1.00315)
(0.000178834 -0.000334118 1.00296)
(-7.751e-05 -0.000383497 1.00297)
(-0.0007513 -0.000440583 1.00315)
(-0.000323509 -0.000502337 1.00318)
(-0.00250709 -0.000551085 1.01017)
(-0.00281327 -0.000650762 0.988328)
(0.0028414 -0.000875363 0.98832)
(0.00257814 -0.000903856 1.01057)
(0.00038217 -0.000916244 1.00337)
(0.000798004 -0.000941984 1.00332)
(0.00013658 -0.000976487 1.00312)
(-0.000127631 -0.00101893 1.00311)
(-0.000806665 -0.0010674 1.00328)
(-0.000373777 -0.00111899 1.00329)
(-0.00257654 -0.00115973 1.01034)
(-0.00286234 -0.00123207 0.988288)
(0.00282359 -0.000427915 0.98839)
(0.00255876 -0.000445349 1.01057)
(0.000365643 -0.000457041 1.0034)
(0.000770828 -0.000473709 1.00334)
(0.00010169 -0.000498606 1.00315)
(-0.000168784 -0.000528645 1.00312)
(-0.000851359 -0.000562076 1.00328)
(-0.000415361 -0.00059978 1.00328)
(-0.00262441 -0.000623318 1.01037)
(-0.00288821 -0.000673555 0.988181)
(0.00284402 -0.00261531 0.995564)
(0.00256615 -0.00264387 1.01781)
(0.000353931 -0.0026374 1.01062)
(0.000757565 -0.00265838 1.01058)
(8.27016e-05 -0.00267987 1.01041)
(-0.00019158 -0.00270787 1.01041)
(-0.000877933 -0.00274059 1.01061)
(-0.00043456 -0.0027687 1.01062)
(-0.00266728 -0.0028044 1.01781)
(-0.00293291 -0.00282907 0.995494)
(0.00279991 -0.00285761 0.973344)
(0.0025363 -0.00290087 0.995435)
(0.000334394 -0.00288132 0.988303)
(0.000724418 -0.00290059 0.988201)
(4.97042e-05 -0.00291192 0.987964)
(-0.000227722 -0.0029292 0.987893)
(-0.000908701 -0.00295147 0.987992)
(-0.000462685 -0.00296162 0.987944)
(-0.00268536 -0.00299882 0.995035)
(-0.00291982 -0.00298505 0.972672)
(0.00304914 0.00293226 0.967389)
(0.00275498 0.00296342 0.994739)
(0.000558529 0.00291863 0.986167)
(0.00115387 0.00290696 0.986151)
(0.000473198 0.00287086 0.986108)
(0.000373914 0.00282874 0.98632)
(-0.000353868 0.00278073 0.986801)
(0.000161808 0.00271061 0.987206)
(-0.00187282 0.00268751 0.99498)
(-0.00250643 0.00255063 0.970828)
(0.0030788 0.00252851 0.994022)
(0.00274808 0.00252475 1.02141)
(0.000527929 0.0024845 1.01268)
(0.00111067 0.00245274 1.01258)
(0.000401 0.0024003 1.01237)
(0.000278184 0.00233438 1.01237)
(-0.000476148 0.00225533 1.0126)
(4.49957e-05 0.00215882 1.01268)
(-0.00204144 0.00209524 1.02043)
(-0.00264511 0.0019118 0.995437)
(0.00303793 0.000279016 0.985742)
(0.00271147 0.000258138 1.01299)
(0.000508875 0.00024157 1.00438)
(0.00107565 0.000205043 1.00431)
(0.00035809 0.00016 1.00416)
(0.000225442 0.000100999 1.00423)
(-0.00053528 2.86106e-05 1.00454)
(-2.06461e-05 -5.01372e-05 1.00473)
(-0.00212002 -0.000125906 1.01261)
(-0.00268452 -0.000292622 0.987524)
(0.00303415 0.00076206 0.985673)
(0.00269005 0.000741158 1.01287)
(0.000474708 0.000715076 1.00428)
(0.0010281 0.000672772 1.00421)
(0.000295562 0.000616032 1.00404)
(0.000147752 0.000542571 1.0041)
(-0.000625905 0.000453121 1.00437)
(-0.000109795 0.000351118 1.00452)
(-0.00226068 0.000264417 1.01254)
(-0.00278903 5.76352e-05 0.98696)
(0.00301369 -2.24506e-05 0.985513)
(0.00265976 -5.4012e-05 1.01263)
(0.000441444 -7.82518e-05 1.00407)
(0.000976669 -0.000122302 1.00398)
(0.000227308 -0.000181603 1.0038)
(6.20214e-05 -0.000258381 1.00383)
(-0.000726634 -0.000351483 1.00407)
(-0.000211347 -0.000457359 1.00418)
(-0.00240697 -0.000547334 1.0123)
(-0.00288609 -0.000746163 0.986248)
(0.00299773 -0.000206813 0.985548)
(0.00263189 -0.000239096 1.01258)
(0.000407533 -0.000261242 1.00405)
(0.000925293 -0.000302939 1.00396)
(0.000159471 -0.000359271 1.00376)
(-2.22396e-05 -0.000431297 1.00377)
(-0.000824347 -0.000517314 1.00398)
(-0.000307368 -0.000613596 1.00404)
(-0.00254473 -0.000692589 1.01228)
(-0.00298038 -0.00086197 0.985777)
(0.00298787 -0.000976251 0.985776)
(0.00260926 -0.00101401 1.01274)
(0.000376296 -0.00103051 1.00424)
(0.000879034 -0.0010667 1.00414)
(9.89836e-05 -0.00111532 1.00393)
(-9.59993e-05 -0.00117671 1.00391)
(-0.000908099 -0.00124842 1.0041)
(-0.000385484 -0.00132724 1.00413)
(-0.00265803 -0.00138971 1.01246)
(-0.0030609 -0.00151311 0.98561)
(0.00296432 -0.000431406 0.985902)
(0.00258331 -0.000454445 1.01278)
(0.000353293 -0.000470362 1.00431)
(0.000840525 -0.000493487 1.0042)
(4.9094e-05 -0.000528439 1.00398)
(-0.000155985 -0.000571301 1.00396)
(-0.000974879 -0.000619999 1.00412)
(-0.000448016 -0.000675797 1.00413)
(-0.00273571 -0.000710446 1.01254)
(-0.0031075 -0.00079208 0.985478)
(0.00299012 -0.00266156 0.994387)
(0.00259257 -0.00269761 1.02136)
(0.000337472 -0.00269009 1.01285)
(0.000822869 -0.00271834 1.01278)
(2.28179e-05 -0.00274707 1.01259)
(-0.000188314 -0.00278582 1.01261)
(-0.00101284 -0.002832 1.01282)
(-0.000475163 -0.00287226 1.01286)
(-0.00279563 -0.00292006 1.02141)
(-0.00316971 -0.00295713 0.994158)
(0.00293447 -0.00301795 0.96744)
(0.00255409 -0.0030722 0.994186)
(0.000310661 -0.00304811 0.985769)
(0.000777694 -0.00307385 0.985603)
(-2.23981e-05 -0.00308855 0.98533)
(-0.000238803 -0.00311241 0.985229)
(-0.00105694 -0.0031436 0.985303)
(-0.000515204 -0.00315922 0.985248)
(-0.0028218 -0.00320735 0.99366)
(-0.00315392 -0.0031921 0.966343)
(0.00316773 0.00303483 0.961369)
(0.00279579 0.0030707 0.993585)
(0.00061512 0.00301579 0.983708)
(0.00131988 0.00299904 0.983667)
(0.000583177 0.00294946 0.983685)
(0.000627202 0.00288943 0.983998)
(-0.000153877 0.00281857 0.984641)
(0.000455803 0.00271293 0.985303)
(-0.00141543 0.00266531 0.993959)
(-0.0023238 0.0024669 0.966752)
(0.00320142 0.0025241 0.992684)
(0.00278473 0.00251773 1.02495)
(0.000574905 0.0024673 1.01486)
(0.00126016 0.00242399 1.0147)
(0.000480712 0.00235171 1.01448)
(0.000487424 0.00225778 1.01448)
(-0.000339125 0.00214173 1.01473)
(0.000272286 0.00199409 1.01487)
(-0.00167466 0.00189336 1.02351)
(-0.00251158 0.00158882 0.994909)
(0.00315192 0.000258358 0.983172)
(0.00273943 0.000232394 1.01525)
(0.000549055 0.000210092 1.00532)
(0.00121202 0.00016045 1.0052)
(0.000420529 9.77266e-05 1.00507)
(0.000411173 1.27504e-05 1.00518)
(-0.00042783 -9.53605e-05 1.00555)
(0.000176832 -0.000221177 1.00587)
(-0.00182178 -0.000339547 1.01472)
(-0.00258641 -0.000662256 0.986014)
(0.00314647 0.000809797 0.983065)
(0.00271101 0.000783335 1.01508)
(0.000502933 0.000748326 1.00517)
(0.00114649 0.000690864 1.00505)
(0.000331343 0.00061166 1.0049)
(0.000296217 0.000505452 1.00498)
(-0.00057061 0.000370225 1.00531)
(2.75148e-05 0.000204248 1.00556)
(-0.00208381 5.09565e-05 1.01462)
(-0.00277448 -0.000343418 0.985082)
(0.00311985 -8.34745e-05 0.982918)
(0.00267146 -0.00012384 1.01481)
(0.000458124 -0.000155943 1.00495)
(0.00107545 -0.000216055 1.00482)
(0.000234243 -0.000298565 1.00464)
(0.000169115 -0.000409103 1.00468)
(-0.000728873 -0.000549166 1.00496)
(-0.000146037 -0.000719702 1.00514)
(-0.00235663 -0.000878516 1.01441)
(-0.00295784 -0.00124702 0.983986)
(0.00309945 -0.000183081 0.982969)
(0.00263531 -0.000223822 1.01475)
(0.000412333 -0.000253286 1.00493)
(0.00100472 -0.000309839 1.00479)
(0.0001382 -0.000387714 1.00459)
(4.53641e-05 -0.000490567 1.0046)
(-0.000880366 -0.000618101 1.00483)
(-0.000304987 -0.000770346 1.00494)
(-0.00260131 -0.000899649 1.01441)
(-0.00313014 -0.00120335 0.9832)
(0.00308758 -0.00106098 0.983215)
(0.00260653 -0.00110917 1.01491)
(0.000370362 -0.00113068 1.00513)
(0.000941675 -0.00118001 1.00497)
(5.35649e-05 -0.00124677 1.00475)
(-6.12364e-05 -0.00133363 1.00474)
(-0.00100715 -0.00143832 1.00492)
(-0.000426859 -0.0015575 1.00498)
(-0.00278791 -0.00164984 1.01463)
(-0.00326568 -0.0018482 0.982827)
(0.00305785 -0.000435506 0.983408)
(0.0025732 -0.000465381 1.01498)
(0.00033917 -0.000486293 1.00525)
(0.000888674 -0.000517624 1.00508)
(-1.60604e-05 -0.000565403 1.00485)
(-0.000147257 -0.000625569 1.00482)
(-0.00110421 -0.000695255 1.00498)
(-0.000516095 -0.000777712 1.00501)
(-0.00289398 -0.00082495 1.01477)
(-0.00333516 -0.000937856 0.982615)
(0.00308848 -0.00267776 0.993185)
(0.00258344 -0.00272152 1.0249)
(0.000318479 -0.00271342 1.0151)
(0.000865489 -0.00275006 1.01499)
(-5.2048e-05 -0.00278795 1.0148)
(-0.000192116 -0.00284061 1.01482)
(-0.00115952 -0.00290495 1.01504)
(-0.000555289 -0.00296353 1.01511)
(-0.00297174 -0.00302041 1.02508)
(-0.00341482 -0.0030786 0.992649)
(0.00302136 -0.00313699 0.961483)
(0.00253638 -0.00320191 0.992882)
(0.000283216 -0.00317341 0.983215)
(0.000805867 -0.00320632 0.982972)
(-0.000112552 -0.0032254 0.982669)
(-0.000262164 -0.00325749 0.982528)
(-0.00122213 -0.00330092 0.982558)
(-0.000606522 -0.00332378 0.98249)
(-0.00301126 -0.00338015 0.992255)
(-0.003391 -0.00336953 0.959768)
(0.00325198 0.0031095 0.955285)
(0.00282095 0.00315011 0.992368)
(0.000685684 0.0030853 0.981215)
(0.00149498 0.00306231 0.981142)
(0.000735052 0.00299696 0.981235)
(0.000963904 0.00291444 0.981674)
(0.000197339 0.00281236 0.982523)
(0.000943716 0.00266097 0.983527)
(-0.000731568 0.00257874 0.99265)
(-0.00181069 0.00234733 0.963978)
(0.00328979 0.00250912 0.991289)
(0.00280568 0.00250016 1.02845)
(0.000634823 0.00243947 1.01701)
(0.00141536 0.00238251 1.01678)
(0.000594654 0.00228627 1.01654)
(0.00076552 0.00215625 1.01652)
(-7.28876e-05 0.00198929 1.01679)
(0.00066967 0.00176933 1.01699)
(-0.00107663 0.00160254 1.02604)
(-0.00209605 0.00120483 0.995325)
(0.00323199 0.000245789 0.980578)
(0.00275171 0.00021463 1.01748)
(0.000600915 0.000185695 1.00626)
(0.00135128 0.00012042 1.00609)
(0.000512024 3.50356e-05 1.00597)
(0.000656957 -8.52405e-05 1.00612)
(-0.000207157 -0.000245019 1.00658)
(0.000514189 -0.000452117 1.00707)
(-0.00131231 -0.000675532 1.01662)
(-0.00232002 -0.00120897 0.985302)
(0.0032244 0.000849015 0.980434)
(0.0027153 0.000816633 1.01726)
(0.000540732 0.000771497 1.00607)
(0.0012632 0.000695642 1.00589)
(0.000387279 0.000587617 1.00575)
(0.000488799 0.000436793 1.00586)
(-0.000435765 0.000234465 1.00626)
(0.000238114 -4.08403e-05 1.00665)
(-0.00178554 -0.000328002 1.01663)
(-0.0027313 -0.00102161 0.983473)
(0.00319133 -0.000143485 0.980313)
(0.00266571 -0.000193282 1.01698)
(0.000482118 -0.000234317 1.00585)
(0.00116759 -0.000314001 1.00566)
(0.000251952 -0.000425988 1.00549)
(0.000303182 -0.000581991 1.00555)
(-0.000684529 -0.000789972 1.00587)
(-5.46368e-05 -0.00106397 1.00614)
(-0.00226547 -0.00133126 1.01648)
(-0.00308543 -0.00198037 0.981527)
(0.00316615 -0.000154485 0.980384)
(0.00262036 -0.000204271 1.01691)
(0.000422134 -0.000242223 1.00583)
(0.00107272 -0.000316742 1.00563)
(0.000118993 -0.000421802 1.00543)