/*--------------------------------*- C++ -*----------------------------------*\
  =========                 |
  \\      /  F ield         | OpenFOAM: The Open Source CFD Toolbox
   \\    /   O peration     | Website:  https://openfoam.org
    \\  /    A nd           | Version:  6
     \\/     M anipulation  |
\*---------------------------------------------------------------------------*/
FoamFile
{
    version     2.0;
    format      ascii;
    class       volScalarField;
    location    "1700";
    object      p;
}
// * * * * * * * * * * * * * * * * * * * * * * * * * * * * * * * * * * * * * //

dimensions      [0 2 -2 0 0 0 0];

internalField   nonuniform List<scalar> 
7000
(
0.0390441
0.0368115
0.0362953
0.0360737
0.0359725
0.0360006
0.0361553
0.0364216
0.0369739
0.0392592
0.0367913
0.0345574
0.0340428
0.033822
0.0337215
0.0337505
0.0339063
0.0341737
0.0347259
0.0370139
0.0362609
0.0340285
0.0335141
0.0332939
0.033194
0.0332238
0.0333804
0.0336486
0.0342018
0.0364895
0.0360209
0.0337889
0.0332749
0.0330552
0.0329561
0.0329866
0.0331439
0.0334127
0.0339666
0.036255
0.0358966
0.0336647
0.033151
0.0329317
0.032833
0.032864
0.0330218
0.0332911
0.0338454
0.036134
0.0358993
0.0336674
0.0331538
0.0329347
0.0328361
0.0328671
0.0330249
0.0332942
0.0338485
0.0361365
0.0360288
0.0337966
0.0332829
0.0330636
0.0329647
0.0329954
0.0331527
0.0334215
0.0339753
0.036262
0.0362735
0.0340408
0.0335268
0.0333071
0.0332076
0.0332375
0.033394
0.033662
0.0342151
0.0365003
0.036808
0.0345737
0.0340596
0.0338393
0.033739
0.0337681
0.0339235
0.0341905
0.0347424
0.037027
0.0390638
0.0368304
0.0363144
0.0360929
0.0359914
0.0360187
0.0361721
0.0364374
0.0369886
0.0392686
0.0361004
0.0346992
0.0347249
0.0345083
0.0344069
0.0344373
0.0345973
0.0348642
0.03487
0.0363349
0.0346725
0.0332705
0.0332997
0.0330829
0.0329819
0.033013
0.033174
0.0334425
0.0334464
0.034913
0.0346878
0.0332893
0.0333182
0.0331021
0.033002
0.0330342
0.0331965
0.0334662
0.0334725
0.0349369
0.0344504
0.0330514
0.0330808
0.0328655
0.0327661
0.0327992
0.0329623
0.0332328
0.0332402
0.0347058
0.0343236
0.0329242
0.0329541
0.0327392
0.0326401
0.0326736
0.0328372
0.0331082
0.0331165
0.0345818
0.0343263
0.0329266
0.0329566
0.0327417
0.0326427
0.0326761
0.0328395
0.0331102
0.0331188
0.0345827
0.034458
0.0330577
0.0330878
0.0328725
0.0327729
0.0328057
0.0329681
0.0332381
0.033246
0.0347073
0.0346997
0.0332993
0.0333291
0.033113
0.0330126
0.0330442
0.0332054
0.0334741
0.0334812
0.0349391
0.0346921
0.033288
0.0333186
0.033102
0.0330009
0.0330315
0.0331915
0.033459
0.0334643
0.0349227
0.0361164
0.0347116
0.0347381
0.0345206
0.0344177
0.0344459
0.0346031
0.0348674
0.0348733
0.0363268
0.033637
0.0328337
0.0331835
0.0329859
0.0329442
0.0329794
0.0330892
0.0333468
0.0330271
0.0339128
0.0328003
0.0319996
0.0323553
0.0321564
0.0321156
0.0321519
0.0322628
0.032524
0.0322012
0.0330858
0.0331413
0.0323464
0.0327009
0.0325033
0.0324636
0.0325015
0.0326143
0.0328771
0.0325587
0.0334401
0.0329181
0.0321214
0.0324769
0.0322801
0.0322411
0.0322799
0.032394
0.0326578
0.0323412
0.0332254
0.0328465
0.0320497
0.0324055
0.0322089
0.0321703
0.0322095
0.0323242
0.0325886
0.0322736
0.0331573
0.0328491
0.0320515
0.0324076
0.0322108
0.0321719
0.0322108
0.0323249
0.0325888
0.0322741
0.0331553
0.0329251
0.0321263
0.0324824
0.0322849
0.032245
0.0322826
0.0323951
0.0326571
0.0323414
0.0332185
0.0331509
0.0323526
0.032708
0.0325092
0.0324678
0.0325035
0.0326137
0.0328734
0.0325561
0.0334262
0.0328199
0.0320156
0.0323728
0.0321728
0.0321306
0.0321649
0.032273
0.032531
0.03221
0.0330813
0.033651
0.0328418
0.0331926
0.0329921
0.0329467
0.0329774
0.0330814
0.0333331
0.0330139
0.0338809
0.0323703
0.0317978
0.0321701
0.0319627
0.0319948
0.0320366
0.0320844
0.0323646
0.0320237
0.0327
0.031758
0.0311911
0.0315704
0.0313611
0.0313954
0.0314393
0.0314891
0.0317757
0.0314334
0.0321101
0.0321219
0.0315617
0.0319392
0.031732
0.0317681
0.0318145
0.0318676
0.032157
0.0318223
0.032498
0.0318828
0.0313198
0.0316989
0.0314925
0.0315297
0.0315777
0.0316331
0.031925
0.0315934
0.0322755
0.0318797
0.0313173
0.0316968
0.0314907
0.0315284
0.0315773
0.031634
0.0319273
0.0315989
0.0322807
0.0318824
0.031319
0.0316989
0.0314923
0.0315296
0.0315778
0.0316338
0.0319262
0.0315983
0.0322763
0.0318901
0.0313244
0.0317042
0.0314965
0.0315322
0.0315783
0.0316314
0.0319205
0.0315904
0.0322613
0.0321299
0.0315651
0.0319435
0.0317338
0.0317672
0.0318101
0.031859
0.0321434
0.03181
0.032468
0.0317778
0.0312061
0.0315871
0.0313754
0.0314073
0.0314478
0.0314932
0.0317743
0.0314345
0.0320899
0.032384
0.0318037
0.032177
0.0319647
0.0319912
0.032026
0.0320653
0.0323357
0.031995
0.0326429
0.0315067
0.0310453
0.0313635
0.0311442
0.0312274
0.0312772
0.0312879
0.0315957
0.0313083
0.0319017
0.0309991
0.0305455
0.0308711
0.0306497
0.0307374
0.0307912
0.0308059
0.0311248
0.0308419
0.0314404
0.0313092
0.0308626
0.031186
0.0309679
0.0310583
0.0311164
0.0311373
0.0314617
0.0311915
0.0317956
0.0310516
0.0306015
0.0309273
0.0307103
0.0308028
0.030864
0.0308894
0.0312193
0.0309561
0.0315735
0.0310943
0.0306455
0.0309721
0.0307557
0.0308493
0.0309124
0.0309406
0.0312737
0.0310173
0.0316361
0.0310974
0.0306474
0.0309744
0.0307574
0.0308504
0.0309128
0.0309401
0.0312719
0.0310166
0.0316292
0.0310605
0.030607
0.030934
0.0307153
0.030806
0.030865
0.0308875
0.0312132
0.0309531
0.0315519
0.031317
0.0308645
0.0311893
0.0309678
0.0310548
0.0311084
0.0311237
0.0314401
0.0311729
0.0317474
0.0310201
0.0305604
0.0308884
0.0306638
0.0307485
0.0307979
0.030807
0.0311167
0.0308376
0.0314008
0.0315202
0.0310489
0.0313689
0.031143
0.0312193
0.0312597
0.0312589
0.031551
0.0312651
0.0318124
0.0305547
0.0302052
0.030498
0.0302903
0.0304064
0.0304658
0.0304601
0.0307742
0.0305124
0.0310233
0.0301524
0.0298135
0.0301142
0.029905
0.0300283
0.0300948
0.0300974
0.03043
0.0301818
0.0307142
0.0304376
0.030106
0.0304047
0.0302003
0.030328
0.0304018
0.030415
0.0307586
0.0305319
0.0310855
0.0301851
0.0298497
0.0301519
0.0299493
0.0300807
0.0301601
0.030182
0.0305375
0.0303266
0.0309082
0.0302552
0.0299219
0.0302252
0.0300239
0.0301579
0.0302411
0.0302687
0.0306317
0.0304342
0.0310246
0.0302589
0.0299242
0.0302281
0.0300262
0.0301597
0.0302422
0.0302689
0.0306302
0.0304345
0.0310147
0.0301969
0.0298575
0.0301617
0.0299573
0.0300873
0.0301644
0.0301832
0.0305334
0.0303266
0.0308773
0.0304476
0.0301088
0.03041
0.0302018
0.030326
0.0303943
0.0304005
0.030733
0.0305093
0.0310123
0.0301772
0.0298312
0.0301358
0.0299232
0.0300438
0.030105
0.0301001
0.0304189
0.0301742
0.0306462
0.0305709
0.0302093
0.0305052
0.0302897
0.030398
0.0304452
0.0304237
0.0307146
0.0304521
0.0308879
0.0295257
0.0292809
0.0295611
0.0293798
0.0295194
0.0295889
0.0295779
0.0298894
0.0296324
0.0300693
0.0292214
0.0289903
0.0292793
0.029098
0.0292482
0.0293297
0.0293336
0.0296746
0.0294492
0.0299372
0.0294956
0.0292722
0.0295599
0.0293855
0.0295427
0.0296357
0.0296575
0.0300189
0.0298303
0.0303726
0.0292633
0.0290364
0.0293291
0.0291576
0.0293213
0.0294244
0.0294621
0.0298467
0.0296925
0.0302986
0.0293519
0.029128
0.0294224
0.0292536
0.029422
0.0295323
0.0295813
0.0299809
0.029855
0.0304926
0.0293566
0.0291311
0.0294266
0.0292573
0.0294256
0.0295354
0.0295838
0.029981
0.0298595
0.0304817
0.0292798
0.0290484
0.0293444
0.0291716
0.0293349
0.0294364
0.0294714
0.0298477
0.029703
0.0302584
0.0295105
0.0292789
0.0295709
0.0293928
0.0295472
0.0296345
0.029648
0.0299909
0.0298081
0.030263
0.0292537
0.0290146
0.0293098
0.0291256
0.0292742
0.0293499
0.0293439
0.0296604
0.0294376
0.0298175
0.0295478
0.0292888
0.0295746
0.0293848
0.0295162
0.0295705
0.0295373
0.0298097
0.0295482
0.0298595
0.0285141
0.0283473
0.0286052
0.0284503
0.0286044
0.0286834
0.0286749
0.0289866
0.0287404
0.029086
0.0282815
0.0281314
0.0283988
0.0282463
0.0284153
0.0285125
0.0285286
0.0288847
0.0286937
0.0291584
0.0285357
0.0283937
0.028661
0.0285179
0.0286974
0.0288123
0.0288567
0.0292483
0.0291257
0.0297224
0.0283247
0.0281799
0.0284538
0.0283156
0.0285059
0.0286379
0.0287101
0.0291464
0.0290977
0.0298503
0.0284246
0.0282837
0.0285605
0.0284269
0.0286253
0.0287702
0.0288636
0.029331
0.0293446
0.0301933
0.0284307
0.028288
0.0285667
0.0284329
0.0286321
0.0287775
0.0288715
0.0293384
0.0293627
0.0301944
0.0283474
0.0281979
0.0284772
0.0283387
0.028531
0.0286637
0.0287358
0.0291651
0.0291346
0.0298178
0.0285585
0.0284073
0.0286816
0.0285358
0.028715
0.0288255
0.0288612
0.0292274
0.0291084
0.0295583
0.0283252
0.0281666
0.0284436
0.0282898
0.0284599
0.0285519
0.0285548
0.0288703
0.0286719
0.0289485
0.0285467
0.0283639
0.0286309
0.0284679
0.0286145
0.0286752
0.0286349
0.0288813
0.0286185
0.0287644
0.027523
0.027411
0.0276382
0.0275056
0.027664
0.0277478
0.0277415
0.0280637
0.0278323
0.0280271
0.0273401
0.0272477
0.0274852
0.0273582
0.0275362
0.0276455
0.0276749
0.0280557
0.0279043
0.0283064
0.027568
0.0274841
0.0277232
0.0276087
0.027802
0.0279371
0.0280086
0.0284477
0.0284117
0.0291009
0.0273767
0.0272912
0.0275392
0.0274323
0.0276427
0.0278055
0.0279241
0.0284418
0.0285553
0.0296162
0.027482
0.0274014
0.027654
0.0275547
0.0277785
0.0279636
0.0281206
0.0286982
0.0289435
0.0302776
0.0274901
0.0274078
0.0276632
0.0275646
0.0277909
0.0279794
0.0281416
0.0287231
0.028998
0.0303474
0.0274078
0.0273179
0.0275742
0.0274697
0.0276869
0.027857
0.0279855
0.0285008
0.0286709
0.0296929
0.0276019
0.0275086
0.0277589
0.0276445
0.027843
0.0279796
0.0280484
0.028451
0.0284305
0.0289002
0.0273995
0.0272989
0.0275513
0.0274265
0.0276116
0.0277201
0.0277362
0.0280492
0.0278711
0.0279338
0.0275713
0.0274424
0.027684
0.0275456
0.0277004
0.0277654
0.0277184
0.0279325
0.0276499
0.0275305
0.0265141
0.026444
0.0266405
0.0265279
0.0266808
0.026761
0.0267456
0.0270759
0.0269505
0.0266243
0.0263695
0.0263216
0.0265295
0.0264259
0.0266028
0.0267145
0.0267431
0.0271356
0.0270795
0.0270269
0.0265731
0.0265343
0.0267458
0.0266578
0.0268553
0.0270017
0.0270889
0.0275644
0.0276758
0.0282967
0.0264022
0.0263636
0.0265864
0.0265097
0.0267319
0.0269205
0.0270827
0.0276826
0.0280731
0.029596
0.0265095
0.0264769
0.0267065
0.0266414
0.0268846
0.0271102
0.027338
0.0280497
0.028717
0.0309757
0.0265201
0.026486
0.0267198
0.0266571
0.0269064
0.0271412
0.0273858
0.0281208
0.0288765
0.0313068
0.0264436
0.0264014
0.0266367
0.0265669
0.0268052
0.0270159
0.027213
0.0278471
0.0283998
0.0301158
0.0266208
0.0265733
0.0268017
0.0267193
0.0269326
0.0270956
0.0272007
0.027645
0.0277834
0.0281365
0.0264484
0.0263939
0.0266236
0.0265285
0.0267236
0.0268467
0.0268734
0.0271652
0.0269865
0.0263963
0.0265829
0.0264967
0.0267152
0.026602
0.0267599
0.0268277
0.0267705
0.0269283
0.0266241
0.0259256
0.0254655
0.0254295
0.0255976
0.0255022
0.0256386
0.0257001
0.0256448
0.0258988
0.0259027
0.0256067
0.0253533
0.0253422
0.0255229
0.0254397
0.0256036
0.0256978
0.0256822
0.0259732
0.0258756
0.025483
0.0255374
0.025536
0.0257226
0.0256584
0.0258482
0.0259855
0.0260448
0.0264311
0.0264759
0.0270903
0.0253884
0.0253894
0.0255902
0.0255418
0.0257656
0.0259628
0.0261331
0.0266966
0.0271352
0.0294098
0.0254963
0.0255049
0.0257155
0.0256838
0.0259388
0.0261936
0.0264752
0.0272231
0.0281362
0.0319527
0.0255101
0.0255178
0.0257346
0.0257081
0.0259749
0.0262506
0.0265748
0.0273943
0.0285195
0.0327571
0.0254422
0.0254418
0.0256608
0.0256269
0.025882
0.0261302
0.0263964
0.0270962
0.0279807
0.0310518
0.0256023
0.0255945
0.025806
0.0257567
0.0259806
0.0261659
0.0263015
0.0267267
0.0269874
0.0273489
0.0254557
0.0254415
0.0256534
0.0255892
0.02579
0.0259235
0.025949
0.0261549
0.0259176
0.0243266
0.0255607
0.0255113
0.0257119
0.0256256
0.0257844
0.0258538
0.0257835
0.0258467
0.0255088
0.0242909
0.024375
0.0243675
0.0245096
0.0244294
0.0245437
0.0245761
0.024469
0.0246096
0.0247572
0.0270187
0.0242906
0.0243105
0.0244663
0.0244011
0.0245435
0.0246019
0.024501
0.0246039
0.0243708
0.0254984
0.024458
0.0244885
0.0246523
0.0246085
0.0247799
0.0248815
0.0248486
0.0250006
0.0245438
0.0253036
0.0243308
0.0243659
0.0245466
0.0245231
0.024736
0.02491
0.0250132
0.0253405
0.0249969
0.026744
0.0244384
0.0244828
0.0246766
0.0246754
0.0249302
0.0251834
0.025449
0.0260257
0.0261826
0.0298767
0.0244558
0.0245
0.0247024
0.02471
0.0249845
0.025275
0.0256242
0.0263496
0.0269153
0.0314352
0.0243982
0.0244346
0.0246404
0.0246413
0.0249061
0.0251731
0.0254741
0.0261204
0.0266859
0.0302321
0.0245416
0.0245689
0.0247672
0.0247507
0.0249809
0.0251779
0.0253322
0.0256833
0.025834
0.0266428
0.0244184
0.0244398
0.0246379
0.0246053
0.0248098
0.0249487
0.0249775
0.0250851
0.0248465
0.0235844
0.0244995
0.0244837
0.0246712
0.0246141
0.0247755
0.0248496
0.0247892
0.0247793
0.0244822
0.0239487
0.0232409
0.0232582
0.0233773
0.023313
0.0234069
0.0234099
0.0232306
0.0232032
0.0227051
0.0241539
0.0231803
0.0232274
0.0233614
0.0233148
0.0234371
0.023459
0.0232485
0.0230924
0.0221502
0.021659
0.0233329
0.0233913
0.0235351
0.0235115
0.0236632
0.023722
0.0235534
0.0233818
0.0219889
0.0199122
0.0232261
0.0232915
0.0234546
0.0234552
0.023654
0.0237885
0.0237658
0.0237746
0.0222034
0.0199376
0.023333
0.0234094
0.0235891
0.0236176
0.0238686
0.0241
0.0242956
0.024668
0.0236712
0.0243118
0.0233542
0.0234314
0.0236222
0.0236638
0.0239434
0.0242301
0.0245631
0.0252043
0.0250183
0.0283306
0.023308
0.0233782
0.0235739
0.0236105
0.0238851
0.0241575
0.0244682
0.0250736
0.025136
0.0279308
0.0234367
0.0234964
0.0236851
0.0237035
0.0239434
0.024148
0.0243196
0.0246305
0.0244531
0.0245065
0.0233345
0.0233894
0.0235776
0.0235795
0.0237927
0.0239386
0.023984
0.024042
0.0236062
0.0218055
0.0233979
0.0234137
0.0235924
0.0235686
0.0237404
0.0238261
0.0237904
0.0237577
0.0231742
0.0217802
0.0220606
0.0221017
0.0222036
0.0221612
0.0222483
0.0222476
0.022
0.0217702
0.0206394
0.020197
0.0220207
0.0220943
0.0222128
0.0221931
0.0223142
0.0223436
0.0220831
0.0217298
0.0203873
0.0184325
0.0221594
0.0222448
0.0223746
0.0223794
0.0225316
0.0225969
0.0223793
0.0220391
0.0203759
0.0164497
0.0220711
0.0221656
0.0223167
0.0223491
0.0225534
0.0226953
0.0226342
0.0225519
0.020716
0.0155432
0.0221766
0.0222835
0.0224538
0.0225189
0.0227844
0.0230331
0.0232314
0.0236491
0.0224841
0.020372
0.0222011
0.0223097
0.022493
0.0225741
0.0228751
0.0231901
0.0235634
0.0243591
0.02429
0.0268154
0.0221665
0.022269
0.0224584
0.0225355
0.0228343
0.0231371
0.0234876
0.0242294
0.024437
0.0270722
0.0222818
0.0223727
0.0225557
0.0226139
0.0228779
0.0231118
0.0233174
0.0237068
0.0235931
0.0232277
0.0221989
0.0222858
0.0224678
0.0225087
0.0227446
0.022917
0.0229898
0.0230928
0.0227482
0.0206342
0.0222479
0.0222955
0.0224698
0.0224845
0.0226813
0.0227952
0.0227849
0.0228017
0.0222173
0.0201518
0.0208268
0.0208913
0.0209825
0.0209721
0.0210742
0.0211256
0.02092
0.0206315
0.0193632
0.0179991
0.0208049
0.020905
0.0210155
0.0210358
0.0211861
0.0212994
0.021162
0.0208588
0.0196426
0.0180198
0.0209305
0.0210426
0.0211656
0.0212126
0.0213998
0.0215607
0.0215071
0.0213609
0.0204064
0.0182051
0.0208585
0.0209817
0.0211274
0.0212058
0.0214535
0.0217007
0.0218294
0.0221242
0.0216758
0.0188506
0.0209619
0.0210986
0.0212655
0.0213801
0.0216965
0.0220544
0.0224496
0.0233587
0.023743
0.0236937
0.0209891
0.0211281
0.0213091
0.0214402
0.0217948
0.0222153
0.0227764
0.0240365
0.0251707
0.0290035
0.0209658
0.0210997
0.0212872
0.0214133
0.0217629
0.0221587
0.0226535
0.0237059
0.0246539
0.0278386
0.0210695
0.0211911
0.0213727
0.0214781
0.0217897
0.0221056
0.0224214
0.0230009
0.0234212
0.0234012
0.021003
0.021122
0.0213018
0.0213882
0.0216675
0.0219128
0.0220776
0.0223182
0.0224879
0.0207587
0.021042
0.0211214
0.021295
0.0213539
0.0215936
0.0217784
0.0218407
0.0219904
0.0218591
0.0198473
0.019536
0.019622
0.0197074
0.0197393
0.0198792
0.0200427
0.0200462
0.0199686
0.0189967
0.0177578
0.0195297
0.0196544
0.0197617
0.0198332
0.0200385
0.0202959
0.0204588
0.0204952
0.019549
0.0189968
0.0196421
0.0197784
0.0198987
0.0199984
0.0202483
0.020571
0.0208789
0.0212634
0.0211861
0.0225359
0.0195841
0.0197329
0.0198768
0.0200117
0.0203345
0.0207673
0.0213143
0.0223711
0.0238985
0.0275388
0.0196844
0.0198475
0.0200134
0.0201858
0.0205829
0.0211255
0.0219194
0.0236656
0.0265319
0.0341449
0.0197132
0.019879
0.0200588
0.0202453
0.0206758
0.0212581
0.0221356
0.0240433
0.0270377
0.0351223
0.0197002
0.0198621
0.0200481
0.0202261
0.020642
0.0211709
0.021887
0.0232898
0.0251276
0.029344
0.019793
0.0199427
0.020123
0.0202777
0.0206491
0.021083
0.0215758
0.0223531
0.02336
0.0238406
0.0197408
0.0198885
0.0200657
0.0201987
0.0205317
0.0208879
0.0212139
0.0216111
0.0223825
0.0211915
0.019771
0.0198805
0.0200532
0.0201574
0.0204504
0.0207464
0.0209513
0.0212718
0.0217601
0.0200822
0.0181835
0.0182823
0.018359
0.0184298
0.0186073
0.0188865
0.0191856
0.0195491
0.0192906
0.0189073
0.0181894
0.018329
0.0184277
0.0185418
0.018791
0.0191641
0.0196282
0.0201439
0.0194148
0.0198512
0.0182876
0.0184374
0.0185473
0.0186874
0.018983
0.0194232
0.0200505
0.0210036
0.0212043
0.0255284
0.0182405
0.0184039
0.0185376
0.0187156
0.0190972
0.0196729
0.0205896
0.0223329
0.0246289
0.0346051
0.0183364
0.0185147
0.0186706
0.0188859
0.0193469
0.0200392
0.0211922
0.0236389
0.0279059
0.043915
0.0183654
0.0185471
0.0187163
0.0189423
0.0194299
0.0201407
0.0212824
0.023687
0.028146
0.0414925
0.0183612
0.0185412
0.0187163
0.0189308
0.0193937
0.0200246
0.0209138
0.0225318
0.0250466
0.0307282
0.018445
0.0186138
0.0187846
0.0189753
0.0193908
0.0199236
0.0205848
0.0214939
0.0229778
0.0241229
0.0184046
0.0185731
0.0187401
0.0189089
0.0192834
0.0197451
0.0202648
0.020796
0.0221608
0.0215947
0.0184299
0.0185617
0.0187264
0.0188674
0.0192044
0.0196204
0.020026
0.0205229
0.0217976
0.0207307
0.0167713
0.016867
0.0169241
0.0170142
0.0172041
0.0175517
0.0181334
0.0191264
0.020161
0.0223386
0.0167854
0.0169213
0.0169954
0.0171205
0.0173639
0.0177499
0.018373
0.0194046
0.0192
0.0215379
0.0168677
0.0170109
0.0170907
0.0172311
0.0175075
0.0179278
0.0186331
0.0199715
0.0201046
0.0270113
0.0168283
0.0169858
0.0170873
0.0172631
0.0176289
0.0181819
0.0191165
0.0210905
0.0226369
0.0363467
0.0169184
0.0170915
0.0172148
0.0174262
0.0178752
0.0185522
0.0196918
0.0222429
0.0257039
0.0449148
0.0169463
0.0171246
0.0172611
0.0174827
0.0179582
0.0186598
0.0197728
0.022172
0.0266643
0.0421872
0.0169499
0.0171297
0.0172737
0.0174861
0.0179371
0.0185655
0.0194427
0.0209681
0.0235801
0.0304387
0.0170255
0.0171972
0.0173405
0.0175352
0.0179473
0.0185044
0.0192499
0.0201638
0.0220656
0.0246159
0.0169951
0.0171679
0.0173081
0.0174854
0.0178616
0.0183738
0.0190706
0.0196988
0.0218416
0.0230462
0.0170158
0.0171554
0.017297
0.0174519
0.0177987
0.0182978
0.0189381
0.0196197
0.0220505
0.023311
0.0153077
0.0153802
0.0154043
0.0154839
0.0156481
0.0159839
0.0167454
0.0182748
0.0208194
0.0312727
0.0153244
0.0154332
0.015463
0.0155551
0.0157284
0.0160025
0.0165657
0.017914
0.018412
0.0271517
0.0153878
0.0154988
0.0155247
0.0156119
0.015787
0.0160351
0.0165062
0.0178694
0.0173466
0.0280637
0.015352
0.0154765
0.0155185
0.0156293
0.0158767
0.0162116
0.0167188
0.0182707
0.0176242
0.0314158
0.0154336
0.0155743
0.0156358
0.0157766
0.0161022
0.0165562
0.0171819
0.0189772
0.0196506
0.035442
0.0154582
0.0156065
0.0156818
0.0158355
0.0161946
0.0167096
0.0173952
0.0190429
0.0217793
0.0353767
0.0154672
0.0156217
0.0157072
0.0158612
0.0162097
0.0166957
0.0173203
0.0182896
0.0201844
0.0286717
0.0155363
0.0156872
0.0157777
0.015928
0.01626
0.0167265
0.017429
0.0181023
0.0201122
0.0271779
0.0155143
0.0156691
0.0157591
0.0159031
0.0162148
0.016672
0.0174867
0.0180712
0.0207898
0.0285976
0.0155341
0.0156597
0.015756
0.0158891
0.0161867
0.0166737
0.0175377
0.0183033
0.0217861
0.0313327
0.0138114
0.0138412
0.0138204
0.0138546
0.0139454
0.0141448
0.0148664
0.0167381
0.0184879
0.0388006
0.0138251
0.0138842
0.0138533
0.0138676
0.0139067
0.0139366
0.014198
0.0157178
0.015357
0.0331028
0.0138672
0.0139216
0.0138755
0.0138595
0.0138583
0.0137984
0.0137592
0.0148667
0.0119094
0.0245665
0.0138309
0.0138968
0.0138582
0.0138457
0.0138787
0.0138431
0.0135712
0.0142096
0.00951665
0.018063
0.0139015
0.0139838
0.0139604
0.0139679
0.0140627
0.0141371
0.0138662
0.0142439
0.0102766
0.0175407
0.0139207
0.0140132
0.014004
0.0140299
0.0141696
0.0143541
0.0143066
0.0145568
0.0134332
0.0227159
0.0139329
0.0140365
0.0140404
0.0140813
0.0142359
0.0144465
0.0146341
0.0147822
0.0145173
0.0273245
0.0139958
0.0141015
0.0141164
0.014173
0.0143447
0.0145818
0.0151123
0.0155693
0.016193
0.0319124
0.0139812
0.014093
0.0141107
0.0141766
0.0143533
0.0146046
0.015419
0.0161346
0.0175558
0.0355017
0.0140004
0.0140879
0.0141169
0.0141869
0.0143679
0.0146755
0.0156359
0.0166134
0.0186743
0.0377384
0.0228532
0.0241986
0.0241294
0.0238983
0.0236073
0.0234991
0.0235833
0.0235175
0.0236407
0.0225165
0.022578
0.0245462
0.0250058
0.0242065
0.0233241
0.0230194
0.0231238
0.0232649
0.0237285
0.0232935
0.0247828
0.0262888
0.0261019
0.0247242
0.0236124
0.023093
0.0230032
0.023183
0.023644
0.0226511
0.0279351
0.0284626
0.0266625
0.02503
0.0240809
0.0231932
0.0227552
0.0229677
0.023465
0.0215439
0.0304223
0.0293563
0.0266949
0.025059
0.0238865
0.0226752
0.0222444
0.0225213
0.0231095
0.0202902
0.0312787
0.0291066
0.025454
0.0235137
0.022241
0.0214451
0.0214071
0.0217374
0.0225072
0.0193585
0.0299874
0.0278982
0.0238596
0.0218658
0.0209707
0.0206923
0.0207024
0.0208986
0.0218958
0.0186428
0.0269331
0.026616
0.0237343
0.022217
0.0215512
0.0211962
0.0208329
0.0207264
0.0217792
0.019406
0.0239423
0.0256637
0.0244465
0.0231402
0.0223104
0.0217805
0.0214467
0.0212183
0.0218768
0.0204331
0.0238256
0.0255704
0.0248874
0.0234511
0.022401
0.0219153
0.0217979
0.0218594
0.0221267
0.0213246
0.0250936
0.0234404
0.0226199
0.022738
0.022836
0.0227898
0.0228716
0.0231292
0.0238605
0.0245203
0.0230456
0.0214689
0.02182
0.0219595
0.0218844
0.0218456
0.0219006
0.022365
0.0236219
0.0240344
0.0226529
0.0222969
0.0229269
0.0228084
0.0224202
0.021883
0.0215299
0.022364
0.0236517
0.0228246
0.0245245
0.0245418
0.0240192
0.0235766
0.0231905
0.0222098
0.0216868
0.0223487
0.0232139
0.0216666
0.0274439
0.0255964
0.0240859
0.023434
0.0229001
0.0220053
0.0217171
0.0218127
0.0223331
0.0213255
0.0285059
0.0246644
0.0223507
0.0211329
0.0205122
0.0202567
0.0205415
0.0207136
0.0213397
0.0211721
0.0271005
0.0226526
0.0200418
0.0185714
0.0181387
0.0184587
0.0189693
0.0194009
0.0204931
0.0207624
0.0247508
0.0215337
0.0194813
0.018402
0.0183767
0.0189468
0.0191014
0.0191637
0.0202766
0.0210903
0.0229155
0.0218381
0.020392
0.0197245
0.0198656
0.0202872
0.0205492
0.0206071
0.0211949
0.0217968
0.0234988
0.0228399
0.0216702
0.0208588
0.0207408
0.0211317
0.0216823
0.0222527
0.0224344
0.0227654
0.0232617
0.0209454
0.0200101
0.0206537
0.0210718
0.0211376
0.0214285
0.0220144
0.0230932
0.0234669
0.0190891
0.0169923
0.0179184
0.0192355
0.020029
0.0204351
0.0207424
0.0212631
0.0226673
0.0224402
0.0158388
0.0164996
0.0191396
0.0204767
0.0209699
0.0209888
0.0208962
0.0213916
0.0226549
0.0214927
0.0166531
0.0191201
0.0212575
0.0219866
0.0222607
0.021813
0.0214587
0.0214033
0.0220174
0.021056
0.0214167
0.0218924
0.0218546
0.0221342
0.0222652
0.021773
0.0214852
0.0210646
0.0212299
0.0216734
0.0243761
0.0216553
0.0204467
0.019807
0.0197171
0.0197422
0.0201024
0.0200822
0.0205461
0.0212793
0.0230097
0.0198691
0.0184229
0.0176314
0.0174293
0.01786
0.0187019
0.0188641
0.0198065
0.0210501
0.0209846
0.0188433
0.0177675
0.0170838
0.0170734
0.0177839
0.0185919
0.0188211
0.0198975
0.0215608
0.0205875
0.0191643
0.0181874
0.0180263
0.0186032
0.0195059
0.020397
0.0210465
0.0217196
0.0225651
0.0215328
0.0202893
0.0193794
0.0191973
0.0197439
0.0208357
0.0220193
0.0230394
0.0230987
0.0232962
0.0195925
0.0179879
0.017131
0.0179194
0.0186071
0.0190344
0.0195744
0.020277
0.0212492
0.0207115
0.0152754
0.0134085
0.0144534
0.016091
0.017442
0.0183208
0.0190592
0.0195605
0.0207868
0.0199462
0.0114404
0.0121133
0.0155054
0.0174852
0.0185031
0.0190786
0.0196643
0.0199242
0.020778
0.0196405
0.0120151
0.0148005
0.0186868
0.0200003
0.020256
0.0201722
0.0204814
0.0202485
0.0203746
0.0199582
0.0172251
0.0191637
0.0201913
0.0209685
0.0209252
0.0203983
0.0202536
0.0199832
0.0198828
0.020692
0.0217631
0.0201112
0.0193647
0.019399
0.0194796
0.0191613
0.0190214
0.0188671
0.0192727
0.0199312
0.021079
0.0188304
0.0177236
0.0175912
0.0175823
0.0179586
0.0185935
0.0183345
0.0191391
0.0207959
0.0189725
0.0177087
0.0169691
0.016844
0.0171112
0.018217
0.0195228
0.0195641
0.0204915
0.02282
0.0189668
0.0177388
0.0171992
0.017561
0.0184875
0.0197615
0.0211324
0.0220675
0.0230159
0.0242615
0.0199256
0.018839
0.0183578
0.0186427
0.0196914
0.0212695
0.0227375
0.0237796
0.0239559
0.0243575
0.0175682
0.0168882
0.0159832
0.0162704
0.0170942
0.0178901
0.0183524
0.0186242
0.0193022
0.0184351
0.0147033
0.0128512
0.0128102
0.0138068
0.0152822
0.0163093
0.0170925
0.0175585
0.0185888
0.0179265
0.0129428
0.0119094
0.0133426
0.0146742
0.0156896
0.016282
0.01691
0.0173817
0.0180848
0.0176831
0.0153259
0.0148363
0.0170565
0.0174219
0.0170345
0.0168411
0.0170835
0.0173786
0.0175549
0.0176541
0.0198045
0.0194253
0.019657
0.01943
0.0181558
0.0172626
0.0168296
0.0166924
0.0168413
0.017429
0.0220794
0.0201591
0.0193123
0.0192647
0.018288
0.0170907
0.0162135
0.0155259
0.0160051
0.0166529
0.0207297
0.0187091
0.017898
0.0183431
0.0185149
0.0183835
0.0179006
0.0167471
0.0170301
0.0191325
0.0187644
0.0174792
0.0171768
0.0177749
0.0186537
0.0199595
0.0208094
0.0198915
0.0203273
0.0235343
0.0187382
0.0175123
0.0172899
0.0179869
0.0191543
0.0206191
0.0220698
0.0227347
0.0241605
0.0265016
0.019542
0.0185346
0.0182522
0.0186652
0.0198905
0.0216506
0.0232941
0.0242287
0.0255331
0.027114
0.0173071
0.0175623
0.0166639
0.0157958
0.0161098
0.0170733
0.0175871
0.0175034
0.017854
0.0168327
0.0157454
0.0146139
0.0132785
0.0129657
0.0140423
0.014705
0.014992
0.0156048
0.0166821
0.0163507
0.0173046
0.0144837
0.0131023
0.0130419
0.0132123
0.0126726
0.0132162
0.0144178
0.0153448
0.0155599
0.0218234
0.0176176
0.0162448
0.0147025
0.0134288
0.0125389
0.0127637
0.0137054
0.0142165
0.0143847
0.0265938
0.0215146
0.0194771
0.0173247
0.0147318
0.0135046
0.0130418
0.0128564
0.0132359
0.0130931
0.0256479
0.0213374
0.0196227
0.0186918
0.0159929
0.0140885
0.0132666
0.0122862
0.0124445
0.0123463
0.0210524
0.0187463
0.0180239
0.0187527
0.018974
0.0176462
0.015897
0.0137502
0.0136416
0.0152096
0.0186096
0.0172791
0.0173992
0.0187479
0.020321
0.0210662
0.0204066
0.0177972
0.0173337
0.0202383
0.0187531
0.0175938
0.0175738
0.0185889
0.0199207
0.0210682
0.0219379
0.0218071
0.0228158
0.0245968
0.0195646
0.0186014
0.0183213
0.0187686
0.0200148
0.0215211
0.02282
0.0234952
0.0257739
0.0270593
0.0179395
0.0189886
0.0181344
0.0160065
0.0154828
0.0162122
0.0165714
0.0169229
0.0172392
0.0157535
0.0164281
0.0167288
0.0148843
0.0133237
0.0135811
0.012943
0.012894
0.0143078
0.0157749
0.0152914
0.0198726
0.0168149
0.0139176
0.0126208
0.0116659
0.0095126
0.0101494
0.0125248
0.0139029
0.0139625
0.0263341
0.0201003
0.0159694
0.0128655
0.0106972
0.00918342
0.00973378
0.0117433
0.0123582
0.0116422
0.0308237
0.0233214
0.0191362
0.0152903
0.0120838
0.0107592
0.0108053
0.0115335
0.0114279
0.00915973
0.0286834
0.0223683
0.0198673
0.017853
0.0141703
0.0124124
0.0122458
0.0116691
0.0106917
0.00785384
0.0210415
0.0185513
0.0180872
0.0185661
0.0178434
0.0162646
0.0150265
0.012827
0.0110678
0.00948265
0.0179084
0.0167905
0.0173292
0.018762
0.0203218
0.0205325
0.0191714
0.0155363
0.0133663
0.0123814
0.0182563
0.0173096
0.017674
0.0189766
0.0201331
0.0206303
0.021144
0.0184959
0.0163295
0.0144349
0.0194299
0.0184285
0.0182285
0.018802
0.0197934
0.0206804
0.0210078
0.0195804
0.0193637
0.0169485
0.0201931
0.0210206
0.0200979
0.0178964
0.0179294
0.0181642
0.0170841
0.0173298
0.0179668
0.0161734
0.0176975
0.0188697
0.01762
0.015435
0.0151356
0.0137865
0.0128933
0.0149353
0.0171975
0.0165993
0.0209
0.0180394
0.0156524
0.0136053
0.0119882
0.0092638
0.00995101
0.0133005
0.0156547
0.0153684
0.0267693
0.0201179
0.0162387
0.0127948
0.0101231
0.00878738
0.0100494
0.0130158
0.0135623
0.011255
0.0297339
0.0230165
0.0184225
0.0140979
0.0114427
0.0106805
0.0116286
0.013281
0.0112186
0.00526388
0.0274897
0.0218865
0.019287
0.0165758
0.013765
0.0131572
0.0138963
0.0133276
0.008504
0.00118949
0.0193903
0.017907
0.0181217
0.0181437
0.0170527
0.0167206
0.0163718
0.0125324
0.00605501
-4.1256e-06
0.0169896
0.0161872
0.0168921
0.0185621
0.0199952
0.0209028
0.01948
0.0122815
0.00571162
0.00101426
0.0182253
0.017004
0.0173646
0.0184447
0.0200192
0.02131
0.0220924
0.0143242
0.00608145
-0.000406019
0.0203903
0.0183471
0.0177871
0.0183838
0.0197207
0.0208234
0.0213051
0.0164611
0.00769852
-0.000772367
0.0305574
0.0261734
0.0237286
0.0240366
0.0256937
0.0247107
0.0203954
0.0180747
0.019463
0.0197934
0.0261656
0.0238866
0.02295
0.0223021
0.0216342
0.0184047
0.0145434
0.0152209
0.018992
0.020175
0.023701
0.0212945
0.0212313
0.0198999
0.0166268
0.0119711
0.0107617
0.0126912
0.0169623
0.0213925
0.0238428
0.0211801
0.0208745
0.0176169
0.0125559
0.00981825
0.0100196
0.0106049
0.013077
0.0207441
0.024289
0.0225303
0.0207867
0.0162789
0.0122688
0.0108907
0.01085
0.00919866
0.00812572
0.0153303
0.0227432
0.0209257
0.0198018
0.0174865
0.0153443
0.0142643
0.01296
0.00713426
0.00339298
0.00982988
0.0180401
0.0173144
0.0185907
0.0196862
0.0206403
0.0204366
0.0164723
0.00579074
0.000301801
0.00410335
0.0192855
0.0150253
0.0150784
0.0191971
0.0235057
0.0259352
0.022171
0.00837211
2.66385e-05
0.00105157
0.0238022
0.0164627
0.0143069
0.0175133
0.0227122
0.0270637
0.0264965
0.0138285
0.000680527
-0.00163889
0.0295031
0.0196006
0.0161951
0.0187512
0.0230804
0.0257034
0.0263814
0.0188047
0.00391407
-0.00151131
0.0597966
0.0401242
0.0313104
0.031275
0.0322363
0.0312503
0.0261685
0.0206684
0.0324593
0.0656942
0.0587147
0.0410184
0.0334741
0.0325639
0.0311502
0.0275781
0.0213424
0.0177322
0.0322157
0.0694609
0.0447376
0.0363672
0.0332365
0.0314804
0.0276379
0.0224425
0.0169414
0.0137366
0.0310712
0.0853673
0.0299302
0.0316325
0.031279
0.0287972
0.0244029
0.0206149
0.0158162
0.00932036
0.0298965
0.105322
0.0262389
0.0293612
0.0296169
0.0273143
0.025037
0.0237746
0.0179663
0.00593355
0.027704
0.113151
0.0275823
0.0268408
0.0273693
0.0275154
0.0284964
0.0290675
0.0211557
0.00557437
0.0263832
0.112688