/*--------------------------------*- C++ -*----------------------------------*\
  =========                 |
  \\      /  F ield         | OpenFOAM: The Open Source CFD Toolbox
   \\    /   O peration     | Website:  https://openfoam.org
    \\  /    A nd           | Version:  6
     \\/     M anipulation  |
\*---------------------------------------------------------------------------*/
FoamFile
{
    version     2.0;
    format      ascii;
    class       volVectorField;
    location    "1700";
    object      U;
}
// * * * * * * * * * * * * * * * * * * * * * * * * * * * * * * * * * * * * * //

dimensions      [0 1 -1 0 0 0 0];

internalField   nonuniform List<vector> 
7000
(
(0.000596966 0.000603419 0.997867)
(0.000750758 0.000604437 0.999406)
(0.000204674 0.000604022 0.998942)
(7.05197e-05 0.000603998 0.998942)
(6.55213e-06 0.000603969 0.998944)
(-5.6532e-05 0.000603903 0.998942)
(-0.000115364 0.000603797 0.998938)
(-0.000241423 0.000603669 0.998936)
(-0.000782029 0.000603917 0.999406)
(-0.000611972 0.000602749 0.997852)
(0.000597938 0.000764735 0.999413)
(0.00075097 0.000765101 1.00095)
(0.000204234 0.000765073 1.00049)
(7.01627e-05 0.000764999 1.00049)
(6.19793e-06 0.00076501 1.00049)
(-5.69484e-05 0.000765025 1.00049)
(-0.000115748 0.00076503 1.00049)
(-0.000241668 0.000765059 1.00048)
(-0.000782755 0.000764918 1.00095)
(-0.000613136 0.000764293 0.999399)
(0.000597535 0.000222017 0.998946)
(0.000750947 0.000221848 1.00049)
(0.000204317 0.000221967 1.00002)
(7.02487e-05 0.000222071 1.00002)
(6.30932e-06 0.000222244 1.00002)
(-5.6824e-05 0.000222483 1.00002)
(-0.000115648 0.000222761 1.00002)
(-0.000241692 0.000222998 1.00002)
(-0.000782852 0.000223007 1.00049)
(-0.000612845 0.000223023 0.998932)
(0.000597561 9.24317e-05 0.998946)
(0.000750932 9.24856e-05 1.00049)
(0.00020443 9.26466e-05 1.00002)
(7.04327e-05 9.28527e-05 1.00002)
(6.58295e-06 9.31667e-05 1.00002)
(-5.64785e-05 9.35839e-05 1.00002)
(-0.000115292 9.40595e-05 1.00002)
(-0.000241439 9.44921e-05 1.00002)
(-0.000782695 9.47179e-05 1.00049)
(-0.000612861 9.47809e-05 0.998934)
(0.000597632 3.18509e-05 0.998949)
(0.000751073 3.20561e-05 1.00049)
(0.00020465 3.22927e-05 1.00003)
(7.07611e-05 3.26306e-05 1.00003)
(7.03374e-06 3.31125e-05 1.00003)
(-5.5937e-05 3.37218e-05 1.00003)
(-0.000114743 3.43956e-05 1.00002)
(-0.000241 3.50128e-05 1.00002)
(-0.000782377 3.54466e-05 1.00049)
(-0.000612743 3.57388e-05 0.998938)
(0.000597725 -3.02215e-05 0.998949)
(0.000751304 -2.99504e-05 1.00049)
(0.000204988 -2.96492e-05 1.00003)
(7.12476e-05 -2.91887e-05 1.00003)
(7.67067e-06 -2.85572e-05 1.00003)
(-5.51967e-05 -2.77817e-05 1.00003)
(-0.000114001 -2.69393e-05 1.00002)
(-0.000240368 -2.61629e-05 1.00002)
(-0.000781792 -2.55234e-05 1.00049)
(-0.000612436 -2.49221e-05 0.998939)
(0.000597834 -9.08912e-05 0.998947)
(0.000751607 -9.05102e-05 1.00049)
(0.000205419 -9.01759e-05 1.00002)
(7.18543e-05 -8.96463e-05 1.00002)
(8.44307e-06 -8.89362e-05 1.00003)
(-5.43146e-05 -8.80809e-05 1.00003)
(-0.000113119 -8.71619e-05 1.00002)
(-0.00023958 -8.63131e-05 1.00002)
(-0.000780992 -8.55516e-05 1.00049)
(-0.000611984 -8.48358e-05 0.998938)
(0.000597964 -0.000220842 0.998946)
(0.000752009 -0.000220307 1.00049)
(0.000205878 -0.000219999 1.00002)
(7.24909e-05 -0.000219467 1.00002)
(9.24099e-06 -0.000218756 1.00003)
(-5.34147e-05 -0.000217903 1.00003)
(-0.000112225 -0.00021699 1.00002)
(-0.000238768 -0.000216147 1.00002)
(-0.000780211 -0.000215316 1.00049)
(-0.000611501 -0.000214653 0.998938)
(0.000598499 -0.000763638 0.999411)
(0.000752357 -0.000763614 1.00095)
(0.000206276 -0.000763223 1.00049)
(7.30955e-05 -0.000762604 1.00049)
(1.00256e-05 -0.000761861 1.00049)
(-5.25083e-05 -0.00076096 1.00049)
(-0.000111309 -0.000759986 1.00049)
(-0.000237876 -0.000759134 1.00048)
(-0.000779311 -0.000758259 1.00095)
(-0.000611381 -0.000756804 0.999402)
(0.000597692 -0.000602805 0.997869)
(0.000752458 -0.000603601 0.99941)
(0.000207078 -0.000603022 0.998946)
(7.39785e-05 -0.000602748 0.998946)
(1.10537e-05 -0.000602373 0.998949)
(-5.13365e-05 -0.000601893 0.998949)
(-0.000110186 -0.00060135 0.998946)
(-0.000236959 -0.000600829 0.998945)
(-0.000777715 -0.000600728 0.999414)
(-0.000609668 -0.00059906 0.997865)
(0.00146418 0.00147181 0.99434)
(0.00172228 0.00147722 0.999173)
(0.000430339 0.00147372 0.997311)
(0.00026466 0.00147341 0.9973)
(8.13301e-05 0.00147238 0.997289)
(-0.000114428 0.00147104 0.997287)
(-0.000291082 0.00146949 0.997296)
(-0.000445723 0.0014674 0.997306)
(-0.00174802 0.00146918 0.999204)
(-0.00148559 0.00146103 0.994304)
(0.00146974 0.00173222 0.999196)
(0.00172382 0.00173363 1.00404)
(0.000428709 0.00173164 1.00217)
(0.000263288 0.00173026 1.00216)
(7.93825e-05 0.00172858 1.00215)
(-0.000116944 0.00172653 1.00214)
(-0.000293916 0.00172425 1.00215)
(-0.000447547 0.00172194 1.00216)
(-0.00175348 0.00172097 1.00405)
(-0.00149358 0.00171488 0.999141)
(0.00146635 0.000436736 0.997323)
(0.00172197 0.000435254 1.00216)
(0.000428017 0.000434635 1.0003)
(0.000262199 0.000433388 1.00029)
(7.80943e-05 0.000432009 1.00027)
(-0.000118394 0.000430543 1.00027)
(-0.000295439 0.000429095 1.00028)
(-0.000449271 0.000427667 1.00028)
(-0.00175475 0.000425803 1.00218)
(-0.00149215 0.000423303 0.997272)
(0.00146637 0.000273071 0.997313)
(0.001721 0.000272265 1.00215)
(0.000426851 0.000271451 1.00029)
(0.000260755 0.000270152 1.00028)
(7.65814e-05 0.000268728 1.00026)
(-0.000119875 0.000267279 1.00026)
(-0.000296849 0.000265917 1.00027)
(-0.000450799 0.00026454 1.00027)
(-0.00175713 0.000262817 1.00218)
(-0.00149418 0.000260072 0.997259)
(0.00146597 9.01884e-05 0.997304)
(0.00172015 8.93905e-05 1.00214)
(0.000425829 8.86614e-05 1.00028)
(0.000259483 8.76466e-05 1.00027)
(7.52284e-05 8.65227e-05 1.00025)
(-0.0001212 8.54091e-05 1.00025)
(-0.00029817 8.43818e-05 1.00026)
(-0.000452284 8.32407e-05 1.00026)
(-0.00175912 8.18711e-05 1.00217)
(-0.00149536 8.03501e-05 0.997247)
(0.00146562 -0.000106748 0.997304)
(0.00171946 -0.000107467 1.00214)
(0.000425084 -0.000108021 1.00028)
(0.000258622 -0.000108578 1.00027)
(7.43482e-05 -0.00010916 1.00025)
(-0.000122013 -0.000109655 1.00025)
(-0.000299014 -0.000110038 1.00026)
(-0.000453291 -0.000110594 1.00026)
(-0.00176013 -0.000111234 1.00217)
(-0.0014958 -0.000111102 0.997248)
(0.00146538 -0.000287304 0.997313)
(0.00171905 -0.000287798 1.00215)
(0.000424757 -0.000288049 1.00029)
(0.000258347 -0.000288045 1.00028)
(7.41496e-05 -0.000287991 1.00026)
(-0.000122082 -0.000287778 1.00026)
(-0.000299115 -0.00028743 1.00027)
(-0.00045354 -0.000287296 1.00028)
(-0.00175993 -0.000287154 1.00218)
(-0.00149542 -0.000285642 0.99726)
(0.00146484 -0.000447751 0.997323)
(0.00171903 -0.000447222 1.00216)
(0.000424923 -0.000447339 1.0003)
(0.000258677 -0.000446948 1.00029)
(7.46088e-05 -0.000446413 1.00027)
(-0.00012146 -0.000445619 1.00027)
(-0.000298543 -0.000444623 1.00028)
(-0.000453128 -0.000443822 1.00029)
(-0.00175892 -0.000443 1.00219)
(-0.00149407 -0.000441776 0.997274)
(0.00146789 -0.00174443 0.999201)
(0.00172026 -0.00174636 1.00404)
(0.000425036 -0.00174485 1.00218)
(0.000259192 -0.00174399 1.00217)
(7.54443e-05 -0.00174275 1.00215)
(-0.00012027 -0.00174099 1.00215)
(-0.000297255 -0.00173882 1.00216)
(-0.000451959 -0.00173689 1.00216)
(-0.0017588 -0.0017366 1.00406)
(-0.00149622 -0.00173109 0.999146)
(0.00146233 -0.00147919 0.994335)
(0.00171855 -0.00148472 0.999169)
(0.000426323 -0.00148141 0.997307)
(0.000260262 -0.00148129 0.997297)
(7.72079e-05 -0.00148041 0.997286)
(-0.000117804 -0.00147916 0.997286)
(-0.000294593 -0.00147761 0.997296)
(-0.000450556 -0.00147573 0.997306)
(-0.00175357 -0.00147776 0.999201)
(-0.00148817 -0.00146948 0.994307)
(0.00198331 0.00200374 0.990122)
(0.00214296 0.00201538 0.998748)
(0.000433979 0.00200702 0.995487)
(0.000413064 0.00200737 0.995464)
(0.000115529 0.0020055 0.995402)
(-0.000178638 0.00200325 0.995402)
(-0.000466489 0.00200068 0.995464)
(-0.000463235 0.00199621 0.995488)
(-0.00220382 0.00200082 0.998835)
(-0.00203835 0.00198557 0.990063)
(0.0019952 0.00216513 0.998797)
(0.00214706 0.00216903 1.00744)
(0.000431969 0.0021633 1.00417)
(0.000411784 0.00216124 1.00414)
(0.000112464 0.00215805 1.00408)
(-0.000183102 0.00215408 1.00407)
(-0.000472378 0.00214951 1.00412)
(-0.000468055 0.00214444 1.00413)
(-0.00221445 0.00214345 1.00749)
(-0.00205331 0.00213273 0.998678)
(0.00198702 0.000443472 0.995511)
(0.00214157 0.000441739 1.00414)
(0.000430265 0.000440232 1.00088)
(0.00040918 0.000437486 1.00085)
(0.000109392 0.000434472 1.00079)
(-0.000186629 0.000431019 1.00078)
(-0.000475981 0.000427338 1.00084)
(-0.000472116 0.000423907 1.00085)
(-0.00221515 0.000419523 1.0042)
(-0.00204854 0.000414541 0.995401)
(0.00198803 0.000429162 0.995491)
(0.00214037 0.000428994 1.00412)
(0.00042774 0.000427146 1.00086)
(0.000406132 0.000424505 1.00083)
(0.000106043 0.000421532 1.00077)
(-0.000190202 0.000418236 1.00076)
(-0.000479498 0.000414824 1.00081)
(-0.000475812 0.000411509 1.00083)
(-0.00222046 0.000407465 1.00418)
(-0.00205298 0.000401946 0.995369)
(0.0019874 0.000132731 0.995432)
(0.00213899 0.00013196 1.00406)
(0.000425719 0.000130433 1.0008)
(0.000403581 0.000128469 1.00077)
(0.000103125 0.000126178 1.00071)
(-0.000193333 0.000123699 1.0007)
(-0.000482701 0.000121196 1.00075)
(-0.000479424 0.000118595 1.00077)
(-0.00222444 0.000115239 1.00412)
(-0.0020548 0.000113113 0.995301)
(0.00198708 -0.000162561 0.995432)
(0.00213798 -0.000163371 1.00406)
(0.000424255 -0.000164473 1.00079)
(0.000401896 -0.000165499 1.00077)
(0.000101277 -0.000166662 1.00071)
(-0.000195187 -0.000167739 1.0007)
(-0.000484604 -0.00016865 1.00075)
(-0.000481796 -0.000169749 1.00077)
(-0.00222619 -0.000171512 1.00412)
(-0.00205514 -0.000169771 0.995299)
(0.00198717 -0.000455109 0.995492)
(0.00213753 -0.000456243 1.00412)
(0.000423604 -0.000456627 1.00086)
(0.000401392 -0.000456491 1.00083)
(0.000100875 -0.000456373 1.00077)
(-0.000195341 -0.000455962 1.00076)
(-0.000484726 -0.000455249 1.00082)
(-0.000482352 -0.000454845 1.00083)
(-0.00222527 -0.000454984 1.00418)
(-0.00205386 -0.000449609 0.995365)
(0.00198576 -0.000465264 0.995514)
(0.00213734 -0.000464655 1.00414)
(0.000424071 -0.000464885 1.00088)
(0.00040214 -0.000464061 1.00085)
(0.000101789 -0.000463205 1.00079)
(-0.000194096 -0.000461872 1.00078)
(-0.000483516 -0.000460102 1.00084)
(-0.00048166 -0.000458715 1.00086)
(-0.00222216 -0.0004575 1.00421)
(-0.00204978 -0.000452373 0.995399)
(0.00199349 -0.00218478 0.998813)
(0.0021416 -0.00218882 1.00745)
(0.000424206 -0.00218404 1.00418)
(0.000403009 -0.00218271 1.00416)
(0.000103049 -0.00218022 1.00409)
(-0.000192257 -0.00217676 1.00409)
(-0.000481543 -0.00217251 1.00414)
(-0.000479817 -0.00216796 1.00415)
(-0.0022229 -0.00216867 1.0075)
(-0.00205459 -0.00215569 0.998685)
(0.00198222 -0.002013 0.990111)
(0.002138 -0.0020242 0.998733)
(0.000426277 -0.00201601 0.995474)
(0.000404821 -0.00201624 0.995451)
(0.000106972 -0.0020141 0.99539)
(-0.000186671 -0.00201142 0.995391)
(-0.000474567 -0.00200834 0.995453)
(-0.000474761 -0.00200349 0.995478)
(-0.00221054 -0.00200839 0.998818)
(-0.00203762 -0.001991 0.990051)
(0.00231855 0.00235669 0.984909)
(0.0023166 0.00237539 0.99776)
(0.000367736 0.00236101 0.993237)
(0.000516954 0.00236253 0.993213)
(0.000101085 0.00235923 0.993094)
(-0.000226936 0.00235571 0.993096)
(-0.000626096 0.00235201 0.993218)
(-0.00043088 0.00234368 0.993246)
(-0.00242538 0.00235285 0.997943)
(-0.00241315 0.00232522 0.984792)
(0.00233764 0.00235977 0.997865)
(0.00232349 0.00236649 1.01075)
(0.000365402 0.0023559 1.0062)
(0.000515872 0.00235337 1.00617)
(9.61339e-05 0.00234815 1.00604)
(-0.000234522 0.00234176 1.00603)
(-0.000637266 0.0023344 1.00613)
(-0.000439623 0.00232502 1.00614)
(-0.00244533 0.00232531 1.01085)
(-0.00244006 0.00230338 0.997621)
(0.00232351 0.000392544 0.993289)
(0.00231323 0.000391001 1.00614)
(0.000362723 0.00038871 1.00161)
(0.000511373 0.000384397 1.00158)
(9.09602e-05 0.000379819 1.00146)
(-0.000240454 0.000374274 1.00145)
(-0.000643313 0.000367993 1.00156)
(-0.00044685 0.000362082 1.00157)
(-0.00244649 0.000354212 1.00627)
(-0.00243249 0.000343111 0.993058)
(0.00232616 0.0005582 0.99327)
(0.0023122 0.000559487 1.00613)
(0.000358814 0.00055642 1.00159)
(0.000506967 0.000552782 1.00156)
(8.59241e-05 0.000548583 1.00144)
(-0.00024617 0.000543643 1.00143)
(-0.000649295 0.00053816 1.00153)
(-0.000453336 0.000532456 1.00154)
(-0.00245693 0.000525411 1.00625)
(-0.00244122 0.000514273 0.993009)
(0.00232499 0.000145493 0.993153)
(0.00231019 0.00014511 1.00601)
(0.000356078 0.000142877 1.00147)
(0.000503544 0.000140471 1.00144)
(8.17862e-05 0.000137548 1.00132)
(-0.000250899 0.000134234 1.0013)
(-0.000654511 0.000130663 1.00141)
(-0.00045975 0.000126551 1.00141)
(-0.00246382 0.000120762 1.00612)
(-0.00244402 0.000117218 0.992869)
(0.00232489 -0.000183555 0.993153)
(0.00230916 -0.000184043 1.00601)
(0.000354312 -0.000185326 1.00147)
(0.000501674 -0.000186154 1.00144)
(7.96852e-05 -0.000187105 1.00131)
(-0.000253073 -0.000187815 1.0013)
(-0.000656993 -0.00018829 1.00141)
(-0.000463452 -0.000189298 1.00141)
(-0.00246631 -0.000192061 1.00612)
(-0.00244415 -0.000187744 0.992863)
(0.00232592 -0.00059048 0.99327)
(0.00230932 -0.000592317 1.00612)
(0.000353839 -0.000592173 1.00159)
(0.000501759 -0.000591098 1.00156)
(8.01116e-05 -0.000589919 1.00143)
(-0.000252116 -0.000588023 1.00142)
(-0.000656005 -0.000585489 1.00153)
(-0.000463479 -0.000583473 1.00153)
(-0.00246372 -0.000583153 1.00624)
(-0.00244145 -0.000570545 0.992993)
(0.00232334 -0.000421821 0.993292)
(0.00230914 -0.000420978 1.00614)
(0.000355452 -0.000421077 1.00161)
(0.000503922 -0.000418897 1.00158)
(8.27518e-05 -0.000416803 1.00146)
(-0.000248697 -0.000413702 1.00145)
(-0.000652482 -0.000409676 1.00156)
(-0.000461114 -0.000406269 1.00156)
(-0.00245558 -0.000403076 1.00626)
(-0.00243216 -0.000391404 0.993043)
(0.00233711 -0.00238382 0.99789)
(0.00231787 -0.00238988 1.01076)
(0.000355954 -0.00238046 1.00621)
(0.000506138 -0.00237817 1.00619)
(8.54552e-05 -0.00237308 1.00606)
(-0.000245132 -0.00236649 1.00605)
(-0.000648684 -0.0023586 1.00615)
(-0.000456931 -0.00234893 1.00615)
(-0.00245707 -0.002351 1.01085)
(-0.00244034 -0.0023256 0.997616)
(0.00231942 -0.00236526 0.984884)
(0.00231244 -0.00238273 0.997732)
(0.000359248 -0.00236835 0.993209)
(0.000509402 -0.00236901 0.993186)
(9.32749e-05 -0.00236452 0.993067)
(-0.000234098 -0.00235948 0.993069)
(-0.000634054 -0.00235405 0.993191)
(-0.000446319 -0.00234424 0.99322)
(-0.0024331 -0.00235318 0.997902)
(-0.00240961 -0.00232162 0.984766)
(0.00256708 0.00262556 0.979205)
(0.00241493 0.00265148 0.996508)
(0.000318011 0.00263037 0.990761)
(0.000599458 0.00263314 0.990729)
(5.66442e-05 0.00262726 0.990569)
(-0.000251952 0.00262144 0.990571)
(-0.000771666 0.00261566 0.990739)
(-0.00041238 0.00260166 0.990782)
(-0.00257394 0.00261184 0.996826)
(-0.00271047 0.00257141 0.979007)
(0.00259364 0.00248115 0.996696)
(0.00242409 0.00249024 1.01405)
(0.000314746 0.00247416 1.00825)
(0.000597895 0.00247067 1.00822)
(4.80775e-05 0.00246187 1.00804)
(-0.000265055 0.00245131 1.00801)
(-0.000791224 0.00243904 1.00815)
(-0.000430613 0.00242274 1.00814)
(-0.00260686 0.0024187 1.01422)
(-0.00274934 0.00238365 0.996254)
(0.0025729 0.000359902 0.990856)
(0.00240853 0.000358366 1.00816)
(0.000310847 0.000355146 1.00239)
(0.000590387 0.000348515 1.00236)
(3.94776e-05 0.000341456 1.00218)
(-0.000275103 0.000332397 1.00216)
(-0.000801545 0.000321398 1.00231)
(-0.000444131 0.000310932 1.00231)
(-0.00261201 0.000295893 1.00837)
(-0.00274074 0.00027363 0.990429)
(0.00257757 0.000669656 0.990831)
(0.0024076 0.000672629 1.00814)
(0.000304921 0.000667662 1.00237)
(0.000583969 0.000662626 1.00233)
(3.16255e-05 0.000656386 1.00216)
(-0.000284643 0.00064861 1.00213)
(-0.000812209 0.000639264 1.00227)
(-0.000456074 0.00062922 1.00227)
(-0.00263225 0.000616159 1.00834)
(-0.00275721 0.000594079 0.99034)
(0.00257534 0.000131724 0.990671)
(0.00240434 0.000131671 1.00798)
(0.000301131 0.000128358 1.00221)
(0.000579105 0.000125289 1.00217)
(2.53678e-05 0.000121287 1.00199)
(-0.00029229 0.00011652 1.00196)
(-0.000820979 0.000110897 1.0021)
(-0.000467831 0.000104551 1.00209)
(-0.00264534 9.39183e-05 1.00816)
(-0.00276247 8.66821e-05 0.99013)
(0.00257549 -0.000178239 0.99067)
(0.00240321 -0.000178153 1.00797)
(0.000298938 -0.000179668 1.0022)
(0.000576958 -0.000180145 1.00217)
(2.28418e-05 -0.000180732 1.00199)
(-0.000295076 -0.000180813 1.00196)
(-0.000824212 -0.000180572 1.00209)
(-0.00047367 -0.000180682 1.00209)
(-0.00264969 -0.000185407 1.00815)
(-0.00276269 -0.00017644 0.990117)
(0.00257809 -0.000707694 0.990828)
(0.00240448 -0.000710172 1.00813)
(0.00029875 -0.000709131 1.00236)
(0.000578022 -0.000706663 1.00233)
(2.46782e-05 -0.000703726 1.00215)
(-0.000292181 -0.00069929 1.00212)
(-0.000820853 -0.000693492 1.00226)
(-0.000472411 -0.000687749 1.00225)
(-0.00264355 -0.000686545 1.00831)
(-0.00275676 -0.000660784 0.990304)
(0.00257415 -0.000396392 0.990857)
(0.00240447 -0.000395171 1.00815)
(0.000302119 -0.000395266 1.00239)
(0.000582355 -0.000391024 1.00235)
(3.02221e-05 -0.00038696 1.00218)
(-0.000284921 -0.000380835 1.00216)
(-0.000812722 -0.000372684 1.0023)
(-0.000466443 -0.000365022 1.0023)
(-0.00262639 -0.000357983 1.00834)
(-0.00273885 -0.0003314 0.990396)
(0.00259437 -0.00250926 0.996726)
(0.00241781 -0.00251652 1.01407)
(0.000302939 -0.00250202 1.00827)
(0.000586697 -0.00249816 1.00824)
(3.5288e-05 -0.00248887 1.00805)
(-0.000278324 -0.00247719 1.00803)
(-0.00080543 -0.0024633 1.00816)
(-0.000457737 -0.00244495 1.00815)
(-0.00262296 -0.00244347 1.0142)
(-0.00274574 -0.00239814 0.996224)
(0.00257059 -0.00263257 0.979163)
(0.00241162 -0.0026559 0.996467)
(0.000308316 -0.00263463 0.990717)
(0.000592644 -0.00263554 0.990686)
(4.94312e-05 -0.00262729 0.990526)
(-0.000258562 -0.00261848 0.990529)
(-0.000778606 -0.00260929 0.990697)
(-0.000434805 -0.00259179 0.990741)
(-0.00258093 -0.00260095 0.996758)
(-0.00269871 -0.00255228 0.97898)
(0.00275088 0.00283234 0.973404)
(0.00246416 0.00286541 0.995239)
(0.000280755 0.00283697 0.988257)
(0.00066078 0.00284063 0.988196)
(-1.0154e-05 0.0028307 0.988012)
(-0.000265381 0.00282092 0.988017)
(-0.000902119 0.00281118 0.988217)
(-0.000406915 0.00278767 0.988298)
(-0.00266806 0.00279904 0.995742)
(-0.0029393 0.00273316 0.973132)
(0.00278496 0.00255575 0.995538)
(0.00247498 0.00256665 1.01745)
(0.000275687 0.00254443 1.01038)
(0.000657356 0.00253893 1.01032)
(-2.51328e-05 0.00252437 1.0101)
(-0.000287807 0.00250674 1.01006)
(-0.000936097 0.00248586 1.01021)
(-0.000438523 0.00245675 1.0102)
(-0.00272585 0.00244626 1.01769)
(-0.00300209 0.00237867 0.994805)
(0.0027571 0.000342061 0.988412)
(0.00245356 0.000340245 1.01024)
(0.000269926 0.000335628 1.00323)
(0.000645242 0.000325581 1.00316)
(-3.92529e-05 0.000314444 1.00295)
(-0.000304969 0.000299373 1.00292)
(-0.000954441 0.000280038 1.00308)
(-0.000462871 0.000260404 1.00309)
(-0.00274411 0.000232596 1.01057)
(-0.002999 0.000184749 0.987694)
(0.00276388 0.000764416 0.988358)
(0.0024523 0.000769057 1.0102)
(0.000261072 0.000761312 1.00318)
(0.000635601 0.000754102 1.00311)
(-5.20229e-05 0.000744296 1.00289)
(-0.000321367 0.000731483 1.00286)
(-0.000974107 0.000715185 1.003)
(-0.000485959 0.000696048 1.00301)
(-0.00278461 0.000671598 1.0105)
(-0.00303 0.00062611 0.987505)
(0.00276003 0.000100149 0.988172)
(0.00244707 0.000100234 1.01)
(0.000255603 9.53629e-05 1.00299)
(0.0006282 9.11246e-05 1.00291)
(-6.20587e-05 8.51681e-05 1.00269)
(-0.000334229 7.77628e-05 1.00265)
(-0.000989969 6.84911e-05 1.00279)
(-0.000507773 5.67954e-05 1.00278)
(-0.0028109 3.76929e-05 1.01027)
(-0.00304209 2.16564e-05 0.987214)
(0.00276044 -0.000156877 0.98817)
(0.0024457 -0.000155964 1.01)
(0.000252732 -0.000157906 1.00298)
(0.000625501 -0.000157885 1.00291)
(-6.54175e-05 -0.000157964 1.00269)
(-0.000338126 -0.000157045 1.00264)
(-0.000995123 -0.000155517 1.00278)
(-0.000517967 -0.000154923 1.00277)
(-0.00281846 -0.000161221 1.01025)
(-0.00304236 -0.000144417 0.98719)
(0.00276514 -0.000808975 0.988349)
(0.00244847 -0.000811963 1.01019)
(0.000252943 -0.000809674 1.00317)
(0.000628101 -0.000805208 1.0031)
(-6.12562e-05 -0.000799423 1.00288)
(-0.000331864 -0.000790616 1.00284)
(-0.000987848 -0.000778961 1.00297)
(-0.000512988 -0.00076625 1.00297)
(-0.00280416 -0.00075975 1.01044)
(-0.00303009 -0.000709176 0.98744)
(0.00275985 -0.000386848 0.988407)
(0.00244896 -0.000384712 1.01023)
(0.000258801 -0.00038468 1.00322)
(0.00063575 -0.000377407 1.00315)
(-5.07897e-05 -0.000370041 1.00294)
(-0.000317761 -0.000358511 1.0029)
(-0.00097082 -0.000342643 1.00305)
(-0.000498103 -0.000325854 1.00306)
(-0.00276698 -0.000308478 1.01051)
(-0.00299528 -0.000254927 0.98763)
(0.00278719 -0.00258822 0.99557)
(0.00246746 -0.00259601 1.01747)
(0.000260311 -0.00257596 1.0104)
(0.000643514 -0.00256929 1.01033)
(-4.15492e-05 -0.00255334 1.01011)
(-0.000305235 -0.00253309 1.01006)
(-0.000955988 -0.00250834 1.01019)
(-0.000478866 -0.00247389 1.01018)
(-0.00275144 -0.00246477 1.01763)
(-0.00299712 -0.00238162 0.994731)
(0.00275723 -0.00283674 0.973341)
(0.00246104 -0.00286587 0.995184)
(0.000268929 -0.00283717 0.988194)
(0.000654297 -0.00283763 0.988134)
(-1.71342e-05 -0.00282369 0.98795)
(-0.000271035 -0.00280872 0.987957)
(-0.000908473 -0.00279272 0.988159)
(-0.000437674 -0.0027624 0.988249)
(-0.00267697 -0.00277115 0.995648)
(-0.00292015 -0.00269106 0.973117)
(0.00287635 0.00298357 0.967594)
(0.0024648 0.0030233 0.993977)
(0.000241341 0.00298678 0.985775)
(0.000698618 0.00299048 0.985669)
(-9.29083e-05 0.00297458 0.985476)
(-0.000272776 0.00295843 0.985487)
(-0.00102212 0.00294129 0.985711)
(-0.000392844 0.00290438 0.985856)
(-0.00269929 0.00290767 0.994735)
(-0.00311085 0.00280662 0.967318)
(0.00291763 0.0025838 0.994419)
(0.00247627 0.0025956 1.02092)
(0.000233226 0.00256612 1.01258)
(0.000691178 0.00255685 1.01247)
(-0.000118289 0.00253345 1.01222)
(-0.000310497 0.0025044 1.01215)
(-0.00107807 0.00246839 1.01229)
(-0.000451639 0.00241887 1.01229)
(-0.00279973 0.00238688 1.02122)
(-0.00320322 0.00226255 0.993317)
(0.00288204 0.000323663 0.986006)
(0.00244803 0.000321172 1.01238)
(0.000224314 0.000314124 1.00413)
(0.000672122 0.000298995 1.00401)
(-0.000141201 0.000281121 1.00378)
(-0.000339859 0.000255866 1.00373)
(-0.00111126 0.000221614 1.00388)
(-0.000496782 0.000184061 1.00391)
(-0.00285058 0.000129377 1.01283)
(-0.00321997 2.38832e-05 0.984913)
(0.0028907 0.000839244 0.985906)
(0.00244557 0.000845315 1.01229)
(0.000211139 0.000833545 1.00404)
(0.000657135 0.000822766 1.00392)
(-0.000162541 0.000806758 1.00367)
(-0.000368759 0.000784968 1.00361)
(-0.00114832 0.000755504 1.00374)
(-0.000544466 0.000719102 1.00375)
(-0.00293521 0.000669231 1.01271)
(-0.00328373 0.000570913 0.984537)
(0.00288466 5.62483e-05 0.985706)
(0.00243744 5.61704e-05 1.01208)
(0.000202884 4.90152e-05 1.00382)
(0.000645281 4.26525e-05 1.0037)
(-0.000179334 3.31408e-05 1.00344)
(-0.000391431 2.08251e-05 1.00337)
(-0.00117732 4.33267e-06 1.00349)
(-0.000585953 -1.55528e-05 1.00348)
(-0.00299229 -4.95559e-05 1.01244)
(-0.00331459 -9.0975e-05 0.98411)
(0.00288532 -0.000126166 0.985702)
(0.00243554 -0.000124143 1.01207)
(0.000198848 -0.000126869 1.00381)
(0.000641398 -0.000126266 1.00369)
(-0.00018443 -0.000125804 1.00343)
(-0.000397716 -0.000123469 1.00336)
(-0.00118476 -0.000119843 1.00347)
(-0.000600601 -0.000114761 1.00346)
(-0.00300753 -0.000122165 1.0124)
(-0.00331934 -8.8455e-05 0.984049)
(0.00289261 -0.000892636 0.985892)
(0.00244015 -0.000895697 1.01228)
(0.000199618 -0.00089177 1.00401)
(0.000646271 -0.000884464 1.00389)
(-0.000176601 -0.000874229 1.00364)
(-0.000385606 -0.000858211 1.00357)
(-0.00116863 -0.000835898 1.00369)
(-0.000587537 -0.000807489 1.00369)
(-0.00297158 -0.00079011 1.01262)
(-0.0032882 -0.00068337 0.98439)
(0.0028864 -0.000378473 0.985993)
(0.00244191 -0.000375303 1.01236)
(0.00020892 -0.000374796 1.00411)
(0.000658939 -0.000363278 1.00399)
(-0.000158089 -0.000350665 1.00374)
(-0.000359474 -0.000330076 1.00369)
(-0.0011341 -0.000300154 1.00383)
(-0.000553238 -0.000264343 1.00386)
(-0.00289291 -0.000226566 1.01274)
(-0.00321924 -0.000107251 0.984783)
(0.00292096 -0.00262179 0.994449)
(0.00246569 -0.00262879 1.02093)
(0.000211763 -0.00260246 1.01259)
(0.000671751 -0.00259109 1.01247)
(-0.000142067 -0.00256529 1.0122)
(-0.000336206 -0.00253126 1.01212)
(-0.00110419 -0.00248758 1.01224)
(-0.000513498 -0.00242599 1.01223)
(-0.00284022 -0.00239088 1.02111)
(-0.00319496 -0.00223683 0.993163)
(0.00288607 -0.00298531 0.967508)
(0.00246093 -0.00301886 0.993909)
(0.000225225 -0.002982 0.985691)
(0.00069048 -0.00298071 0.985587)
(-0.000101739 -0.00295861 0.985394)
(-0.000278887 -0.00293393 0.985409)
(-0.00102402 -0.00290606 0.985643)
(-0.000433432 -0.00285631 0.985814)
(-0.00270835 -0.00285124 0.994625)
(-0.00307751 -0.00272703 0.96736)
(0.00295514 0.00309107 0.961772)
(0.00243014 0.00313688 0.992689)
(0.000198401 0.00309165 0.983308)
(0.000713664 0.00309407 0.983154)
(-0.000189423 0.00306988 0.982966)
(-0.0002833 0.00304397 0.982992)
(-0.00112925 0.00301464 0.983246)
(-0.000365766 0.00295643 0.983476)
(-0.00263763 0.00294509 0.993751)
(-0.00318739 0.00278973 0.961625)
(0.00300324 0.00257891 0.993306)
(0.00244114 0.00259063 1.02438)
(0.000185576 0.00255266 1.01481)
(0.000699181 0.00253713 1.01465)
(-0.000230621 0.00250086 1.01436)
(-0.00034439 0.00245419 1.01427)
(-0.00121988 0.00239376 1.01438)
(-0.00046586 0.00231034 1.01437)
(-0.00280557 0.00224091 1.02473)
(-0.00334166 0.00202123 0.99176)
(0.00295943 0.000303936 0.983633)
(0.00240502 0.000300148 1.01453)
(0.000171715 0.000289233 1.00509)
(0.000670023 0.000266712 1.00491)
(-0.000267057 0.00023818 1.00465)
(-0.000393537 0.000196429 1.00459)
(-0.0012782 0.000137516 1.00472)
(-0.000547179 6.70079e-05 1.00476)
(-0.00291882 -3.53461e-05 1.01514)
(-0.00339646 -0.000255476 0.982055)
(0.00296946 0.000895763 0.983481)
(0.00240003 0.000902737 1.0144)
(0.000152278 0.000885334 1.00494)
(0.000646469 0.000868855 1.00476)
(-0.000302575 0.000842668 1.00449)
(-0.000443512 0.000805742 1.0044)
(-0.00134704 0.000753657 1.0045)
(-0.000639139 0.000684008 1.0045)
(-0.00309377 0.000584221 1.01494)
(-0.00351688 0.000357609 0.981298)
(0.00296065 4.14418e-06 0.983276)
(0.00238784 3.48798e-06 1.01416)
(0.000139569 -6.95805e-06 1.00471)
(0.000627253 -1.68961e-05 1.00453)
(-0.000330728 -3.24362e-05 1.00424)
(-0.000483184 -5.32221e-05 1.00414)
(-0.00140028 -8.18022e-05 1.0042)
(-0.00072105 -0.000118968 1.00417)
(-0.0032323 -0.000192042 1.01463)
(-0.00360097 -0.000300226 0.980634)
(0.00296151 -9.09739e-05 0.98327)
(0.00238501 -8.75622e-05 1.01416)
(0.000133645 -9.15515e-05 1.0047)
(0.00062118 -9.03146e-05 1.00452)
(-0.000339009 -8.92878e-05 1.00423)
(-0.000493143 -8.47401e-05 1.00412)
(-0.00141281 -7.6625e-05 1.00418)
(-0.000752664 -6.56851e-05 1.00413)
(-0.00327023 -7.22373e-05 1.0146)
(-0.00361187 -1.18315e-05 0.980554)
(0.00297179 -0.0009607 0.983459)
(0.00239174 -0.000963329 1.01437)
(0.00013525 -0.000957344 1.0049)
(0.000629392 -0.000945974 1.00472)
(-0.000325267 -0.000928855 1.00444)
(-0.000470745 -0.000900766 1.00433)
(-0.00138128 -0.000859273 1.00441)
(-0.000715881 -0.000801592 1.0044)
(-0.00318757 -0.000743847 1.01482)
(-0.00354595 -0.0005279 0.981043)
(0.00296523 -0.000371379 0.98361)
(0.00239571 -0.000366231 1.01451)
(0.000149267 -0.000364566 1.00505)
(0.000649677 -0.000347021 1.00487)
(-0.000293624 -0.000325913 1.0046)
(-0.000423577 -0.000289962 1.00452)
(-0.00131369 -0.000234804 1.00462)
(-0.000635187 -0.000160984 1.00467)
(-0.00301114 -7.12872e-05 1.015)
(-0.00340202 0.000183997 0.981804)
(0.0030077 -0.00262348 0.99333)
(0.00242576 -0.00262852 1.02439)
(0.0001547 -0.002595 1.01481)
(0.000670175 -0.00257607 1.01462)
(-0.000266196 -0.00253554 1.01431)
(-0.00038096 -0.00247931 1.01419)
(-0.00125416 -0.00240285 1.01426)
(-0.000552057 -0.00229071 1.01424)
(-0.00287841 -0.00221076 1.02453)
(-0.00332677 -0.00191639 0.991483)
(0.00296816 -0.00308909 0.961656)
(0.00242361 -0.00312656 0.992606)
(0.000175247 -0.00308092 0.983199)
(0.00070155 -0.00307589 0.983048)
(-0.000201374 -0.00304217 0.982859)
(-0.000286582 -0.00300225 0.982895)
(-0.0011181 -0.00295398 0.983169)
(-0.000412616 -0.00287019 0.983457)
(-0.00264624 -0.00284582 0.993675)
(-0.00313224 -0.00263838 0.961828)
(0.00300011 0.00316744 0.955958)
(0.00237704 0.00321847 0.991371)
(0.000157308 0.00316389 0.980862)
(0.000712359 0.00316334 0.98066)
(-0.000290814 0.0031283 0.980494)
(-0.000288974 0.00308877 0.980549)
(-0.00122948 0.00304122 0.980844)
(-0.000336652 0.00295276 0.981153)
(-0.0024918 0.00292607 0.992628)
(-0.00318402 0.00270631 0.956528)
(0.00305439 0.00255697 0.992198)
(0.00238593 0.00256719 1.02782)
(0.000137491 0.00251925 1.01705)
(0.000687112 0.00249437 1.01683)
(-0.000354109 0.00244035 1.01651)
(-0.000383304 0.00236825 1.01639)
(-0.00136953 0.00227055 1.01645)
(-0.000488007 0.00213146 1.0164)
(-0.00274116 0.00200464 1.028)
(-0.00336646 0.00161747 0.990684)
(0.00300194 0.000286631 0.981301)
(0.00234072 0.000280506 1.01668)
(0.000116364 0.000263808 1.00608)
(0.00064382 0.000230777 1.00585)
(-0.000410513 0.000185998 1.00558)
(-0.000463296 0.000118298 1.00549)
(-0.00147305 1.73207e-05 1.0056)
(-0.000641278 -0.000115312 1.00562)
(-0.00299784 -0.00031712 1.01736)
(-0.0035335 -0.00080421 0.979772)
(0.00301251 0.000937666 0.981091)
(0.00233137 0.000944615 1.01649)
(8.79735e-05 0.000919467 1.00588)
(0.000606873 0.000894115 1.00564)
(-0.000468799 0.000851722 1.00535)
(-0.000550205 0.000789305 1.00523)
(-0.00160008 0.000695501 1.00527)
(-0.000828756 0.000565131 1.00522)
(-0.0033885 0.000368422 1.01715)
(-0.00384712 -0.000123815 0.978325)
(0.00300029 -5.29331e-05 0.98089)
(0.0023136 -5.47916e-05 1.01625)
(6.8315e-05 -7.00011e-05 1.00564)
(0.000575819 -8.57895e-05 1.00539)
(-0.000516146 -0.000111445 1.00508)
(-0.000620691 -0.00014762 1.00493)
(-0.00169779 -0.00020079 1.00493)
(-0.000981539 -0.000268646 1.00482)
(-0.00366421 -0.000385137 1.01683)
(-0.0040443 -0.000629316 0.976994)
(0.00300121 -5.57763e-05 0.980882)
(0.00230916 -5.07372e-05 1.01624)