/*--------------------------------*- C++ -*----------------------------------*\
  =========                 |
  \\      /  F ield         | OpenFOAM: The Open Source CFD Toolbox
   \\    /   O peration     | Website:  https://openfoam.org
    \\  /    A nd           | Version:  6
     \\/     M anipulation  |
\*---------------------------------------------------------------------------*/
FoamFile
{
    version     2.0;
    format      ascii;
    class       surfaceScalarField;
    location    "0.05";
    object      phi;
}
// * * * * * * * * * * * * * * * * * * * * * * * * * * * * * * * * * * * * * //

dimensions      [0 3 -1 0 0 0 0];

internalField   nonuniform List<scalar> 
141120
(
2.3333e-11
8.4717e-11
1.13988e-06
1.35819e-10
1.29537e-10
2.52203e-06
3.6152e-10
1.08558e-10
3.49708e-06
6.58843e-10
9.21167e-11
4.23184e-06
1.0022e-09
6.56663e-11
4.7985e-06
1.35554e-09
4.06933e-11
5.23513e-06
1.67756e-09
2.45609e-11
5.56455e-06
1.936e-09
1.202e-11
5.8013e-06
2.10457e-09
2.48675e-12
5.95468e-06
2.16461e-09
-4.54534e-12
6.03024e-06
2.10816e-09
-1.11572e-11
6.03054e-06
1.93925e-09
-1.95638e-11
5.95544e-06
1.67434e-09
-3.17943e-11
5.80215e-06
1.34042e-09
-4.81781e-11
5.56496e-06
9.73576e-10
-6.8896e-11
5.23452e-06
6.20833e-10
-9.83308e-11
4.79641e-06
3.2341e-10
-1.27529e-10
4.22809e-06
1.08622e-10
-1.43018e-10
3.49197e-06
1.23037e-11
-1.55826e-10
2.51661e-06
-9.4159e-11
1.1364e-06
1.30268e-10
1.89873e-10
2.52231e-06
5.3289e-10
3.17709e-10
6.17873e-06
1.17999e-09
3.07779e-10
8.9377e-06
2.01813e-09
2.58552e-10
1.10705e-05
2.95784e-09
1.92453e-10
1.2733e-05
3.90329e-09
1.29943e-10
1.40207e-05
4.7631e-09
8.00215e-11
1.49948e-05
5.45297e-09
4.07012e-11
1.56961e-05
5.90452e-09
1.02608e-11
1.61508e-05
6.07123e-09
-1.46062e-11
1.63751e-05
5.93258e-09
-3.90073e-11
1.63762e-05
5.49724e-09
-6.82856e-11
1.61538e-05
4.80427e-09
-1.07274e-10
1.56999e-05
3.92215e-09
-1.58532e-10
1.49982e-05
2.94333e-09
-2.22231e-10
1.40219e-05
1.97298e-09
-2.97529e-10
1.27309e-05
1.12097e-09
-3.70864e-10
1.10645e-05
4.83662e-10
-4.1559e-10
8.92844e-06
1.08245e-10
-4.0158e-10
6.16869e-06
-2.25333e-10
2.51629e-06
2.39248e-10
2.72258e-10
3.49805e-06
9.23504e-10
4.76902e-10
8.93892e-06
1.97448e-09
4.90369e-10
1.32115e-05
3.29055e-09
4.24549e-10
1.65874e-05
4.74175e-09
3.26885e-10
1.92512e-05
6.18979e-09
2.28624e-10
2.13289e-05
7.49989e-09
1.44263e-10
2.29075e-05
8.54937e-09
7.54987e-11
2.40468e-05
9.23844e-09
2.02896e-11
2.47869e-05
9.49855e-09
-2.68776e-11
2.51522e-05
9.29882e-09
-7.38713e-11
2.51542e-05
8.65066e-09
-1.28942e-10
2.47923e-05
7.60972e-09
-1.99341e-10
2.40542e-05
6.27416e-09
-2.89036e-10
2.29147e-05
4.77739e-09
-3.97055e-10
2.13334e-05
3.27409e-09
-5.16564e-10
1.9251e-05
1.92422e-09
-6.25246e-10
1.65816e-05
8.7132e-10
-6.81549e-10
1.32009e-05
2.13076e-10
-6.26091e-10
8.92685e-06
-3.37386e-10
3.4908e-06
3.3935e-10
3.13493e-10
4.23379e-06
1.26886e-09
5.73626e-10
1.10736e-05
2.66984e-09
6.12404e-10
1.65895e-05
4.39803e-09
5.4347e-10
2.1025e-05
6.28499e-09
4.28842e-10
2.45649e-05
8.15586e-09
3.07125e-10
2.73465e-05
9.84174e-09
1.97561e-10
2.94699e-05
1.11901e-08
1.05448e-10
3.10071e-05
1.2077e-08
2.91382e-11
3.20075e-05
1.24169e-08
-3.80188e-11
3.25019e-05
1.21704e-08
-1.05557e-10
3.25047e-05
1.13505e-08
-1.83539e-10
3.20152e-05
1.00248e-08
-2.80526e-10
3.10178e-05
8.31351e-09
-4.00839e-10
2.94807e-05
6.38156e-09
-5.41776e-10
2.73543e-05
4.42266e-09
-6.90911e-10
2.45671e-05
2.64013e-09
-8.18572e-10
2.10201e-05
1.22227e-09
-8.72713e-10
1.65784e-05
3.12681e-10
-7.76237e-10
1.10602e-05
-4.02421e-10
4.22559e-06
4.18258e-10
3.16516e-10
4.80152e-06
1.55104e-09
5.98805e-10
1.27382e-05
3.24434e-09
6.56205e-10
1.92556e-05
5.31586e-09
5.94191e-10
2.45673e-05
7.56411e-09
4.77884e-10
2.88473e-05
9.7837e-09
3.48325e-10
3.22329e-05
1.1778e-08
2.27448e-10
3.48293e-05
1.33711e-08
1.23095e-10
3.67148e-05
1.442e-08
3.44225e-11
3.79443e-05
1.4826e-08
-4.52792e-11
3.85526e-05
1.45429e-08
-1.25946e-10
3.85561e-05
1.35845e-08
-2.18135e-10
3.7954e-05
1.20272e-08
-3.30551e-10
3.67283e-05
1.00084e-08
-4.67021e-10
3.48433e-05
7.71758e-09
-6.23168e-10
3.22435e-05
5.38025e-09
-7.82835e-10
2.88513e-05
3.23592e-09
-9.12237e-10
2.45631e-05
1.51159e-09
-9.55359e-10
1.92441e-05
3.92004e-10
-8.30609e-10
1.27235e-05
-4.18004e-10
4.79235e-06
4.77717e-10
2.88096e-10
5.23912e-06
1.77062e-09
5.57922e-10
1.40276e-05
3.69655e-09
6.23488e-10
2.13353e-05
6.04316e-09
5.73681e-10
2.73506e-05
8.58148e-09
4.68158e-10
3.22345e-05
1.10808e-08
3.45748e-10
3.61196e-05
1.33221e-08
2.28352e-10
3.91112e-05
1.51107e-08
1.24801e-10
4.12897e-05
1.6289e-08
3.50421e-11
4.27128e-05
1.67478e-08
-4.68908e-11
4.34175e-05
1.64357e-08
-1.30195e-10
4.34216e-05
1.5367e-08
-2.24699e-10
4.27239e-05
1.36248e-08
-3.38272e-10
4.13053e-05
1.13597e-08
-4.73828e-10
3.91275e-05
8.78082e-09
-6.25999e-10
3.61322e-05
6.1394e-09
-7.77504e-10
3.22398e-05
3.705e-09
-8.94626e-10
2.73466e-05
1.73662e-09
-9.23835e-10
2.13228e-05
4.51616e-10
-7.89566e-10
1.40115e-05
-3.89052e-10
5.22894e-06
5.21072e-10
2.35356e-10
5.56928e-06
1.93313e-09
4.63762e-10
1.50029e-05
4.03539e-09
5.25693e-10
2.2915e-05
6.59286e-09
4.89483e-10
2.94747e-05
9.35461e-09
4.03717e-10
3.48314e-05
1.20697e-08
3.01029e-10
3.91113e-05
1.45014e-08
2.00493e-10
4.24178e-05
1.64406e-08
1.10325e-10
4.48313e-05
1.77184e-08
3.09877e-11
4.64103e-05
1.82175e-08
-4.2245e-11
4.71929e-05
1.78828e-08
-1.16947e-10
4.71973e-05
1.67288e-08
-2.01247e-10
4.64225e-05
1.48437e-08
-3.01488e-10
4.48484e-05
1.23883e-08
-4.19611e-10
4.24357e-05
9.58704e-09
-5.50272e-10
3.91253e-05
6.71144e-09
-6.77753e-10
3.48372e-05
4.05498e-09
-7.72642e-10
2.94704e-05
1.90209e-09
-7.89603e-10
2.29014e-05
4.94602e-10
-6.66486e-10
1.49853e-05
-3.23306e-10
5.5581e-06
5.50564e-10
1.65627e-10
5.80645e-06
2.04623e-09
3.30354e-10
1.57046e-05
4.27422e-09
3.78094e-10
2.40543e-05
6.98351e-09
3.54929e-10
3.10113e-05
9.90692e-09
2.94877e-10
3.67157e-05
1.27785e-08
2.21327e-10
4.12883e-05
1.53484e-08
1.48261e-10
4.48295e-05
1.73968e-08
8.19502e-11
4.74189e-05
1.87466e-08
2.29932e-11
4.9115e-05
1.92748e-08
-3.18427e-11
4.99562e-05
1.89233e-08
-8.79022e-11
4.99609e-05
1.77069e-08
-1.5094e-10
4.9128e-05
1.57176e-08
-2.25356e-10
4.7437e-05
1.31236e-08
-3.12268e-10
4.48484e-05
1.01609e-08
-4.074e-10
4.13028e-05
7.11598e-09
-4.98892e-10
3.67217e-05
4.30001e-09
-5.65126e-10
3.10064e-05
2.01615e-09
-5.73425e-10
2.40395e-05
5.23385e-10
-4.79944e-10
1.56855e-05
-2.30291e-10
5.79441e-06
5.68679e-10
8.53393e-11
5.95994e-06
2.11717e-09
1.7142e-10
1.6159e-05
4.42558e-09
1.97291e-10
2.47933e-05
7.23268e-09
1.86087e-10
3.20099e-05
1.02607e-08
1.55263e-10
3.79426e-05
1.32338e-08
1.16987e-10
4.27083e-05
1.58935e-08
7.86299e-11
4.64051e-05
1.80129e-08
4.35716e-11
4.91115e-05
1.94094e-08
1.22098e-11
5.08856e-05
1.99562e-08
-1.70887e-11
5.17659e-05
1.95935e-08
-4.7079e-11
5.17708e-05
1.83362e-08
-8.0733e-11
5.0899e-05
1.62789e-08
-1.20295e-10
4.91302e-05
1.35947e-08
-1.66257e-10
4.64245e-05
1.05272e-08
-2.16251e-10
4.27232e-05
7.37272e-09
-2.63917e-10
3.79485e-05
4.45423e-09
-2.9784e-10
3.20044e-05
2.087e-09
-3.00955e-10
2.47775e-05
5.40779e-10
-2.50661e-10
1.61389e-05
-1.19516e-10
5.94726e-06
5.77289e-10
6.14381e-17
6.03536e-06
2.15127e-09
-1.38997e-15
1.63824e-05
4.49878e-09
-3.86833e-15
2.51569e-05
7.3537e-09
-6.88129e-15
3.25017e-05
1.04331e-08
-9.67515e-15
3.85475e-05
1.3456e-08
-1.15025e-14
4.34091e-05
1.61599e-08
-1.19147e-14
4.71834e-05
1.83142e-08
-1.08217e-14
4.99481e-05
1.97336e-08
-8.44062e-15
5.17612e-05
2.02895e-08
-5.21172e-15
5.2661e-05
1.99213e-08
-1.67828e-15
5.26659e-05
1.86437e-08
1.60974e-15
5.17748e-05
1.65528e-08
4.15733e-15
4.9967e-05
1.38241e-08
5.55989e-15
4.7203e-05
1.07051e-08
5.57124e-15
4.34241e-05
7.49694e-09
4.30221e-15
3.85533e-05
4.52844e-09
2.20413e-15
3.24959e-05
2.1208e-09
4.95088e-17
2.51405e-05
5.48947e-10
-1.34381e-15
1.63617e-05
-1.51698e-15
6.02233e-06
5.77289e-10
-8.53387e-11
6.03536e-06
2.15127e-09
-1.71422e-10
1.63824e-05
4.49878e-09
-1.97298e-10
2.51569e-05
7.3537e-09
-1.861e-10
3.25017e-05
1.04331e-08
-1.55282e-10
3.85475e-05
1.3456e-08
-1.1701e-10
4.34091e-05
1.61599e-08
-7.86534e-11
4.71834e-05
1.83142e-08
-4.3593e-11
4.99481e-05
1.97336e-08
-1.22265e-11
5.17612e-05
2.02896e-08
1.70783e-11
5.2661e-05
1.99213e-08
4.70756e-11
5.26659e-05
1.86437e-08
8.07361e-11
5.17748e-05
1.65528e-08
1.20303e-10
4.9967e-05
1.38241e-08
1.66267e-10
4.7203e-05
1.07051e-08
2.16262e-10
4.34241e-05
7.49695e-09
2.63925e-10
3.85533e-05
4.52844e-09
2.97845e-10
3.24959e-05
2.12081e-09
3.00955e-10
2.51405e-05
5.48948e-10
2.50658e-10
1.63617e-05
1.19513e-10
6.02233e-06
5.68679e-10
-1.65625e-10
5.95994e-06
2.11718e-09
-3.30354e-10
1.6159e-05
4.42558e-09
-3.78099e-10
2.47933e-05
7.23269e-09
-3.5494e-10
3.20099e-05
1.02607e-08
-2.94895e-10
3.79426e-05
1.32338e-08
-2.21349e-10
4.27083e-05
1.58935e-08
-1.48284e-10
4.64051e-05
1.80129e-08
-8.19711e-11
4.91115e-05
1.94094e-08
-2.30097e-11
5.08856e-05
1.99563e-08
3.18322e-11
5.17659e-05
1.95936e-08
8.78983e-11
5.17708e-05
1.83363e-08
1.50942e-10
5.0899e-05
1.62789e-08
2.25363e-10
4.91302e-05
1.35947e-08
3.12277e-10
4.64245e-05
1.05272e-08
4.0741e-10
4.27232e-05
7.37274e-09
4.98899e-10
3.79485e-05
4.45424e-09
5.6513e-10
3.20044e-05
2.08701e-09
5.73425e-10
2.47775e-05
5.40782e-10
4.79942e-10
1.61389e-05
2.30289e-10
5.94726e-06
5.50564e-10
-2.35353e-10
5.80645e-06
2.04623e-09
-4.63759e-10
1.57046e-05
4.27423e-09
-5.25695e-10
2.40543e-05
6.98353e-09
-4.89492e-10
3.10113e-05
9.90695e-09
-4.03732e-10
3.67157e-05
1.27785e-08
-3.01049e-10
4.12883e-05
1.53484e-08
-2.00514e-10
4.48295e-05
1.73969e-08
-1.10344e-10
4.74189e-05
1.87466e-08
-3.10035e-11
4.9115e-05
1.92748e-08
4.22346e-11
4.99562e-05
1.89233e-08
1.16942e-10
4.99609e-05
1.77069e-08
2.01248e-10
4.9128e-05
1.57176e-08
3.01493e-10
4.7437e-05
1.31236e-08
4.19618e-10
4.48484e-05
1.0161e-08
5.50279e-10
4.13028e-05
7.11601e-09
6.77759e-10
3.67217e-05
4.30003e-09
7.72645e-10
3.10064e-05
2.01616e-09
7.89603e-10
2.40395e-05
5.23389e-10
6.66484e-10
1.56855e-05
3.23305e-10
5.79441e-06
5.21071e-10
-2.88089e-10
5.56928e-06
1.93313e-09
-5.57913e-10
1.50029e-05
4.0354e-09
-6.23485e-10
2.2915e-05
6.59288e-09
-5.73685e-10
2.94747e-05
9.35465e-09
-4.68169e-10
3.48314e-05
1.20697e-08
-3.45763e-10
3.91113e-05
1.45014e-08
-2.28371e-10
4.24179e-05
1.64407e-08
-1.24819e-10
4.48313e-05
1.77184e-08
-3.50569e-11
4.64103e-05
1.82176e-08
4.68804e-11
4.71929e-05
1.78829e-08
1.30189e-10
4.71973e-05
1.67289e-08
2.24698e-10
4.64225e-05
1.48438e-08
3.38273e-10
4.48484e-05
1.23883e-08
4.7383e-10
4.24357e-05
9.58709e-09
6.26003e-10
3.91253e-05
6.71147e-09
7.77508e-10
3.48372e-05
4.055e-09
8.94628e-10
2.94704e-05
1.9021e-09
9.23836e-10
2.29014e-05
4.94607e-10
7.89566e-10
1.49853e-05
3.89051e-10
5.5581e-06
4.77713e-10
-3.16498e-10
5.23912e-06
1.77061e-09
-5.98786e-10
1.40276e-05
3.69655e-09
-6.56193e-10
2.13353e-05
6.04318e-09
-5.94187e-10
2.73506e-05
8.58152e-09
-4.77889e-10
3.22345e-05
1.10809e-08
-3.48336e-10
3.61196e-05
1.33222e-08
-2.27463e-10
3.91112e-05
1.51108e-08
-1.23111e-10
4.12897e-05
1.62891e-08
-3.4436e-11
4.27128e-05
1.67479e-08
4.52689e-11
4.34175e-05
1.64358e-08
1.25939e-10
4.34216e-05
1.53671e-08
2.18131e-10
4.2724e-05
1.36249e-08
3.30548e-10
4.13053e-05
1.13598e-08
4.67019e-10
3.91275e-05
8.78087e-09
6.23167e-10
3.61322e-05
6.13944e-09
7.82835e-10
3.22398e-05
3.70503e-09
9.1224e-10
2.73466e-05
1.73663e-09
9.55362e-10
2.13229e-05
4.51622e-10
8.30611e-10
1.40115e-05
4.18005e-10
5.22894e-06
4.18241e-10
-3.13447e-10
4.80152e-06
1.55103e-09
-5.73586e-10
1.27382e-05
3.24433e-09
-6.12378e-10
1.92556e-05
5.31587e-09
-5.43458e-10
2.45673e-05
7.56414e-09
-4.28841e-10
2.88473e-05
9.78375e-09
-3.07132e-10
3.22329e-05
1.17781e-08
-1.97573e-10
3.48294e-05
1.33712e-08
-1.05462e-10
3.67148e-05
1.44201e-08
-2.91511e-11
3.79443e-05
1.48261e-08
3.8008e-11
3.85526e-05
1.4543e-08
1.05549e-10
3.85561e-05
1.35846e-08
1.83531e-10
3.7954e-05
1.20273e-08
2.80518e-10
3.67283e-05
1.00085e-08
4.00831e-10
3.48433e-05
7.71763e-09
5.41769e-10
3.22435e-05
5.38029e-09
6.90908e-10
2.88513e-05
3.23595e-09
8.18573e-10
2.45631e-05
1.51161e-09
8.72716e-10
1.92441e-05
3.9201e-10
7.76241e-10
1.27235e-05
4.02423e-10
4.79235e-06
3.39306e-10
-2.72139e-10
4.23379e-06
1.26881e-09
-4.76823e-10
1.10736e-05
2.66981e-09
-4.90322e-10
1.65895e-05
4.39802e-09
-4.24526e-10
2.1025e-05
6.285e-09
-3.26878e-10
2.45649e-05
8.1559e-09
-2.28627e-10
2.73465e-05
9.8418e-09
-1.44271e-10
2.94699e-05
1.11902e-08
-7.5509e-11
3.10071e-05
1.20771e-08
-2.02997e-11
3.20075e-05
1.2417e-08
2.68686e-11
3.25019e-05
1.21705e-08
7.38633e-11
3.25047e-05
1.13506e-08
1.28934e-10
3.20152e-05
1.00249e-08
1.99332e-10
3.10178e-05
8.31356e-09
2.89026e-10
2.94807e-05
6.3816e-09
3.97046e-10
2.73543e-05
4.42269e-09
5.16558e-10
2.45671e-05
2.64015e-09
6.25245e-10
2.10201e-05
1.22228e-09
6.81552e-10
1.65784e-05
3.12685e-10
6.26096e-10
1.10602e-05
3.37388e-10
4.22559e-06
2.3917e-10
-1.89604e-10
3.49805e-06
9.23414e-10
-3.17566e-10
8.93892e-06
1.97441e-09
-3.07713e-10
1.32115e-05
3.29052e-09
-2.58524e-10
1.65874e-05
4.74175e-09
-1.92447e-10
1.92512e-05
6.18981e-09
-1.29948e-10
2.13289e-05
7.49993e-09
-8.00326e-11
2.29075e-05
8.54942e-09
-4.0714e-11
2.40468e-05
9.2385e-09
-1.02736e-11
2.47869e-05
9.49862e-09
1.45941e-11
2.51522e-05
9.29888e-09
3.89958e-11
2.51542e-05
8.65072e-09
6.82743e-11
2.47923e-05
7.60977e-09
1.07262e-10
2.40542e-05
6.2742e-09
1.58519e-10
2.29147e-05
4.77742e-09
2.22218e-10
2.13334e-05
3.2741e-09
2.97518e-10
1.9251e-05
1.92423e-09
3.70857e-10
1.65816e-05
8.71323e-10
4.15587e-10
1.32009e-05
2.13078e-10
4.01573e-10
8.92685e-06
2.25335e-10
3.4908e-06
1.3005e-10
-8.39934e-11
2.52231e-06
5.32722e-10
-1.29333e-10
6.17873e-06
1.17989e-09
-1.08489e-10
8.9377e-06
2.01808e-09
-9.20787e-11
1.10705e-05
2.95783e-09
-6.56521e-11
1.2733e-05
3.9033e-09
-4.06905e-11
1.40207e-05
4.76312e-09
-2.45622e-11
1.49948e-05
5.45301e-09
-1.20224e-11
1.56961e-05
5.90456e-09
-2.48916e-12
1.61508e-05
6.07127e-09
4.5433e-12
1.63751e-05
5.93263e-09
1.11555e-11
1.63762e-05
5.49728e-09
1.95624e-11
1.61538e-05
4.8043e-09
3.17929e-11
1.56999e-05
3.92217e-09
4.81765e-11
1.49982e-05
2.94334e-09
6.88948e-11
1.40219e-05
1.97298e-09
9.83307e-11
1.27309e-05
1.12096e-09
1.2753e-10
1.10645e-05
4.83654e-10
1.4302e-10
8.92844e-06
1.08252e-10
1.55832e-10
6.16869e-06
9.41617e-11
2.51629e-06
2.25999e-11
1.13988e-06
1.35542e-10
2.52203e-06
3.61392e-10
3.49708e-06
6.58792e-10
4.23185e-06
1.00219e-09
4.7985e-06
1.35554e-09
5.23513e-06
1.67757e-09
5.56455e-06
1.93601e-09
5.8013e-06
2.10458e-09
5.95468e-06
2.16463e-09
6.03024e-06
2.10818e-09
6.03054e-06
1.93926e-09
5.95544e-06
1.67435e-09
5.80215e-06
1.34042e-09
5.56496e-06
9.73577e-10
5.23452e-06
6.20831e-10
4.79641e-06
3.23407e-10
4.22809e-06
1.08617e-10
3.49197e-06
1.23092e-11
2.51661e-06
1.1364e-06
9.71913e-12
2.23472e-10
1.13964e-06
2.04018e-10
3.62456e-10
2.52147e-06
6.50089e-10
3.46886e-10
3.49629e-06
1.29374e-09
3.01328e-10
4.2309e-06
2.06854e-09
2.33933e-10
4.79749e-06
2.88397e-09
1.66876e-10
5.23414e-06
3.64083e-09
1.11765e-10
5.56368e-06
4.25299e-09
6.41512e-11
5.80062e-06
4.65009e-09
2.25429e-11
5.95426e-06
4.78367e-09
-1.52784e-11
6.03013e-06
4.63367e-09
-5.34219e-11
6.03074e-06
4.21209e-09
-9.61203e-11
5.95595e-06
3.56408e-09
-1.47093e-10
5.80294e-06
2.76445e-09
-2.07587e-10
5.56597e-06
1.91166e-09
-2.7721e-10
5.23565e-06
1.12122e-09
-3.57059e-10
4.79756e-06
4.96475e-10
-4.30127e-10
4.22914e-06
1.03667e-10
-4.67e-10
3.49283e-06
-2.57306e-11
-4.49843e-10
2.51719e-06
-2.52765e-10
1.13663e-06
2.1815e-10
5.39152e-10
2.52178e-06
1.0284e-09
9.47561e-10
6.17734e-06
2.44278e-09
9.85482e-10
8.93564e-06
4.35376e-09
8.76256e-10
1.1068e-05
6.56163e-09
7.04422e-10
1.27304e-05
8.83056e-09
5.23015e-10
1.40181e-05
1.09209e-08
3.561e-10
1.49925e-05
1.26096e-08
2.065e-10
1.56942e-05
1.37133e-08
7.16378e-11
1.61497e-05
1.41066e-08
-5.55989e-11
1.63747e-05
1.37353e-08
-1.85363e-10
1.63767e-05
1.26261e-08
-3.28016e-10
1.61551e-05
1.08892e-08
-4.92141e-10
1.5702e-05
8.71331e-09
-6.81201e-10
1.50008e-05
6.34842e-09
-8.91149e-10
1.40249e-05
4.07419e-09
-1.10839e-09
1.2734e-05
2.16281e-09
-1.29299e-09
1.10673e-05
8.24878e-10
-1.37129e-09
8.93068e-06
1.35297e-10
-1.23603e-09
6.17016e-06
-6.54219e-10
2.51683e-06
4.71334e-10
8.08791e-10
3.49731e-06
1.95418e-09
1.48658e-09
8.93689e-06
4.35951e-09
1.61333e-09
1.32084e-05
7.47518e-09
1.47502e-09
1.65836e-05
1.09952e-08
1.21591e-09
1.92471e-05
1.45689e-08
9.22314e-10
2.1325e-05
1.78396e-08
6.36757e-10
2.2904e-05
2.04768e-08
3.71885e-10
2.4044e-05
2.22084e-08
1.26458e-10
2.47851e-05
2.28461e-08
-1.09831e-10
2.51516e-05
2.23064e-08
-3.52093e-10
2.51549e-05
2.06247e-08
-6.1577e-10
2.47943e-05
1.79594e-08
-9.12786e-10
2.40573e-05
1.4585e-08
-1.24629e-09
2.29186e-05
1.08676e-08
-1.60503e-09
2.13378e-05
7.22285e-09
-1.957e-09
1.92555e-05
4.05999e-09
-2.23248e-09
1.65857e-05
1.71339e-09
-2.3112e-09
1.32042e-05
3.65447e-10
-2.01304e-09
8.92897e-06
-1.029e-09
3.49154e-06
7.21697e-10
9.70751e-10
4.23291e-06
2.84076e-09
1.85016e-09
1.10711e-05
6.16709e-09
2.0672e-09
1.65857e-05
1.03844e-08
1.93118e-09
2.10203e-05
1.50844e-08
1.62203e-09
2.45598e-05
1.98155e-08
1.24964e-09
2.73414e-05
2.41237e-08
8.72082e-10
2.94653e-05
2.75915e-08
5.11715e-10
3.10035e-05
2.98745e-08
1.7029e-10
3.20052e-05
3.07337e-08
-1.63297e-10
3.25011e-05
3.00605e-08
-5.06559e-10
3.25055e-05
2.78952e-08
-8.77444e-10
3.20176e-05
2.44328e-08
-1.2887e-09
3.10216e-05
2.00146e-08
-1.74098e-09
2.94856e-05
1.51002e-08
-2.21477e-09
2.73598e-05
1.0218e-08
-2.66103e-09
2.45727e-05
5.89903e-09
-2.98535e-09
2.10252e-05
2.5977e-09
-3.03362e-09
1.65825e-05
6.07357e-10
-2.57983e-09
1.10628e-05
-1.28002e-09
4.22645e-06
9.36946e-10
1.01474e-09
4.80054e-06
3.61639e-09
1.98751e-09
1.27353e-05
7.75504e-09
2.26833e-09
1.92513e-05
1.29391e-08
2.15521e-09
2.45619e-05
1.86679e-08
1.83664e-09
2.88413e-05
2.44014e-08
1.43187e-09
3.2227e-05
2.96036e-08
1.00762e-09
3.4824e-05
3.37849e-08
5.93031e-10
3.67106e-05
3.6542e-08
1.93172e-10
3.79415e-05
3.75941e-08
-2.01891e-10
3.85515e-05
3.68117e-08
-6.09482e-10
3.85569e-05
3.4238e-08
-1.0474e-09
3.79567e-05
3.00966e-08
-1.5271e-09
3.67327e-05
2.47827e-08
-2.04583e-09
3.48489e-05
1.88326e-08
-2.57742e-09
3.22498e-05
1.287e-08
-3.06169e-09
2.88577e-05
7.53218e-09
-3.39051e-09
2.45688e-05
3.38261e-09
-3.39524e-09
1.92486e-05
8.19358e-10
-2.83633e-09
1.27263e-05
-1.37521e-09
4.79327e-06
1.11114e-09
9.49749e-10
5.23808e-06
4.25615e-09
1.89749e-09
1.40245e-05
9.07497e-09
2.20033e-09
2.13306e-05
1.50711e-08
2.11808e-09
2.73446e-05
2.16639e-08
1.82513e-09
3.22279e-05
2.82375e-08
1.43576e-09
3.6113e-05
3.41871e-08
1.01677e-09
3.91052e-05
3.89636e-08
5.99544e-10
4.12849e-05
4.21158e-08
1.91476e-10
4.27096e-05
4.33288e-08
-2.15133e-10
4.34163e-05
4.24561e-08
-6.35445e-10
4.34225e-05
3.95431e-08
-1.08506e-09
4.27269e-05
3.48359e-08
-1.57293e-09
4.13101e-05
2.87735e-08
-2.09349e-09
3.91336e-05
2.19554e-08
-2.61755e-09
3.61391e-05
1.50854e-08
-3.08217e-09
3.22467e-05
8.89158e-09
-3.37922e-09
2.73528e-05
4.03109e-09
-3.34569e-09
2.13277e-05
9.91091e-10
-2.75734e-09
1.40144e-05
-1.31419e-09
5.22987e-06
1.24524e-09
7.9331e-10
5.56819e-06
4.75532e-09
1.60809e-09
1.49997e-05
1.01139e-08
1.88645e-09
2.29099e-05
1.67586e-08
1.8335e-09
2.94684e-05
2.40433e-08
1.59286e-09
3.48243e-05
3.12898e-08
1.26138e-09
3.91043e-05
3.78376e-08
8.97432e-10
4.24114e-05
4.30898e-08
5.29768e-10
4.48261e-05
4.6557e-08
1.66369e-10
4.64068e-05
4.78976e-08
-1.98008e-10
4.71915e-05
4.69518e-08
-5.75186e-10
4.71982e-05
4.37664e-08
-9.77329e-10
4.64256e-05
3.86057e-08
-1.4106e-09
4.48534e-05
3.19432e-08
-1.86819e-09
4.24422e-05
2.44298e-08
-2.32256e-09
3.91325e-05
1.68337e-08
-2.71697e-09
3.48445e-05
9.95733e-09
-2.95676e-09
2.94768e-05
4.5343e-09
-2.90283e-09
2.29063e-05
1.12214e-09
-2.36866e-09
1.49883e-05
-1.11473e-09
5.55903e-06
1.34154e-09
5.67417e-10
5.80534e-06
5.11905e-09
1.16169e-09
1.57012e-05
1.08773e-08
1.37352e-09
2.4049e-05
1.80054e-08
1.34381e-09
3.10047e-05
2.58072e-08
1.174e-09
3.67083e-05
3.35575e-08
9.33935e-10
4.12808e-05
4.05531e-08
6.66576e-10
4.48228e-05
4.6161e-08
3.93732e-10
4.74134e-05
4.98633e-08
1.22068e-10
4.91114e-05
5.12984e-08
-1.51505e-10
4.99547e-05
5.02965e-08
-4.34954e-10
4.99618e-05
4.69057e-08
-7.36466e-10
4.91311e-05
4.1404e-08
-1.0597e-09
4.74422e-05
3.42914e-08
-1.39863e-09
4.4855e-05
2.62572e-08
-1.73188e-09
4.13103e-05
1.8119e-08
-2.01678e-09
3.67291e-05
1.07355e-08
-2.18352e-09
3.1013e-05
4.89783e-09
-2.13125e-09
2.40445e-05
1.21497e-09
-1.72726e-09
1.56886e-05
-8.05801e-10
5.79531e-06
1.40338e-09
2.95247e-10
5.95881e-06
5.35553e-09
6.0796e-10
1.61556e-05
1.13768e-08
7.22109e-10
2.47879e-05
1.88247e-08
7.0921e-10
3.20031e-05
2.69697e-08
6.21625e-10
3.79351e-05
3.50547e-08
4.95831e-10
4.27007e-05
4.23481e-08
3.54538e-10
4.63982e-05
4.81924e-08
2.09476e-10
4.91058e-05
5.20506e-08
6.44161e-11
5.08818e-05
5.35478e-08
-8.20325e-11
5.17644e-05
5.25077e-08
-2.33848e-10
5.17716e-05
4.89794e-08
-3.95118e-10
5.09022e-05
4.325e-08
-5.67498e-10
4.91354e-05
3.58374e-08
-7.47476e-10
4.64313e-05
2.7457e-08
-9.23405e-10
4.27308e-05
1.89596e-08
-1.07242e-09
3.79561e-05
1.12415e-08
-1.15758e-09
3.20111e-05
5.13212e-09
-1.12602e-09
2.47826e-05
1.2738e-09
-9.08964e-10
1.61419e-05
-4.21894e-10
5.94815e-06
1.43358e-09
-9.07588e-15
6.03422e-06
5.4718e-09
-2.63791e-14
1.6379e-05
1.16234e-08
-4.19597e-14
2.51514e-05
1.92302e-08
-5.4087e-14
3.24948e-05
2.75462e-08
-6.13543e-14
3.85398e-05
3.57982e-08
-6.27415e-14
4.34014e-05
4.324e-08
-5.79326e-14
4.71763e-05
4.92023e-08
-4.73455e-14
4.99423e-05
5.31381e-08
-3.20522e-14
5.17573e-05
5.46662e-08
-1.3624e-14
5.26594e-05
5.36067e-08
6.05954e-15
5.26668e-05
5.00093e-08
2.50151e-14
5.1778e-05
4.4166e-08
4.13309e-14
4.99723e-05
3.66035e-08
5.33044e-14
4.72098e-05
2.80504e-08
5.9633e-14
4.34317e-05
1.93742e-08
5.96039e-14
3.85609e-05
1.14901e-08
5.33531e-14
3.25026e-05
5.24658e-09
4.1679e-14
2.51457e-05
1.30225e-09
2.60562e-14
1.63648e-05
8.48819e-15
6.02321e-06
1.43358e-09
-2.95264e-10
6.03422e-06
5.4718e-09
-6.08012e-10
1.6379e-05
1.16234e-08
-7.2219e-10
2.51514e-05
1.92302e-08
-7.09315e-10
3.24948e-05
2.75462e-08
-6.21745e-10
3.85398e-05
3.57982e-08
-4.95954e-10
4.34014e-05
4.32401e-08
-3.54651e-10
4.71763e-05
4.92023e-08
-2.09569e-10
4.99423e-05
5.31382e-08
-6.44788e-11
5.17573e-05
5.46662e-08
8.2006e-11
5.26594e-05
5.36067e-08
2.3386e-10
5.26668e-05
5.00094e-08
3.95167e-10
5.1778e-05
4.4166e-08
5.67579e-10
4.99723e-05
3.66035e-08
7.4758e-10
4.72098e-05
2.80504e-08
9.23522e-10
4.34317e-05
1.93742e-08
1.07254e-09
3.85609e-05
1.14901e-08
1.15769e-09
3.25026e-05
5.24658e-09
1.12611e-09
2.51457e-05
1.30225e-09
9.09015e-10
1.63648e-05
4.21911e-10
6.02321e-06
1.40338e-09
-5.67433e-10
5.95881e-06
5.35553e-09
-1.16173e-09
1.61556e-05
1.13768e-08
-1.3736e-09
2.47879e-05
1.88247e-08
-1.34391e-09
3.20031e-05
2.69697e-08
-1.17411e-09
3.79351e-05
3.50548e-08
-9.34051e-10
4.27007e-05
4.23481e-08
-6.66683e-10
4.63982e-05
4.81924e-08
-3.9382e-10
4.91058e-05
5.20507e-08
-1.22128e-10
5.08818e-05
5.35479e-08
1.5148e-10
5.17644e-05
5.25078e-08
4.34966e-10
5.17716e-05
4.89795e-08
7.36513e-10
5.09022e-05
4.32501e-08
1.05978e-09
4.91354e-05
3.58375e-08
1.39873e-09
4.64313e-05
2.7457e-08
1.732e-09
4.27308e-05
1.89596e-08
2.01689e-09
3.79561e-05
1.12415e-08
2.18362e-09
3.20111e-05
5.13212e-09
2.13133e-09
2.47826e-05
1.2738e-09
1.72731e-09
1.61419e-05
8.05818e-10
5.94815e-06
1.34154e-09
-7.93323e-10
5.80534e-06
5.11906e-09
-1.60813e-09
1.57012e-05
1.08773e-08
-1.88651e-09
2.4049e-05
1.80054e-08
-1.83359e-09
3.10047e-05
2.58072e-08
-1.59296e-09
3.67083e-05
3.35575e-08
-1.26148e-09
4.12808e-05
4.05531e-08
-8.97527e-10
4.48228e-05
4.61611e-08
-5.29846e-10
4.74134e-05
4.98634e-08
-1.66422e-10
4.91114e-05
5.12985e-08
1.97986e-10
4.99547e-05
5.02966e-08
5.75197e-10
4.99618e-05
4.69058e-08
9.77372e-10
4.91311e-05
4.14041e-08
1.41067e-09
4.74422e-05
3.42915e-08
1.86828e-09
4.4855e-05
2.62572e-08
2.32266e-09
4.13103e-05
1.81191e-08
2.71707e-09
3.67291e-05
1.07355e-08
2.95685e-09
3.1013e-05
4.89784e-09
2.9029e-09
2.40445e-05
1.21498e-09
2.3687e-09
1.56886e-05
1.11474e-09
5.79531e-06
1.24524e-09
-9.49756e-10
5.56819e-06
4.75532e-09
-1.89751e-09
1.49997e-05
1.01139e-08
-2.20038e-09
2.29099e-05
1.67587e-08
-2.11815e-09
2.94684e-05
2.40433e-08
-1.82522e-09
3.48243e-05
3.12899e-08
-1.43585e-09
3.91043e-05
3.78377e-08
-1.01685e-09
4.24114e-05
4.30899e-08
-5.9961e-10
4.48261e-05
4.65571e-08
-1.91521e-10
4.64068e-05
4.78977e-08
2.15114e-10
4.71915e-05
4.69519e-08
6.35454e-10
4.71982e-05
4.37665e-08
1.08509e-09
4.64256e-05
3.86057e-08
1.57299e-09
4.48534e-05
3.19433e-08
2.09357e-09
4.24422e-05
2.44298e-08
2.61763e-09
3.91325e-05
1.68338e-08
3.08226e-09
3.48445e-05
9.95736e-09
3.3793e-09
2.94768e-05
4.53432e-09
3.34576e-09
2.29063e-05
1.12214e-09
2.75738e-09
1.49883e-05
1.31421e-09
5.55903e-06
1.11113e-09
-1.01474e-09
5.23808e-06
4.25615e-09
-1.98752e-09
1.40245e-05
9.07498e-09
-2.26836e-09
2.13306e-05
1.50711e-08
-2.15526e-09
2.73447e-05
2.16639e-08
-1.83671e-09
3.22279e-05
2.82375e-08
-1.43193e-09
3.6113e-05
3.41872e-08
-1.00768e-09
3.91052e-05
3.89637e-08
-5.93084e-10
4.12849e-05
4.21159e-08
-1.93208e-10
4.27096e-05
4.33289e-08
2.01876e-10
4.34163e-05
4.24562e-08
6.0949e-10
4.34225e-05
3.95432e-08
1.04743e-09
4.27269e-05
3.4836e-08
1.52715e-09
4.13101e-05
2.87736e-08
2.04589e-09
3.91336e-05
2.19555e-08
2.57749e-09
3.61391e-05
1.50855e-08
3.06176e-09
3.22467e-05
8.89161e-09
3.39058e-09
2.73528e-05
4.0311e-09
3.39529e-09
2.13277e-05
9.91096e-10
2.83637e-09
1.40144e-05
1.37523e-09
5.22987e-06
9.36931e-10
-9.70725e-10
4.80054e-06
3.61637e-09
-1.85015e-09
1.27353e-05
7.75503e-09
-2.0672e-09
1.92513e-05
1.29391e-08
-1.93121e-09
2.45619e-05
1.86679e-08
-1.62207e-09
2.88413e-05
2.44014e-08
-1.24969e-09
3.2227e-05
2.96037e-08
-8.72128e-10
3.4824e-05
3.3785e-08
-5.11754e-10
3.67106e-05
3.65421e-08
-1.70316e-10
3.79415e-05
3.75942e-08
1.63286e-10
3.85516e-05
3.68118e-08
5.06565e-10
3.85569e-05
3.42381e-08
8.77465e-10
3.79567e-05
3.00967e-08
1.28874e-09
3.67327e-05
2.47827e-08
1.74102e-09
3.48489e-05
1.88326e-08
2.21482e-09
3.22498e-05
1.287e-08
2.66109e-09
2.88577e-05
7.53221e-09
2.98541e-09
2.45688e-05
3.38263e-09
3.03366e-09
1.92486e-05
8.19362e-10
2.57987e-09
1.27263e-05
1.28004e-09
4.79327e-06
7.21663e-10
-8.08719e-10
4.23291e-06
2.84072e-09
-1.48653e-09
1.10711e-05
6.16706e-09
-1.6133e-09
1.65857e-05
1.03843e-08
-1.47502e-09
2.10203e-05
1.50845e-08
-1.21593e-09
2.45598e-05
1.98155e-08
-9.22343e-10
2.73414e-05
2.41237e-08
-6.36788e-10
2.94653e-05
2.75915e-08
-3.71912e-10
3.10035e-05
2.98746e-08
-1.26476e-10
3.20052e-05
3.07338e-08
1.09824e-10
3.25011e-05
3.00606e-08
3.52096e-10
3.25055e-05
2.78953e-08
6.15783e-10
3.20176e-05
2.44328e-08
9.12806e-10
3.10216e-05
2.00146e-08
1.24631e-09
2.94856e-05
1.51003e-08
1.60506e-09
2.73598e-05
1.02181e-08
1.95704e-09
2.45727e-05
5.89905e-09
2.23252e-09
2.10252e-05
2.59771e-09
2.31123e-09
1.65825e-05
6.07358e-10
2.01306e-09
1.10628e-05
1.02901e-09
4.22645e-06
4.71271e-10
-5.39007e-10
3.49731e-06
1.95411e-09
-9.47473e-10
8.9369e-06
4.35945e-09
-9.85435e-10
1.32084e-05
7.47515e-09
-8.7624e-10
1.65837e-05
1.09952e-08
-7.04426e-10
1.92471e-05
1.45689e-08
-5.23029e-10
2.1325e-05
1.78396e-08
-3.56116e-10
2.2904e-05
2.04769e-08
-2.06515e-10
2.4044e-05
2.22084e-08
-7.16477e-11
2.47851e-05
2.28461e-08
5.5595e-11
2.51516e-05
2.23065e-08
1.85365e-10
2.51549e-05
2.06247e-08
3.28024e-10
2.47943e-05
1.79595e-08
4.92153e-10
2.40573e-05
1.45851e-08
6.81215e-10
2.29186e-05
1.08677e-08
8.91166e-10
2.13378e-05
7.22287e-09
1.10841e-09
1.92555e-05
4.06e-09
1.29301e-09
1.65857e-05
1.71339e-09
1.37131e-09
1.32042e-05
3.65447e-10
1.23605e-09
8.92897e-06
6.54224e-10
3.49154e-06
2.18046e-10
-2.23262e-10
2.52178e-06
1.02828e-09
-3.62363e-10
6.17734e-06
2.4427e-09
-3.46838e-10
8.93565e-06
4.35371e-09
-3.01307e-10
1.1068e-05
6.56161e-09
-2.33929e-10
1.27304e-05
8.83057e-09
-1.6688e-10
1.40181e-05
1.0921e-08
-1.11772e-10
1.49925e-05
1.26096e-08
-6.41578e-11
1.56942e-05
1.37133e-08
-2.2548e-11
1.61497e-05
1.41066e-08
1.52754e-11
1.63747e-05
1.37353e-08
5.34208e-11
1.63767e-05
1.26261e-08
9.61209e-11
1.61551e-05
1.08892e-08
1.47094e-10
1.5702e-05
8.71333e-09
2.07589e-10
1.50008e-05
6.34842e-09
2.77212e-10
1.40249e-05
4.07419e-09
3.57062e-10
1.2734e-05
2.16281e-09
4.30131e-10
1.10673e-05
8.24874e-10
4.67004e-10
8.93068e-06
1.3529e-10
4.49843e-10
6.17016e-06
2.52766e-10
2.51683e-06
9.50571e-12
1.13964e-06
2.03861e-10
2.52147e-06
6.50004e-10
3.49629e-06
1.2937e-09
4.2309e-06
2.06853e-09
4.79749e-06
2.88397e-09
5.23415e-06
3.64084e-09
5.56368e-06
4.253e-09
5.80062e-06
4.65011e-09
5.95426e-06
4.78368e-09
6.03013e-06
4.63368e-09
6.03074e-06
4.2121e-09
5.95595e-06
3.56409e-09
5.80294e-06
2.76446e-09
5.56597e-06
1.91166e-09
5.23565e-06
1.12122e-09
4.79756e-06
4.96469e-10
4.22914e-06
1.03663e-10
3.49283e-06
-2.57346e-11
2.51719e-06
1.13663e-06
4.26373e-12
3.77105e-10
1.13926e-06
3.07552e-10
6.15431e-10
2.52055e-06
1.01953e-09
6.0262e-10
3.49497e-06
2.06788e-09
5.23864e-10
4.22933e-06
3.33978e-09
4.11567e-10
4.79581e-06
4.68463e-09
2.99136e-10
5.2325e-06
5.93992e-09
2.0248e-10
5.56222e-06
6.96053e-09
1.17793e-10
5.79948e-06
7.62719e-09
4.2445e-11
5.95355e-06
7.85727e-09
-2.77626e-11
6.02992e-06
7.61525e-09
-9.92613e-11
6.03108e-06
6.91923e-09
-1.78617e-10
5.95683e-06
5.8434e-09
-2.71561e-10
5.80429e-06
4.51357e-09
-3.80548e-10
5.56768e-06
3.09694e-09
-5.04784e-10
5.23757e-06
1.78703e-09
-6.4197e-10
4.79951e-06
7.60599e-10
-7.66328e-10
4.23094e-06
1.33918e-10
-8.3065e-10
3.49428e-06
-5.83215e-11
-7.84323e-10
2.51816e-06
-4.36949e-10
1.137e-06
3.37411e-10
9.19276e-10
2.5209e-06
1.63997e-09
1.62557e-09
6.17502e-06
3.9499e-09
1.70873e-09
8.93223e-06
7.09281e-09
1.53084e-09
1.10639e-05
1.07452e-08
1.24357e-09
1.27259e-05
1.45175e-08
9.34519e-10
1.40136e-05
1.80084e-08
6.43332e-10
1.49886e-05
2.08428e-08
3.77464e-10
1.56911e-05
2.271e-08
1.32947e-10
1.61477e-05
2.33942e-08
-1.01846e-10
1.63741e-05
2.27988e-08
-3.42936e-10
1.63775e-05
2.09631e-08
-6.06579e-10
1.61574e-05
1.8069e-08
-9.05951e-10
1.57055e-05
1.44327e-08
-1.24607e-09
1.50053e-05
1.04774e-08
-1.61882e-09
1.403e-05
6.68016e-09
-1.997e-09
1.27391e-05
3.50343e-09
-2.31159e-09
1.1072e-05