/*--------------------------------*- C++ -*----------------------------------*\
  =========                 |
  \\      /  F ield         | OpenFOAM: The Open Source CFD Toolbox
   \\    /   O peration     | Website:  https://openfoam.org
    \\  /    A nd           | Version:  6
     \\/     M anipulation  |
\*---------------------------------------------------------------------------*/
FoamFile
{
    version     2.0;
    format      ascii;
    class       volVectorField;
    location    "0.05";
    object      U;
}
// * * * * * * * * * * * * * * * * * * * * * * * * * * * * * * * * * * * * * //

dimensions      [0 1 -1 0 0 0 0];

internalField   nonuniform List<vector> 
48800
(
(-2.79503e-07 1.2203e-06 0.0455982)
(2.20366e-06 1.86462e-06 0.100889)
(9.05638e-06 9.71948e-07 0.139894)
(1.9902e-05 8.88247e-07 0.169287)
(3.29597e-05 6.1205e-07 0.191954)
(4.72632e-05 2.78452e-07 0.209418)
(6.11347e-05 1.55828e-07 0.222594)
(7.30155e-05 6.99566e-08 0.232061)
(8.1769e-05 -6.07362e-10 0.238193)
(8.64734e-05 -3.66952e-08 0.241211)
(8.6567e-05 -6.13403e-08 0.241219)
(8.19625e-05 -1.0722e-07 0.238211)
(7.30842e-05 -1.97716e-07 0.232075)
(6.08168e-05 -3.1365e-07 0.222585)
(4.63912e-05 -4.75642e-07 0.209366)
(3.15747e-05 -8.52157e-07 0.191841)
(1.82882e-05 -1.16001e-06 0.169109)
(7.66771e-06 -1.25436e-06 0.139667)
(1.40588e-06 -2.07852e-06 0.100656)
(-4.37318e-07 -1.29002e-06 0.0454528)
(8.15757e-07 5.60163e-06 0.1009)
(1.0358e-05 8.77352e-06 0.247169)
(3.19561e-05 8.26281e-06 0.357536)
(6.27257e-05 6.78056e-06 0.442854)
(9.89411e-05 4.89961e-06 0.509358)
(0.00013758 3.20484e-06 0.560863)
(0.000174654 1.92764e-06 0.599825)
(0.000206361 9.5107e-07 0.627867)
(0.000229747 2.21642e-07 0.646048)
(0.000242468 -3.46749e-07 0.655007)
(0.000243094 -8.95553e-07 0.65504)
(0.000231365 -1.57085e-06 0.646134)
(0.000208285 -2.50911e-06 0.627969)
(0.000176031 -3.78118e-06 0.599891)
(0.00013773 -5.40618e-06 0.560837)
(9.76642e-05 -7.43329e-06 0.509197)
(6.0438e-05 -9.51566e-06 0.442542)
(2.9575e-05 -1.0906e-05 0.357107)
(8.8134e-06 -1.08194e-05 0.246727)
(5.07739e-07 -6.42546e-06 0.100644)
(1.45526e-06 9.47994e-06 0.139932)
(1.90334e-05 1.63015e-05 0.357585)
(5.45978e-05 1.63081e-05 0.528501)
(0.000103583 1.39262e-05 0.663545)
(0.000159877 1.05268e-05 0.770102)
(0.000219277 7.22215e-06 0.853211)
(0.000275871 4.49894e-06 0.91635)
(0.000324105 2.3216e-06 0.961912)
(0.000359702 6.06888e-07 0.991499)
(0.00037922 -8.23834e-07 1.00609)
(0.000380534 -2.23747e-06 1.00616)
(0.000363218 -3.91512e-06 0.991666)
(0.000328692 -6.10648e-06 0.962127)
(0.000280076 -8.9454e-06 0.916533)
(0.000221837 -1.24249e-05 0.853277)
(0.000160199 -1.64212e-05 0.769979)
(0.000101988 -2.01978e-05 0.663207)
(5.22301e-05 -2.23083e-05 0.527992)
(1.72475e-05 -2.09825e-05 0.357045)
(1.07346e-06 -1.14985e-05 0.139621)
(2.1518e-06 1.20676e-05 0.169364)
(2.67403e-05 2.16911e-05 0.442978)
(7.45688e-05 2.28025e-05 0.663631)
(0.000139206 1.99648e-05 0.841063)
(0.000212805 1.55487e-05 0.982667)
(0.000289773 1.10133e-05 1.09393)
(0.00036267 7.01974e-06 1.17886)
(0.000424652 3.71045e-06 1.24033)
(0.000470398 1.0135e-06 1.28033)
(0.000495606 -1.32464e-06 1.30009)
(0.000497616 -3.66538e-06 1.30018)
(0.000475856 -6.38769e-06 1.28058)
(0.000432025 -9.82075e-06 1.24066)
(0.000369945 -1.41391e-05 1.17916)
(0.000295123 -1.92642e-05 1.0941)
(0.000215212 -2.48023e-05 0.982607)
(0.000138817 -2.97177e-05 0.840735)
(7.26441e-05 -3.20627e-05 0.663083)
(2.49642e-05 -2.89109e-05 0.442374)
(1.73486e-06 -1.52289e-05 0.169012)
(2.63029e-06 1.29086e-05 0.192074)
(3.29588e-05 2.41107e-05 0.509566)
(9.09724e-05 2.61252e-05 0.770285)
(0.0001687 2.34382e-05 0.982765)
(0.000256719 1.86992e-05 1.15397)
(0.000348187 1.35307e-05 1.28939)
(0.000434479 8.77549e-06 1.39325)
(0.000507733 4.71956e-06 1.46865)
(0.000561781 1.3155e-06 1.51781)
(0.000591656 -1.71482e-06 1.54212)
(0.000594286 -4.77342e-06 1.54223)
(0.000568974 -8.28461e-06 1.51812)
(0.000517608 -1.26049e-05 1.46907)
(0.000444542 -1.79051e-05 1.39366)
(0.000356112 -2.40349e-05 1.28965)
(0.000261104 -3.03899e-05 1.15397)
(0.000169516 -3.56679e-05 0.982446)
(8.95524e-05 -3.76603e-05 0.7697)
(3.12546e-05 -3.30672e-05 0.508902)
(2.18759e-06 -1.6831e-05 0.191681)
(2.932e-06 1.23413e-05 0.20958)
(3.77274e-05 2.36947e-05 0.561145)
(0.00010381 2.62769e-05 0.853477)
(0.000192008 2.40271e-05 1.09411)
(0.000291596 1.9495e-05 1.28947)
(0.000394696 1.43188e-05 1.44487)
(0.000491727 9.41012e-06 1.56453)
(0.000574001 5.12219e-06 1.65165)
(0.000634675 1.4378e-06 1.70855)
(0.000668274 -1.90413e-06 1.73672)
(0.000671406 -5.29594e-06 1.73685)
(0.000643273 -9.15519e-06 1.70892)
(0.000585902 -1.3821e-05 1.65215)
(0.000504045 -1.94317e-05 1.56502)
(0.0004047 -2.57841e-05 1.4452)
(0.000297571 -3.21788e-05 1.2895)
(0.000193785 -3.7216e-05 1.09378)
(0.000102784 -3.86456e-05 0.852848)
(3.60699e-05 -3.32514e-05 0.560418)
(2.46444e-06 -1.65099e-05 0.209144)
(3.13769e-06 1.06586e-05 0.222787)
(4.1209e-05 2.08803e-05 0.600161)
(0.000113367 2.35501e-05 0.916668)
(0.000209548 2.18323e-05 1.17908)
(0.000318032 1.79334e-05 1.39335)
(0.000430103 1.33219e-05 1.56455)
(0.00053542 8.8443e-06 1.6968)
(0.000624643 4.85505e-06 1.79332)
(0.000690415 1.36485e-06 1.85646)
(0.000726871 -1.84368e-06 1.88773)
(0.000730378 -5.1127e-06 1.88788)
(0.000700061 -8.80891e-06 1.85686)
(0.00063805 -1.32212e-05 1.79387)
(0.000549401 -1.84459e-05 1.69734)
(0.000441623 -2.42591e-05 1.56491)
(0.000325141 -2.99768e-05 1.39339)
(0.000211981 -3.42957e-05 1.17873)
(0.00011258 -3.51837e-05 0.915986)
(3.95525e-05 -2.98284e-05 0.599369)
(2.64515e-06 -1.45432e-05 0.222311)
(3.26536e-06 8.14712e-06 0.232274)
(4.35967e-05 1.61941e-05 0.628229)
(0.000120056 1.84807e-05 0.962242)
(0.000221959 1.73042e-05 1.24054)
(0.000336871 1.43434e-05 1.46873)
(0.000455446 1.0744e-05 1.65163)
(0.000566775 7.18497e-06 1.79327)
(0.000661042 3.96658e-06 1.89683)
(0.000730508 1.11409e-06 1.96465)
(0.000769028 -1.53282e-06 1.99827)
(0.000772795 -4.23688e-06 1.99842)
(0.000740874 -7.28092e-06 1.96508)
(0.000675475 -1.08825e-05 1.89741)
(0.000581878 -1.51001e-05 1.79385)
(0.000467967 -1.97315e-05 1.65201)
(0.000344705 -2.4206e-05 1.46877)
(0.000224782 -2.74747e-05 1.24017)
(0.000119379 -2.79399e-05 0.961508)
(4.19089e-05 -2.34435e-05 0.627378)
(2.74995e-06 -1.12813e-05 0.231763)
(3.33535e-06 5.0917e-06 0.238414)
(4.50765e-05 1.02162e-05 0.646408)
(0.000124271 1.1747e-05 0.991805)
(0.000229849 1.10713e-05 1.28049)
(0.000348915 9.23143e-06 1.51781)
(0.000471705 6.95187e-06 1.70844)
(0.000586939 4.67034e-06 1.8563)
(0.000684484 2.58714e-06 1.96453)
(0.000756349 7.25462e-07 2.03548)
(0.000796204 -1.01233e-06 2.07066)
(0.000800129 -2.79071e-06 2.07082)
(0.000767155 -4.78709e-06 2.03592)
(0.00069954 -7.13572e-06 1.96514)
(0.000602716 -9.86658e-06 1.85689)
(0.000484816 -1.28398e-05 1.70883)
(0.000357157 -1.56781e-05 1.51784)
(0.00023287 -1.77037e-05 1.28009)
(0.000123628 -1.79006e-05 0.99103)
(4.3349e-05 -1.49204e-05 0.645513)
(2.80242e-06 -7.11956e-06 0.237877)
(3.36609e-06 1.7303e-06 0.241431)
(4.57824e-05 3.48761e-06 0.655345)
(0.000126302 4.02504e-06 1.00635)
(0.000233673 3.80566e-06 1.30016)
(0.000354773 3.18229e-06 1.54201)
(0.000479634 2.40255e-06 1.73647)
(0.000596787 1.61751e-06 1.88743)
(0.000695944 8.97358e-07 1.998)
(0.000768988 2.51228e-07 2.0705)
(0.000809499 -3.53627e-07 2.10646)
(0.000813498 -9.73125e-07 2.10663)
(0.00078 -1.66763e-06 2.07095)
(0.000711291 -2.48245e-06 1.99861)
(0.000612875 -3.42662e-06 1.88803)
(0.000493011 -4.45033e-06 1.73686)
(0.000363194 -5.42188e-06 1.54203)
(0.000236773 -6.10702e-06 1.29974)
(0.000125662 -6.15768e-06 1.00555)
(4.4029e-05 -5.11588e-06 0.654426)
(2.82369e-06 -2.43114e-06 0.24088)
(3.36608e-06 -1.73029e-06 0.241431)
(4.57824e-05 -3.48772e-06 0.655345)
(0.000126302 -4.02534e-06 1.00635)
(0.000233673 -3.80621e-06 1.30016)
(0.000354773 -3.18306e-06 1.54201)
(0.000479634 -2.40347e-06 1.73647)
(0.000596788 -1.61846e-06 1.88743)
(0.000695944 -8.98222e-07 1.998)
(0.000768989 -2.51902e-07 2.0705)
(0.000809499 3.53211e-07 2.10646)
(0.000813499 9.72991e-07 2.10663)
(0.000780001 1.66776e-06 2.07095)
(0.000711292 2.48278e-06 1.99861)
(0.000612875 3.42707e-06 1.88803)
(0.000493011 4.45077e-06 1.73686)
(0.000363194 5.42223e-06 1.54203)
(0.000236773 6.10719e-06 1.29974)
(0.000125662 6.15769e-06 1.00555)
(4.4029e-05 5.11577e-06 0.654426)
(2.8237e-06 2.43102e-06 0.24088)
(3.33532e-06 -5.09166e-06 0.238414)
(4.50765e-05 -1.02163e-05 0.646408)
(0.000124271 -1.17473e-05 0.991805)
(0.000229849 -1.10718e-05 1.28049)
(0.000348916 -9.23217e-06 1.51781)
(0.000471706 -6.95277e-06 1.70844)
(0.00058694 -4.67127e-06 1.8563)
(0.000684485 -2.58799e-06 1.96453)
(0.00075635 -7.26129e-07 2.03548)
(0.000796206 1.01192e-06 2.07066)
(0.000800131 2.79057e-06 2.07082)
(0.000767156 4.7872e-06 2.03592)
(0.000699542 7.13603e-06 1.96514)
(0.000602717 9.867e-06 1.85689)
(0.000484817 1.28402e-05 1.70883)
(0.000357157 1.56785e-05 1.51784)
(0.000232871 1.77038e-05 1.28009)
(0.000123628 1.79006e-05 0.99103)
(4.33491e-05 1.49203e-05 0.645513)
(2.80245e-06 7.11944e-06 0.237877)
(3.26532e-06 -8.14702e-06 0.232274)
(4.35968e-05 -1.61941e-05 0.628229)
(0.000120056 -1.84809e-05 0.962242)
(0.00022196 -1.73046e-05 1.24054)
(0.000336872 -1.43441e-05 1.46873)
(0.000455447 -1.07449e-05 1.65163)
(0.000566777 -7.18586e-06 1.79327)
(0.000661044 -3.9674e-06 1.89683)
(0.000730511 -1.11474e-06 1.96465)
(0.000769031 1.5324e-06 1.99827)
(0.000772797 4.23672e-06 1.99842)
(0.000740876 7.28099e-06 1.96508)
(0.000675477 1.08827e-05 1.89741)
(0.00058188 1.51004e-05 1.79385)
(0.000467969 1.97318e-05 1.65201)
(0.000344706 2.42063e-05 1.46877)
(0.000224783 2.74748e-05 1.24017)
(0.00011938 2.79399e-05 0.961509)
(4.19091e-05 2.34434e-05 0.627378)
(2.74999e-06 1.12812e-05 0.231763)
(3.13764e-06 -1.06584e-05 0.222787)
(4.1209e-05 -2.08801e-05 0.600161)
(0.000113367 -2.35501e-05 0.916668)
(0.000209549 -2.18325e-05 1.17908)
(0.000318034 -1.7934e-05 1.39335)
(0.000430105 -1.33226e-05 1.56455)
(0.000535422 -8.84509e-06 1.6968)
(0.000624646 -4.85581e-06 1.79332)
(0.000690417 -1.36547e-06 1.85646)
(0.000726873 1.84327e-06 1.88773)
(0.000730381 5.11251e-06 1.88788)
(0.000700064 8.8089e-06 1.85686)
(0.000638052 1.32213e-05 1.79387)
(0.000549404 1.84461e-05 1.69734)
(0.000441625 2.42594e-05 1.56491)
(0.000325143 2.9977e-05 1.39339)
(0.000211982 3.42958e-05 1.17873)
(0.00011258 3.51837e-05 0.915986)
(3.95529e-05 2.98283e-05 0.599369)
(2.64521e-06 1.45432e-05 0.222311)
(2.93191e-06 -1.2341e-05 0.20958)
(3.77272e-05 -2.36942e-05 0.561145)
(0.00010381 -2.62767e-05 0.853478)
(0.000192009 -2.40272e-05 1.09411)
(0.000291597 -1.94953e-05 1.28947)
(0.000394698 -1.43194e-05 1.44487)
(0.000491729 -9.41079e-06 1.56453)
(0.000574003 -5.12286e-06 1.65165)
(0.000634678 -1.43837e-06 1.70855)
(0.000668277 1.90372e-06 1.73672)
(0.00067141 5.29569e-06 1.73685)
(0.000643276 9.15507e-06 1.70892)
(0.000585905 1.3821e-05 1.65215)
(0.000504048 1.94317e-05 1.56502)
(0.000404702 2.57842e-05 1.4452)
(0.000297573 3.21789e-05 1.2895)
(0.000193787 3.72161e-05 1.09378)
(0.000102784 3.86457e-05 0.852848)
(3.60703e-05 3.32514e-05 0.560418)
(2.46449e-06 1.65099e-05 0.209144)
(2.63008e-06 -1.29077e-05 0.192074)
(3.29578e-05 -2.41097e-05 0.509566)
(9.09718e-05 -2.61245e-05 0.770285)
(0.0001687 -2.3438e-05 0.982765)
(0.00025672 -1.86993e-05 1.15397)
(0.000348189 -1.35311e-05 1.2894)
(0.000434481 -8.77603e-06 1.39325)
(0.000507736 -4.72014e-06 1.46865)
(0.000561784 -1.31603e-06 1.51781)
(0.00059166 1.7144e-06 1.54212)
(0.00059429 4.7731e-06 1.54223)
(0.000568977 8.28436e-06 1.51812)
(0.000517611 1.26047e-05 1.46907)
(0.000444545 1.79049e-05 1.39366)
(0.000356114 2.40348e-05 1.28965)
(0.000261105 3.03898e-05 1.15397)
(0.000169517 3.5668e-05 0.982446)
(8.95531e-05 3.76604e-05 0.769701)
(3.1255e-05 3.30673e-05 0.508902)
(2.18764e-06 1.68311e-05 0.191681)
(2.15139e-06 -1.2065e-05 0.169364)
(2.67378e-05 -2.16891e-05 0.442978)
(7.4567e-05 -2.28012e-05 0.663632)
(0.000139206 -1.99641e-05 0.841063)
(0.000212805 -1.55485e-05 0.982667)
(0.000289774 -1.10135e-05 1.09393)
(0.000362672 -7.02014e-06 1.17886)
(0.000424655 -3.71092e-06 1.24033)
(0.000470401 -1.01396e-06 1.28033)
(0.000495609 1.32425e-06 1.30009)
(0.000497619 3.66504e-06 1.30018)
(0.000475859 6.38737e-06 1.28058)
(0.000432028 9.82039e-06 1.24066)
(0.000369947 1.41387e-05 1.17916)
(0.000295125 1.92639e-05 1.0941)
(0.000215213 2.48021e-05 0.982607)
(0.000138818 2.97177e-05 0.840735)
(7.26446e-05 3.20629e-05 0.663083)
(2.49645e-05 2.89111e-05 0.442374)
(1.7349e-06 1.5229e-05 0.169012)
(1.45399e-06 -9.47187e-06 0.139932)
(1.9029e-05 -1.62971e-05 0.357585)
(5.45945e-05 -1.63057e-05 0.528501)
(0.000103581 -1.39251e-05 0.663545)
(0.000159876 -1.05265e-05 0.770102)
(0.000219278 -7.2223e-06 0.853212)
(0.000275872 -4.49932e-06 0.91635)
(0.000324107 -2.32207e-06 0.961912)
(0.000359705 -6.07358e-07 0.991499)
(0.000379223 8.23398e-07 1.0061)
(0.000380536 2.23706e-06 1.00616)
(0.00036322 3.9147e-06 0.991666)
(0.000328694 6.10603e-06 0.962127)
(0.000280077 8.94489e-06 0.916533)
(0.000221838 1.24244e-05 0.853277)
(0.0001602 1.64209e-05 0.769979)
(0.000101988 2.01976e-05 0.663207)
(5.22303e-05 2.23083e-05 0.527992)
(1.72476e-05 2.09825e-05 0.357045)
(1.07347e-06 1.14986e-05 0.139621)
(8.08743e-07 -5.58071e-06 0.1009)
(1.03492e-05 -8.76555e-06 0.247169)
(3.19508e-05 -8.25905e-06 0.357536)
(6.27232e-05 -6.77856e-06 0.442854)
(9.89402e-05 -4.89892e-06 0.509358)
(0.00013758 -3.20477e-06 0.560863)
(0.000174655 -1.92782e-06 0.599825)
(0.000206362 -9.51333e-07 0.627867)
(0.000229749 -2.2191e-07 0.646048)
(0.00024247 3.46501e-07 0.655007)
(0.000243096 8.95329e-07 0.65504)
(0.000231367 1.57064e-06 0.646134)
(0.000208287 2.50889e-06 0.627969)
(0.000176032 3.78094e-06 0.599891)
(0.000137731 5.40594e-06 0.560837)
(9.76644e-05 7.43311e-06 0.509197)
(6.04379e-05 9.51559e-06 0.442542)
(2.95747e-05 1.09061e-05 0.357107)
(8.81341e-06 1.08194e-05 0.246727)
(5.07858e-07 6.42554e-06 0.100644)
(-2.98223e-07 -1.20177e-06 0.0455982)
(2.18235e-06 -1.85793e-06 0.100889)
(9.04791e-06 -9.70948e-07 0.139894)
(1.98991e-05 -8.88126e-07 0.169287)
(3.29587e-05 -6.12101e-07 0.191954)
(4.7263e-05 -2.7856e-07 0.209418)
(6.1135e-05 -1.55952e-07 0.222594)
(7.30159e-05 -7.00795e-08 0.232061)
(8.17696e-05 4.92187e-10 0.238193)
(8.6474e-05 3.65878e-08 0.241211)
(8.65677e-05 6.12391e-08 0.241219)
(8.19631e-05 1.07126e-07 0.238211)
(7.30847e-05 1.97626e-07 0.232075)
(6.08171e-05 3.13556e-07 0.222585)
(4.63913e-05 4.75538e-07 0.209366)
(3.15746e-05 8.52053e-07 0.191841)
(1.8288e-05 1.15991e-06 0.169109)
(7.66753e-06 1.25428e-06 0.139667)
(1.4059e-06 2.0785e-06 0.100656)
(-4.37198e-07 1.29006e-06 0.0454528)
(-1.32349e-06 3.06123e-06 0.0455915)
(2.06038e-06 4.41264e-06 0.100873)
(1.49305e-05 3.28431e-06 0.139872)
(3.73824e-05 2.75212e-06 0.16926)
(6.64573e-05 2.01178e-06 0.191926)
(9.91732e-05 1.2707e-06 0.209391)
(0.000131521 8.13844e-07 0.22257)
(0.000159646 4.5735e-07 0.232042)
(0.000180405 1.60359e-07 0.238181)
(0.000191358 -8.05127e-08 0.241208)
(0.000191078 -3.11656e-07 0.241224)
(0.00017938 -5.8903e-07 0.238225)
(0.000157424 -9.58348e-07 0.232097)
(0.000127653 -1.41969e-06 0.222612)
(9.35637e-05 -2.00487e-06 0.209397)
(5.96365e-05 -2.87458e-06 0.191872)
(3.05458e-05 -3.69749e-06 0.169138)
(9.61817e-06 -4.20833e-06 0.139691)
(-6.94854e-07 -5.07572e-06 0.100672)
(-1.74632e-06 -3.25001e-06 0.0454593)
(2.28703e-07 1.53157e-05 0.100885)
(1.85283e-05 2.57082e-05 0.24713)
(6.37295e-05 2.59629e-05 0.357479)
(0.000132189 2.25369e-05 0.442786)
(0.000216496 1.77081e-05 0.509285)
(0.000308416 1.28894e-05 0.560791)
(0.000398009 8.65905e-06 0.599761)
(0.000475575 4.9836e-06 0.627817)
(0.000532955 1.75703e-06 0.646017)
(0.000563822 -1.22561e-06 0.654997)
(0.000564418 -4.25129e-06 0.655054)
(0.000534127 -7.61089e-06 0.64617)
(0.000475745 -1.15583e-05 0.628025)
(0.000395349 -1.62182e-05 0.599963)
(0.000301779 -2.15445e-05 0.560918)
(0.000206201 -2.73102e-05 0.509279)
(0.000120278 -3.25341e-05 0.442617)
(5.34212e-05 -3.52577e-05 0.357169)
(1.2561e-05 -3.25819e-05 0.246768)
(-8.0716e-07 -1.7901e-05 0.100659)
(1.7202e-06 2.75438e-05 0.139911)
(3.86715e-05 4.96924e-05 0.357528)
(0.000117743 5.28473e-05 0.528417)
(0.00023135 4.76456e-05 0.663443)
(0.000366998 3.87452e-05 0.769992)
(0.000512487 2.90475e-05 0.853103)
(0.000652978 1.99037e-05 0.916253)
(0.000774101 1.15841e-05 0.961835)
(0.000863786 3.99146e-06 0.991451)
(0.000912586 -3.23739e-06 1.00608)
(0.000914814 -1.06272e-05 1.00618)
(0.000869406 -1.87154e-05 0.991719)
(0.000780325 -2.79336e-05 0.96221)
(0.000656382 -3.84319e-05 0.91664)
(0.000510445 -4.99282e-05 0.853396)
(0.000358952 -6.15492e-05 0.770101)
(0.000219367 -7.10743e-05 0.663319)
(0.000105968 -7.4498e-05 0.528082)
(3.122e-05 -6.59774e-05 0.357103)
(3.50311e-07 -3.42326e-05 0.139642)
(3.32037e-06 3.65794e-05 0.169339)
(5.82274e-05 6.87159e-05 0.442909)
(0.000169226 7.5809e-05 0.663527)
(0.000324359 7.00584e-05 0.840935)
(0.000506642 5.82875e-05 0.982527)
(0.000699923 4.45687e-05 1.09379)
(0.000885256 3.09393e-05 1.17873)
(0.00104454 1.81142e-05 1.24023)
(0.00116249 6.10222e-06 1.28027)
(0.00122715 -5.54592e-06 1.30006)
(0.00123125 -1.75103e-05 1.3002)
(0.00117328 -3.04858e-05 1.28064)
(0.00105806 -4.49906e-05 1.24076)
(0.000896495 -6.11146e-05 1.17929)
(0.000704681 -7.82307e-05 1.09425)
(0.000503262 -9.4681e-05 0.982759)
(0.000314597 -0.000107124 0.840873)
(0.000157769 -0.000109881 0.663193)
(5.02933e-05 -9.44463e-05 0.442445)
(1.77774e-06 -4.7425e-05 0.169036)
(4.57038e-06 4.07216e-05 0.192047)
(7.52419e-05 7.89515e-05 0.509487)
(0.000214386 8.92979e-05 0.770165)
(0.000406108 8.42045e-05 0.982617)
(0.000629224 7.12993e-05 1.15381)
(0.000863995 5.52948e-05 1.28923)
(0.00108803 3.87633e-05 1.3931)
(0.00128012 2.27848e-05 1.46854)
(0.00142235 7.50455e-06 1.51773)
(0.00150068 -7.51392e-06 1.54209)
(0.00150654 -2.29904e-05 1.54225)
(0.00143806 -3.96621e-05 1.5182)
(0.00130067 -5.80297e-05 1.46919)
(0.00110696 -7.80526e-05 1.39381)
(0.000875642 -9.8784e-05 1.28982)
(0.000630867 -0.000117954 1.15414)
(0.000399109 -0.000131387 0.982602)
(0.000203804 -0.000132443 0.769824)
(6.71914e-05 -0.000111489 0.50898)
(2.90752e-06 -5.45191e-05 0.191707)
(5.48674e-06 4.01922e-05 0.20955)
(8.91392e-05 7.97493e-05 0.561061)
(0.000251784 9.19073e-05 0.853347)
(0.000474226 8.80097e-05 1.09394)
(0.00073165 7.54939e-05 1.28929)
(0.00100123 5.91638e-05 1.44469)
(0.00125766 4.17852e-05 1.56437)
(0.00147715 2.46215e-05 1.65152)
(0.0016396 7.93617e-06 1.70847)
(0.00172931 -8.62985e-06 1.73669)
(0.00173666 -2.57407e-05 1.73688)
(0.00165947 -4.40786e-05 1.709)
(0.00150364 -6.40581e-05 1.65228)
(0.0012831 -8.55005e-05 1.56518)
(0.00101873 -0.000107256 1.44538)
(0.000737589 -0.000126767 1.28969)
(0.000469618 -0.000139563 1.09395)
(0.000241986 -0.000138817 0.85298)
(8.10142e-05 -0.000115011 0.5605)
(3.72025e-06 -5.51354e-05 0.209171)
(6.15343e-06 3.55951e-05 0.222756)
(9.98745e-05 7.18352e-05 0.600072)
(0.000281084 8.39321e-05 0.916529)
(0.000527994 8.12902e-05 1.1789)
(0.000812873 7.04046e-05 1.39316)
(0.00111034 5.56122e-05 1.56436)
(0.00139272 3.94971e-05 1.69663)
(0.00163412 2.33078e-05 1.79318)
(0.00181271 7.37049e-06 1.85637)
(0.00191147 -8.57187e-06 1.8877)
(0.00191998 -2.50659e-05 1.8879)
(0.00183579 -4.26739e-05 1.85694)
(0.00166517 -6.16964e-05 1.79401)
(0.00142313 -8.18657e-05 1.69752)
(0.00113227 -0.000102 1.56511)
(0.00082199 -0.000119621 1.39359)
(0.000525079 -0.000130545 1.1789)
(0.000271759 -0.000128561 0.916123)
(9.16108e-05 -0.000105265 0.599453)
(4.29079e-06 -4.97234e-05 0.222337)
(6.60447e-06 2.77459e-05 0.232243)
(0.000107622 5.66732e-05 0.628137)
(0.000302514 6.6859e-05 0.962098)
(0.000567607 6.5283e-05 1.24036)
(0.00087299 5.69356e-05 1.46853)
(0.00119132 4.52298e-05 1.65143)
(0.00149313 3.22511e-05 1.79309)
(0.00175093 1.90475e-05 1.89668)
(0.00194158 5.93081e-06 1.96455)
(0.00204709 -7.26031e-06 1.99823)
(0.00205641 -2.09236e-05 1.99845)
(0.00196691 -3.54682e-05 1.96516)
(0.00178518 -5.10851e-05 1.89755)
(0.00152698 -6.74968e-05 1.79402)
(0.00121626 -8.3683e-05 1.65221)
(0.000884188 -9.75863e-05 1.46897)
(0.000565709 -0.000105821 1.24035)
(0.000293369 -0.000103468 0.961648)
(9.91692e-05 -8.40134e-05 0.627463)
(4.65757e-06 -3.92669e-05 0.231789)
(6.87826e-06 1.75728e-05 0.238382)
(0.000112621 3.61718e-05 0.646314)
(0.000316485 4.29374e-05 0.991657)
(0.000593582 4.21463e-05 1.2803)
(0.000912555 3.6923e-05 1.5176)
(0.00124475 2.94393e-05 1.70823)
(0.00155947 2.10445e-05 1.85611)
(0.00182817 1.24338e-05 1.96438)
(0.00202684 3.82936e-06 2.03538)
(0.00213681 -4.85369e-06 2.07062)
(0.00214664 -1.38541e-05 2.07084)
(0.00205358 -2.34172e-05 2.036)
(0.0018644 -3.36442e-05 1.96528)
(0.00159543 -4.43294e-05 1.85707)
(0.00127148 -5.47839e-05 1.70903)
(0.000924945 -6.36516e-05 1.51804)
(0.000592199 -6.87376e-05 1.28027)
(0.000307349 -6.68965e-05 0.991171)
(0.000103989 -5.40266e-05 0.645598)
(4.86817e-06 -2.50798e-05 0.237903)
(7.00721e-06 6.01132e-06 0.241399)
(0.000115067 1.24201e-05 0.65525)
(0.000323366 1.47875e-05 1.0062)
(0.000606421 1.45522e-05 1.29997)
(0.000932159 1.27765e-05 1.5418)
(0.00127126 1.02047e-05 1.73626)
(0.00159243 7.30334e-06 1.88724)
(0.00186657 4.31543e-06 1.99785)
(0.00206923 1.32115e-06 2.0704)
(0.00218142 -1.7055e-06 2.10642)
(0.00219149 -4.84388e-06 2.10665)
(0.00209663 -8.17541e-06 2.07103)
(0.00190373 -1.17313e-05 1.99875)
(0.00162938 -1.54359e-05 1.88821)
(0.00129882 -1.90462e-05 1.73707)
(0.000945076 -2.20896e-05 1.54224)
(0.000605238 -2.38064e-05 1.29993)
(0.000314196 -2.3116e-05 1.00569)
(0.000106327 -1.86198e-05 0.654511)
(4.96322e-06 -8.61487e-06 0.240906)
(7.0072e-06 -6.01204e-06 0.241399)
(0.000115067 -1.24223e-05 0.65525)
(0.000323366 -1.47909e-05 1.0062)
(0.000606422 -1.45566e-05 1.29997)
(0.000932159 -1.27814e-05 1.5418)
(0.00127126 -1.02097e-05 1.73626)
(0.00159243 -7.30797e-06 1.88724)
(0.00186657 -4.31921e-06 1.99785)
(0.00206923 -1.32371e-06 2.0704)
(0.00218142 1.70442e-06 2.10642)
(0.00219149 4.84436e-06 2.10665)
(0.00209664 8.17741e-06 2.07103)
(0.00190373 1.17346e-05 1.99875)
(0.00162938 1.54401e-05 1.88821)
(0.00129882 1.9051e-05 1.73707)
(0.000945077 2.20943e-05 1.54224)
(0.000605238 2.38107e-05 1.29993)
(0.000314197 2.31194e-05 1.00569)
(0.000106327 1.86219e-05 0.654511)
(4.96323e-06 8.61555e-06 0.240906)
(6.87824e-06 -1.75734e-05 0.238382)
(0.000112621 -3.61738e-05 0.646314)
(0.000316485 -4.29406e-05 0.991657)
(0.000593583 -4.21505e-05 1.2803)
(0.000912556 -3.69278e-05 1.5176)
(0.00124475 -2.94441e-05 1.70823)
(0.00155947 -2.10489e-05 1.85611)
(0.00182817 -1.24374e-05 1.96438)
(0.00202684 -3.83182e-06 2.03538)
(0.00213681 4.85266e-06 2.07062)
(0.00214664 1.38546e-05 2.07084)
(0.00205358 2.34192e-05 2.036)
(0.0018644 3.36474e-05 1.96528)
(0.00159543 4.43335e-05 1.85707)
(0.00127148 5.47885e-05 1.70903)
(0.000924946 6.36562e-05 1.51804)
(0.000592199 6.87417e-05 1.28027)
(0.00030735 6.68997e-05 0.991171)
(0.000103989 5.40287e-05 0.645598)
(4.86818e-06 2.50805e-05 0.237903)
(6.60444e-06 -2.77464e-05 0.232243)
(0.000107622 -5.66749e-05 0.628137)
(0.000302514 -6.68619e-05 0.962098)
(0.000567608 -6.52868e-05 1.24036)
(0.000872991 -5.69399e-05 1.46853)
(0.00119132 -4.52343e-05 1.65143)
(0.00149313 -3.22552e-05 1.79309)
(0.00175093 -1.90509e-05 1.89668)
(0.00194159 -5.93308e-06 1.96455)
(0.00204709 7.25936e-06 1.99823)
(0.00205642 2.09241e-05 1.99845)
(0.00196692 3.547e-05 1.96516)
(0.00178518 5.1088e-05 1.89755)
(0.00152699 6.75006e-05 1.79402)
(0.00121626 8.36873e-05 1.65221)
(0.000884189 9.75906e-05 1.46897)
(0.00056571 0.000105825 1.24035)
(0.000293369 0.000103471 0.961648)
(9.91694e-05 8.40153e-05 0.627463)
(4.65759e-06 3.92676e-05 0.231789)
(6.15338e-06 -3.55955e-05 0.222756)
(9.98745e-05 -7.18366e-05 0.600072)
(0.000281084 -8.39344e-05 0.916529)
(0.000527995 -8.12933e-05 1.1789)
(0.000812874 -7.04083e-05 1.39316)
(0.00111034 -5.56161e-05 1.56436)
(0.00139272 -3.95006e-05 1.69663)
(0.00163412 -2.33107e-05 1.79318)
(0.00181271 -7.37246e-06 1.85637)
(0.00191148 8.57106e-06 1.8877)
(0.00191999 2.50663e-05 1.88791)
(0.00183579 4.26755e-05 1.85694)
(0.00166518 6.1699e-05 1.79401)
(0.00142313 8.18691e-05 1.69752)
(0.00113227 0.000102004 1.56511)
(0.000821992 0.000119625 1.39359)
(0.000525081 0.000130548 1.1789)
(0.00027176 0.000128563 0.916123)
(9.16112e-05 0.000105267 0.599453)
(4.29082e-06 4.9724e-05 0.222337)
(5.48665e-06 -4.01923e-05 0.20955)
(8.9139e-05 -7.97501e-05 0.561061)
(0.000251784 -9.1909e-05 0.853347)
(0.000474226 -8.80121e-05 1.09394)
(0.000731651 -7.54968e-05 1.28929)
(0.00100123 -5.91669e-05 1.44469)
(0.00125766 -4.17881e-05 1.56437)
(0.00147715 -2.4624e-05 1.65152)
(0.0016396 -7.9378e-06 1.70847)
(0.00172931 8.62918e-06 1.73669)
(0.00173667 2.57411e-05 1.73688)
(0.00165948 4.40799e-05 1.709)
(0.00150365 6.40602e-05 1.65228)
(0.00128311 8.55032e-05 1.56518)
(0.00101874 0.000107259 1.44538)
(0.000737591 0.00012677 1.28969)
(0.00046962 0.000139566 1.09395)
(0.000241987 0.00013882 0.85298)
(8.10145e-05 0.000115013 0.5605)
(3.72026e-06 5.5136e-05 0.209171)
(4.57018e-06 -4.07212e-05 0.192047)
(7.5241e-05 -7.89516e-05 0.509488)
(0.000214385 -8.92987e-05 0.770166)
(0.000406108 -8.4206e-05 0.982617)
(0.000629225 -7.13014e-05 1.15381)
(0.000863996 -5.52971e-05 1.28923)
(0.00108803 -3.87655e-05 1.3931)
(0.00128013 -2.27866e-05 1.46854)
(0.00142235 -7.50578e-06 1.51773)
(0.00150068 7.51342e-06 1.54209)
(0.00150654 2.29907e-05 1.54225)
(0.00143806 3.9663e-05 1.5182)
(0.00130067 5.80313e-05 1.46919)
(0.00110696 7.80546e-05 1.39381)
(0.000875645 9.87864e-05 1.28983)
(0.000630869 0.000117956 1.15414)
(0.000399111 0.00013139 0.982602)
(0.000203804 0.000132445 0.769824)
(6.71917e-05 0.00011149 0.50898)
(2.90752e-06 5.45197e-05 0.191707)
(3.31992e-06 -3.65777e-05 0.169339)
(5.82254e-05 -6.87148e-05 0.442909)
(0.000169224 -7.58087e-05 0.663527)
(0.000324358 -7.00589e-05 0.840935)
(0.000506642 -5.82886e-05 0.982527)
(0.000699924 -4.45701e-05 1.09379)
(0.000885258 -3.09408e-05 1.17873)
(0.00104454 -1.81154e-05 1.24023)
(0.0011625 -6.10308e-06 1.28027)
(0.00122716 5.54557e-06 1.30006)
(0.00123125 1.75105e-05 1.3002)
(0.00117329 3.04865e-05 1.28064)
(0.00105806 4.49916e-05 1.24076)
(0.000896497 6.11159e-05 1.17929)
(0.000704683 7.82323e-05 1.09425)
(0.000503264 9.46827e-05 0.982759)
(0.000314597 0.000107125 0.840873)
(0.00015777 0.000109883 0.663193)
(5.02935e-05 9.44475e-05 0.442445)
(1.77771e-06 4.74254e-05 0.169036)
(1.71897e-06 -2.75396e-05 0.139911)
(3.86681e-05 -4.96896e-05 0.357528)
(0.00011774 -5.28458e-05 0.528417)
(0.000231348 -4.76452e-05 0.663443)
(0.000366998 -3.87456e-05 0.769992)
(0.000512488 -2.90483e-05 0.853103)
(0.000652979 -1.99046e-05 0.916253)
(0.000774103 -1.15849e-05 0.961835)
(0.000863788 -3.99201e-06 0.991451)
(0.000912589 3.23717e-06 1.00608)
(0.000914817 1.06273e-05 1.00618)
(0.000869409 1.87158e-05 0.991719)
(0.000780328 2.79342e-05 0.96221)
(0.000656384 3.84327e-05 0.91664)
(0.000510447 4.99291e-05 0.853396)
(0.000358953 6.15502e-05 0.770101)
(0.000219367 7.10754e-05 0.663319)
(0.000105968 7.4499e-05 0.528082)
(3.122e-05 6.59782e-05 0.357103)
(3.50251e-07 3.42329e-05 0.139642)
(2.2512e-07 -1.53074e-05 0.100885)
(1.85233e-05 -2.5704e-05 0.24713)
(6.37255e-05 -2.59604e-05 0.357479)
(0.000132186 -2.25357e-05 0.442786)
(0.000216495 -1.77079e-05 0.509285)
(0.000308416 -1.28896e-05 0.560791)
(0.00039801 -8.65945e-06 0.599761)
(0.000475576 -4.98398e-06 0.627817)
(0.000532957 -1.7573e-06 0.646017)
(0.000563824 1.2255e-06 0.654998)
(0.00056442 4.25134e-06 0.655054)
(0.000534129 7.61107e-06 0.64617)
(0.000475746 1.15585e-05 0.628025)
(0.00039535 1.62186e-05 0.599963)
(0.00030178 2.15449e-05 0.560918)
(0.000206201 2.73106e-05 0.509279)
(0.000120277 3.25346e-05 0.442617)
(5.34209e-05 3.52582e-05 0.357169)
(1.25608e-05 3.25822e-05 0.246768)
(-8.07304e-07 1.79011e-05 0.100659)
(-1.32984e-06 -3.05495e-06 0.0455915)
(2.0518e-06 -4.40922e-06 0.100873)
(1.49257e-05 -3.28339e-06 0.139872)
(3.73802e-05 -2.75199e-06 0.16926)
(6.64564e-05 -2.01187e-06 0.191926)
(9.9173e-05 -1.27084e-06 0.209391)
(0.000131522 -8.13996e-07 0.22257)
(0.000159647 -4.5749e-07 0.232042)
(0.000180405 -1.60479e-07 0.238181)
(0.000191359 8.04111e-08 0.241208)
(0.000191079 3.1157e-07 0.241224)
(0.00017938 5.88953e-07 0.238225)
(0.000157424 9.58271e-07 0.232097)
(0.000127654 1.4196e-06 0.222612)
(9.35638e-05 2.00476e-06 0.209397)
(5.96364e-05 2.87446e-06 0.191872)
(3.05456e-05 3.69736e-06 0.169138)
(9.61795e-06 4.20822e-06 0.139691)
(-6.95018e-07 5.07562e-06 0.100672)
(-1.74638e-06 3.24998e-06 0.0454593)
(-2.38127e-06 5.11908e-06 0.0455795)
(2.61776e-06 7.20875e-06 0.100844)
(2.29855e-05 5.78451e-06 0.139831)
(5.91719e-05 4.74689e-06 0.169211)
(0.000106797 3.49573e-06 0.191873)
(0.000160635 2.3127e-06 0.20934)
(0.000214128 1.49741e-06 0.222524)
(0.000260912 8.53325e-07 0.232007)
(0.000295634 3.17245e-07 0.238159)
(0.000314154 -1.39531e-07 0.241202)
(0.000314017 -5.89555e-07 0.241235)
(0.000294829 -1.11511e-06 0.238252)
(0.000258451 -1.78767e-06 0.232139)
(0.000208949 -2.63038e-06 0.222666)
(0.000152274 -3.68999e-06 0.209456)
(9.59444e-05 -5.12199e-06 0.191933)
(4.78181e-05 -6.54518e-06 0.169194)
(1.38866e-05 -7.56195e-06 0.139736)
(-2.22471e-06 -8.53512e-06 0.100703)
(-3.16085e-06 -5.55868e-06 0.045471)
(-1.9566e-07 2.59744e-05 0.100857)
(2.91985e-05 4.40362e-05 0.247057)
(0.000102337 4.49222e-05 0.357372)
(0.000214371 3.92774e-05 0.442655)
(0.000353612 3.12201e-05 0.509144)
(0.00050607 2.30375e-05 0.560653)
(0.000655311 1.56626e-05 0.599638)
(0.000785202 9.13642e-06 0.62772)
(0.000881859 3.28419e-06 0.645956)
(0.000934489 -2.23747e-06 0.654979)
(0.000936585 -7.88292e-06 0.65508)
(0.000886878 -1.41112e-05 0.646241)
(0.000789839 -2.13171e-05 0.628136)
(0.000655594 -2.96995e-05 0.600103)
(0.000499148 -3.91564e-05 0.561076)
(0.000339332 -4.91711e-05 0.509439)
(0.000195924 -5.80678e-05 0.442764)
(8.5394e-05 -6.25301e-05 0.357287)
(1.89778e-05 -5.724e-05 0.246845)
(-2.05366e-06 -3.11067e-05 0.100687)
(2.30335e-06 4.71095e-05 0.139873)
(6.25111e-05 8.55274e-05 0.357423)
(0.000192006 9.17668e-05 0.528258)
(0.000379396 8.33319e-05 0.663248)
(0.000604915 6.84372e-05 0.769779)
(0.000847572 5.18865e-05 0.852894)
(0.00108282 3.59309e-05 0.916066)