/*--------------------------------*- C++ -*----------------------------------*\
  =========                 |
  \\      /  F ield         | OpenFOAM: The Open Source CFD Toolbox
   \\    /   O peration     | Website:  https://openfoam.org
    \\  /    A nd           | Version:  6
     \\/     M anipulation  |
\*---------------------------------------------------------------------------*/
FoamFile
{
    version     2.0;
    format      ascii;
    class       volScalarField;
    location    "0.255";
    object      T;
}
// * * * * * * * * * * * * * * * * * * * * * * * * * * * * * * * * * * * * * //

dimensions      [0 0 0 1 0 0 0];

internalField   nonuniform List<scalar> 
7000
(
103.836
103.835
103.834
103.833
103.831
103.829
103.827
103.825
103.824
103.823
103.836
103.835
103.834
103.833
103.831
103.829
103.827
103.825
103.824
103.823
103.836
103.835
103.834
103.833
103.831
103.829
103.827
103.825
103.824
103.823
103.836
103.835
103.834
103.833
103.831
103.829
103.827
103.825
103.824
103.823
103.836
103.835
103.834
103.833
103.831
103.829
103.827
103.825
103.824
103.823
103.836
103.835
103.834
103.833
103.831
103.829
103.827
103.825
103.824
103.823
103.836
103.835
103.834
103.833
103.831
103.829
103.827
103.825
103.824
103.823
103.836
103.835
103.834
103.833
103.831
103.829
103.827
103.825
103.824
103.823
103.836
103.835
103.834
103.833
103.831
103.829
103.827
103.825
103.824
103.823
103.836
103.835
103.834
103.833
103.831
103.829
103.827
103.825
103.824
103.823
91.6281
91.6267
91.6238
91.6197
91.6143
91.6081
91.6015
91.5953
91.5904
91.5877
91.6281
91.6266
91.6238
91.6196
91.6143
91.608
91.6014
91.5952
91.5904
91.5877
91.628
91.6266
91.6237
91.6196
91.6142
91.608
91.6014
91.5952
91.5903
91.5877
91.628
91.6265
91.6237
91.6195
91.6142
91.608
91.6014
91.5952
91.5903
91.5876
91.628
91.6265
91.6237
91.6195
91.6142
91.6079
91.6013
91.5952
91.5903
91.5876
91.628
91.6265
91.6237
91.6195
91.6142
91.6079
91.6013
91.5952
91.5903
91.5876
91.628
91.6265
91.6237
91.6195
91.6142
91.608
91.6014
91.5952
91.5903
91.5876
91.628
91.6265
91.6237
91.6196
91.6142
91.608
91.6014
91.5952
91.5903
91.5877
91.628
91.6266
91.6237
91.6196
91.6142
91.608
91.6014
91.5952
91.5904
91.5877
91.628
91.6266
91.6238
91.6196
91.6143
91.6081
91.6015
91.5953
91.5904
91.5877
79.7769
79.7743
79.769
79.7613
79.7512
79.7393
79.7265
79.7143
79.7046
79.6992
79.7768
79.7742
79.769
79.7612
79.7511
79.7392
79.7264
79.7142
79.7045
79.6991
79.7767
79.7741
79.7689
79.7611
79.7511
79.7391
79.7263
79.7141
79.7044
79.699
79.7767
79.774
79.7688
79.7611
79.751
79.7391
79.7263
79.7141
79.7044
79.699
79.7767
79.774
79.7688
79.7611
79.751
79.7391
79.7263
79.7141
79.7044
79.699
79.7767
79.774
79.7688
79.7611
79.751
79.7391
79.7263
79.7141
79.7044
79.699
79.7767
79.774
79.7688
79.7611
79.751
79.7391
79.7263
79.7141
79.7044
79.699
79.7767
79.7741
79.7689
79.7611
79.751
79.7391
79.7263
79.7141
79.7044
79.6991
79.7767
79.7741
79.7689
79.7612
79.7511
79.7392
79.7264
79.7142
79.7045
79.6991
79.7768
79.7742
79.769
79.7612
79.7512
79.7392
79.7265
79.7143
79.7046
79.6992
68.4965
68.4923
68.4839
68.4713
68.4546
68.4345
68.4124
68.3909
68.3734
68.3635
68.4964
68.4921
68.4838
68.4712
68.4545
68.4344
68.4123
68.3908
68.3733
68.3634
68.4963
68.492
68.4837
68.4711
68.4544
68.4343
68.4122
68.3907
68.3732
68.3633
68.4962
68.492
68.4836
68.471
68.4543
68.4342
68.4122
68.3907
68.3732
68.3633
68.4962
68.492
68.4836
68.471
68.4543
68.4342
68.4121
68.3906
68.3732
68.3633
68.4962
68.492
68.4836
68.471
68.4543
68.4342
68.4121
68.3906
68.3732
68.3633
68.4962
68.492
68.4836
68.471
68.4543
68.4342
68.4122
68.3907
68.3732
68.3633
68.4962
68.492
68.4837
68.4711
68.4544
68.4343
68.4122
68.3907
68.3732
68.3634
68.4963
68.4921
68.4837
68.4711
68.4545
68.4344
68.4123
68.3908
68.3733
68.3634
68.4963
68.4922
68.4838
68.4712
68.4546
68.4345
68.4124
68.3909
68.3734
68.3635
57.9689
57.9627
57.9501
57.9308
57.9047
57.8725
57.8361
57.7995
57.7688
57.751
57.9688
57.9625
57.9499
57.9307
57.9046
57.8724
57.836
57.7994
57.7687
57.7509
57.9687
57.9624
57.9498
57.9306
57.9045
57.8723
57.8359
57.7993
57.7686
57.7508
57.9686
57.9624
57.9498
57.9305
57.9044
57.8722
57.8358
57.7993
57.7686
57.7508
57.9686
57.9623
57.9497
57.9305
57.9044
57.8722
57.8358
57.7992
57.7686
57.7507
57.9686
57.9623
57.9497
57.9305
57.9044
57.8722
57.8358
57.7992
57.7686
57.7508
57.9686
57.9623
57.9498
57.9305
57.9044
57.8722
57.8358
57.7993
57.7686
57.7508
57.9686
57.9624
57.9498
57.9306
57.9045
57.8723
57.8359
57.7993
57.7687
57.7509
57.9687
57.9625
57.9499
57.9306
57.9046
57.8724
57.836
57.7994
57.7688
57.751
57.9688
57.9626
57.95
57.9308
57.9047
57.8725
57.8361
57.7996
57.7689
57.7511
48.3356
48.3267
48.3086
48.2804
48.2412
48.1913
48.1327
48.0714
48.0177
47.9852
48.3355
48.3266
48.3085
48.2802
48.2411
48.1911
48.1326
48.0713
48.0176
47.9851
48.3354
48.3265
48.3084
48.2801
48.241
48.191
48.1325
48.0712
48.0175
47.985
48.3353
48.3264
48.3083
48.2801
48.2409
48.1909
48.1324
48.0711
48.0174
47.985
48.3352
48.3264
48.3083
48.28
48.2409
48.1909
48.1324
48.0711
48.0174
47.985
48.3352
48.3264
48.3083
48.28
48.2409
48.1909
48.1324
48.0711
48.0174
47.985
48.3353
48.3264
48.3083
48.2801
48.2409
48.191
48.1324
48.0711
48.0174
47.985
48.3353
48.3265
48.3084
48.2801
48.241
48.191
48.1325
48.0712
48.0175
47.9851
48.3354
48.3266
48.3085
48.2802
48.2411
48.1911
48.1326
48.0713
48.0176
47.9852
48.3355
48.3267
48.3086
48.2804
48.2412
48.1913
48.1328
48.0715
48.0178
47.9853
39.6924
39.6803
39.6554
39.6156
39.5589
39.4838
39.3917
39.2899
39.195
39.1341
39.6922
39.6802
39.6552
39.6154
39.5587
39.4836
39.3916
39.2898
39.1949
39.134
39.6921
39.6801
39.6551
39.6153
39.5586
39.4835
39.3915
39.2897
39.1948
39.1339
39.6921
39.68
39.655
39.6153
39.5585
39.4835
39.3914
39.2896
39.1948
39.1339
39.692
39.68
39.655
39.6152
39.5585
39.4834
39.3914
39.2896
39.1948
39.1339
39.692
39.68
39.655
39.6152
39.5585
39.4834
39.3914
39.2896
39.1948
39.1339
39.692
39.68
39.655
39.6153
39.5585
39.4835
39.3914
39.2897
39.1948
39.1339
39.6921
39.6801
39.6551
39.6153
39.5586
39.4836
39.3915
39.2897
39.1949
39.134
39.6922
39.6802
39.6552
39.6154
39.5587
39.4837
39.3916
39.2899
39.195
39.1341
39.6923
39.6803
39.6553
39.6156
39.5589
39.4838
39.3918
39.29
39.1952
39.1343
32.0887
32.073
32.0401
31.9866
31.9078
31.7991
31.6583
31.4913
31.3215
31.2008
32.0886
32.0729
32.04
31.9864
31.9076
31.7989
31.6582
31.4912
31.3214
31.2007
32.0884
32.0728
32.0399
31.9863
31.9075
31.7988
31.6581
31.4911
31.3213
31.2006
32.0884
32.0727
32.0398
31.9862
31.9075
31.7988
31.658
31.4911
31.3212
31.2006
32.0883
32.0727
32.0398
31.9862
31.9074
31.7987
31.658
31.491
31.3212
31.2006
32.0883
32.0727
32.0398
31.9862
31.9074
31.7988
31.658
31.4911
31.3212
31.2006
32.0884
32.0727
32.0398
31.9862
31.9075
31.7988
31.6581
31.4911
31.3213
31.2006
32.0884
32.0728
32.0399
31.9863
31.9076
31.7989
31.6582
31.4912
31.3213
31.2007
32.0885
32.0729
32.04
31.9864
31.9077
31.799
31.6583
31.4913
31.3215
31.2008
32.0886
32.073
32.0401
31.9866
31.9078
31.7991
31.6584
31.4915
31.3216
31.201
25.5302
25.5108
25.4696
25.4012
25.2974
25.1477
24.9414
24.6741
24.3665
24.1077
25.53
25.5107
25.4695
25.4011
25.2973
25.1475
24.9412
24.674
24.3664
24.1076
25.5299
25.5106
25.4694
25.401
25.2972
25.1475
24.9411
24.6739
24.3663
24.1075
25.5298
25.5105
25.4693
25.4009
25.2971
25.1474
24.9411
24.6738
24.3663
24.1075
25.5298
25.5105
25.4693
25.4009
25.2971
25.1474
24.9411
24.6738
24.3662
24.1075
25.5298
25.5105
25.4693
25.4009
25.2971
25.1474
24.9411
24.6738
24.3663
24.1075
25.5299
25.5105
25.4693
25.4009
25.2971
25.1474
24.9411
24.6739
24.3663
24.1076
25.5299
25.5106
25.4694
25.401
25.2972
25.1475
24.9412
24.674
24.3664
24.1076
25.53
25.5107
25.4695
25.4011
25.2973
25.1476
24.9413
24.6741
24.3665
24.1077
25.5301
25.5108
25.4697
25.4013
25.2975
25.1478
24.9415
24.6742
24.3666
24.1079
19.984
19.9614
19.9129
19.8309
19.7029
19.5106
19.2282
18.8233
18.2719
17.6525
19.9838
19.9613
19.9128
19.8308
19.7028
19.5105
19.2281
18.8231
18.2718
17.6525
19.9837
19.9612
19.9127
19.8307
19.7027
19.5104
19.228
18.8231
18.2718
17.6524
19.9837
19.9611
19.9126
19.8306
19.7026
19.5103
19.2279
18.823
18.2717
17.6524
19.9836
19.9611
19.9126
19.8306
19.7026
19.5103
19.2279
18.823
18.2717
17.6524
19.9837
19.9611
19.9126
19.8306
19.7026
19.5103
19.2279
18.823
18.2717
17.6524
19.9837
19.9612
19.9127
19.8306
19.7027
19.5104
19.228
18.8231
18.2718
17.6524
19.9838
19.9612
19.9127
19.8307
19.7027
19.5105
19.2281
18.8231
18.2718
17.6525
19.9838
19.9613
19.9128
19.8308
19.7029
19.5106
19.2282
18.8232
18.2719
17.6526
19.9839
19.9615
19.913
19.8309
19.703
19.5107
19.2283
18.8234
18.2721
17.6527
15.3862
15.3615
15.3081
15.2167
15.0717
14.8476
14.5024
13.9605
13.0605
11.3679
15.386
15.3614
15.308
15.2166
15.0716
14.8475
14.5023
13.9604
13.0605
11.3679
15.386
15.3613
15.3079
15.2165
15.0715
14.8474
14.5023
13.9603
13.0604
11.3678
15.3859
15.3613
15.3079
15.2165
15.0715
14.8474
14.5022
13.9603
13.0604
11.3678
15.3859
15.3612
15.3078
15.2165
15.0715
14.8474
14.5022
13.9603
13.0604
11.3678
15.3859
15.3612
15.3078
15.2165
15.0715
14.8474
14.5022
13.9603
13.0604
11.3678
15.3859
15.3613
15.3079
15.2165
15.0715
14.8474
14.5022
13.9603
13.0604
11.3678
15.386
15.3613
15.3079
15.2166
15.0716
14.8475
14.5023
13.9604
13.0605
11.3679
15.3861
15.3614
15.308
15.2167
15.0717
14.8476
14.5024
13.9605
13.0606
11.368
15.3862
15.3615
15.3082
15.2168
15.0718
14.8477
14.5025
13.9606
13.0607
11.3681
11.6498
11.6246
11.5699
11.476
11.3267
11.0957
10.741
10.194
9.3405
8.0048
11.6497
11.6245
11.5698
11.4759
11.3266
11.0956
10.7409
10.1939
9.34042
8.00474
11.6497
11.6244
11.5697
11.4758
11.3265
11.0955
10.7408
10.1939
9.34037
8.00469
11.6496
11.6244
11.5697
11.4758
11.3265
11.0955
10.7408
10.1938
9.34034
8.00466
11.6496
11.6244
11.5696
11.4758
11.3265
11.0955
10.7408
10.1938
9.34033
8.00465
11.6496
11.6244
11.5696
11.4758
11.3265
11.0955
10.7408
10.1938
9.34035
8.00466
11.6496
11.6244
11.5697
11.4758
11.3265
11.0955
10.7408
10.1939
9.34038
8.00469
11.6497
11.6245
11.5697
11.4759
11.3266
11.0956
10.7409
10.1939
9.34043
8.00474
11.6498
11.6245
11.5698
11.476
11.3267
11.0957
10.741
10.194
9.34051
8.00481
11.6498
11.6247
11.5699
11.4761
11.3268
11.0958
10.7411
10.1941
9.34061
8.0049
8.67358
8.64941
8.59708
8.50789
8.36736
8.15353
7.83439
7.36585
6.6945
5.78244
8.67349
8.64933
8.597
8.50781
8.36729
8.15345
7.83432
7.36578
6.69444
5.78239
8.67343
8.64927
8.59694
8.50775
8.36723
8.1534
7.83427
7.36574
6.69439
5.78235
8.6734
8.64923
8.59691
8.50771
8.3672
8.15337
7.83424
7.36571
6.69437
5.78232
8.67338
8.64921
8.59689
8.5077
8.36719
8.15336
7.83423
7.3657
6.69436
5.78232
8.67339
8.64922
8.5969
8.50771
8.3672
8.15337
7.83424
7.36571
6.69437
5.78233
8.67341
8.64925
8.59693
8.50774
8.36723
8.1534
7.83427
7.36574
6.6944
5.78235
8.67346
8.6493
8.59698
8.50779
8.36728
8.15345
7.83432
7.36579
6.69445
5.7824
8.67353
8.64937
8.59706
8.50787
8.36736
8.15353
7.8344
7.36586
6.69451
5.78246
8.6736
8.64946
8.59715
8.50797
8.36746
8.15362
7.83449
7.36595
6.6946
5.78253
6.34951
6.32772
6.28082
6.20174
6.0792
5.89728
5.63538
5.27036
4.78431
4.18466
6.34944
6.32765
6.28075
6.20167
6.07914
5.89722
5.63532
5.27031
4.78426
4.18461
6.34939
6.3276
6.28071
6.20162
6.0791
5.89718
5.63528
5.27027
4.78423
4.18458
6.34936
6.32757
6.28068
6.2016
6.07907
5.89715
5.63526
5.27025
4.78421
4.18456
6.34935
6.32756
6.28067
6.20159
6.07906
5.89715
5.63525
5.27024
4.7842
4.18456
6.34935
6.32757
6.28067
6.20159
6.07907
5.89716
5.63526
5.27025
4.78421
4.18456
6.34938
6.32759
6.2807
6.20162
6.0791
5.89718
5.63529
5.27028
4.78423
4.18459
6.34942
6.32763
6.28074
6.20167
6.07914
5.89723
5.63533
5.27032
4.78427
4.18462
6.34947
6.32769
6.28081
6.20173
6.07921
5.89729
5.63539
5.27038
4.78433
4.18467
6.34954
6.32777
6.28089
6.20181
6.07929
5.89737
5.63547
5.27045
4.7844
4.18474
4.57023
4.55164
4.51196
4.44592
4.34559
4.2006
3.99925
3.73152
3.3954
3.00797
4.57017
4.55159
4.5119
4.44587
4.34554
4.20055
3.99921
3.73148
3.39536
3.00794
4.57013
4.55155
4.51187
4.44583
4.3455
4.20052
3.99918
3.73145
3.39533
3.00791
4.57011
4.55153
4.51184
4.44581
4.34548
4.2005
3.99916
3.73143
3.39531
3.00789
4.5701
4.55152
4.51183
4.4458
4.34548
4.20049
3.99915
3.73143
3.39531
3.00789
4.5701
4.55152
4.51184
4.44581
4.34548
4.2005
3.99916
3.73144
3.39532
3.0079
4.57012
4.55154
4.51186
4.44583
4.34551
4.20052
3.99918
3.73146
3.39534
3.00792
4.57016
4.55158
4.5119
4.44587
4.34555
4.20056
3.99922
3.73149
3.39537
3.00795
4.5702
4.55163
4.51195
4.44592
4.3456
4.20061
3.99927
3.73154
3.39541
3.00799
4.57026
4.55169
4.51202
4.44599
4.34567
4.20068
3.99934
3.7316
3.39547
3.00804
3.23443
3.21936
3.18744
3.13507
3.05711
2.94743
2.80017
2.6123
2.38759
2.14195
3.23439
3.21932
3.18739
3.13503
3.05708
2.94739
2.80014
2.61226
2.38755
2.14192
3.23436
3.21929
3.18736
3.135
3.05705
2.94736
2.80011
2.61224
2.38753
2.1419
3.23434
3.21927
3.18735
3.13499
3.05703
2.94735
2.8001
2.61223
2.38752
2.14189
3.23434
3.21926
3.18734
3.13498
3.05703
2.94734
2.8001
2.61222
2.38752
2.14188
3.23434
3.21927
3.18735
3.13499
3.05703
2.94735
2.8001
2.61223
2.38752
2.14189
3.23436
3.21928
3.18737
3.13501
3.05705
2.94737
2.80012
2.61225
2.38754
2.14191
3.23439
3.21931
3.1874
3.13504
3.05708
2.9474
2.80015
2.61228
2.38757
2.14193
3.23442
3.21935
3.18744
3.13508
3.05713
2.94744
2.80019
2.61231
2.3876
2.14196
3.23447
3.21941
3.18749
3.13513
3.05718
2.9475
2.80024
2.61236
2.38765
2.14201
2.25081
2.23912
2.21457
2.17489
2.11698
2.0376
1.9344
1.80771
1.66285
1.51237
2.25078
2.23909
2.21454
2.17486
2.11695
2.03757
1.93437
1.80768
1.66283
1.51235
2.25076
2.23906
2.21452
2.17483
2.11693
2.03755
1.93435
1.80766
1.66281
1.51233
2.25074
2.23905
2.21451
2.17482
2.11692
2.03754
1.93434
1.80765
1.6628
1.51232
2.25074
2.23905
2.2145
2.17482
2.11692
2.03754
1.93434
1.80765
1.6628
1.51232
2.25074
2.23905
2.21451
2.17482
2.11692
2.03755
1.93435
1.80766
1.6628
1.51232
2.25076
2.23906
2.21452
2.17484
2.11694
2.03756
1.93436
1.80767
1.66282
1.51234
2.25078
2.23909
2.21454
2.17486
2.11696
2.03758
1.93438
1.80769
1.66284
1.51236
2.25081
2.23912
2.21458
2.1749
2.117
2.03762
1.93442
1.80772
1.66286
1.51238
2.25084
2.23916
2.21462
2.17494
2.11704
2.03766
1.93446
1.80776
1.6629
1.51242
1.54023
1.53152
1.51339
1.48451
1.44321
1.38805
1.31867
1.23701
1.14872
1.06387
1.54021
1.5315
1.51337
1.48449
1.44319
1.38803
1.31865
1.23699
1.1487
1.06385
1.54019
1.53148
1.51335
1.48447
1.44317
1.38801
1.31863
1.23698
1.14869
1.06384
1.54018
1.53147
1.51334
1.48446
1.44316
1.388
1.31862
1.23697
1.14868
1.06383
1.54018
1.53147
1.51334
1.48446
1.44316
1.388
1.31862
1.23697
1.14868
1.06383
1.54018
1.53147
1.51335
1.48447
1.44317
1.38801
1.31863
1.23698
1.14868
1.06383
1.54019
1.53148
1.51336
1.48448
1.44318
1.38802
1.31864
1.23699
1.14869
1.06384
1.54021
1.5315
1.51338
1.4845
1.4432
1.38804
1.31866
1.237
1.14871
1.06386
1.54023
1.53152
1.5134
1.48452
1.44322
1.38806
1.31868
1.23703
1.14873
1.06388
1.54026
1.53155
1.51344
1.48456
1.44326
1.38809
1.31871
1.23706
1.14876
1.06391
1.03649
1.03024
1.01734
0.997088
0.968713
0.931849
0.887217
0.837614
0.789179
0.75244
1.03647
1.03022
1.01733
0.997071
0.968696
0.931833
0.887201
0.8376
0.789164
0.752425
1.03646
1.03021
1.01731
0.99706
0.968685
0.931822
0.887191
0.83759
0.789154
0.752415
1.03645
1.0302
1.01731
0.997053
0.968679
0.931816
0.887185
0.837584
0.789149
0.75241
1.03645
1.0302
1.0173
0.997051
0.968677
0.931815
0.887184
0.837583
0.789148
0.752409
1.03646
1.0302
1.01731
0.997055
0.968681
0.931819
0.887188
0.837587
0.789152
0.752412
1.03646
1.03021
1.01732
0.997064
0.96869
0.931828
0.887197
0.837596
0.78916
0.75242
1.03648
1.03022
1.01733
0.997078
0.968704
0.931841
0.88721
0.837609
0.789173
0.752433
1.03649
1.03024
1.01735
0.997097
0.968723
0.931861
0.887229
0.837626
0.78919
0.75245
1.03651
1.03027
1.01738
0.997123
0.968748
0.931885
0.887252
0.837649
0.789212
0.752471
0.685979
0.681641
0.672773
0.659043
0.640206
0.616442
0.588906
0.56063
0.53828
0.536986
0.685966
0.681629
0.67276
0.659031
0.640194
0.61643
0.588895
0.560619
0.538269
0.536975
0.685957
0.68162
0.672751
0.659023
0.640186
0.616423
0.588887
0.560612
0.538262
0.536968
0.685952
0.681615
0.672747
0.659018
0.640182
0.616418
0.588883
0.560608
0.538259
0.536964
0.685951
0.681613
0.672745
0.659017
0.640181
0.616418
0.588883
0.560608
0.538258
0.536963
0.685953
0.681616
0.672748
0.65902
0.640184
0.616421
0.588886
0.560611
0.538261
0.536966
0.685959
0.681622
0.672755
0.659027
0.640191
0.616427
0.588892
0.560617
0.538267
0.536972
0.685969
0.681632
0.672765
0.659037
0.640201
0.616438
0.588902
0.560627
0.538277
0.536982
0.685981
0.681646
0.672779
0.659051
0.640216
0.616452
0.588916
0.56064
0.53829
0.536995
0.685996
0.681664
0.672798
0.65907
0.640234
0.61647
0.588933
0.560657
0.538306
0.537012
7.39278
5.26481
4.21333
3.94965
4.40229
5.64137
7.87579
11.5036
17.2513
26.541
7.39272
5.26475
4.21327
3.94958
4.40221
5.64127
7.87566
11.5035
17.2511
26.5407
7.39267
5.26471
4.21322
3.94953
4.40215
5.64119
7.87557
11.5034
17.251
26.5405
7.39264
5.26468
4.21319
3.9495
4.40211
5.64115
7.87551
11.5033
17.2509
26.5404
7.39263
5.26467
4.21318
3.94949
4.40209
5.64112
7.87548
11.5033
17.2508
26.5404
7.39264
5.26468
4.21319
3.94949
4.40209
5.64112
7.87548
11.5032
17.2508
26.5404
7.39267
5.2647
4.21321
3.9495
4.40211
5.64114
7.8755
11.5033
17.2509
26.5404
7.39272
5.26474
4.21324
3.94954
4.40214
5.64118
7.87555
11.5033
17.2509
26.5405
7.39278
5.26479
4.21328
3.94958
4.40219
5.64123
7.87561
11.5034
17.2511
26.5407
7.39285
5.26485
4.21333
3.94963
4.40224
5.64129
7.87569
11.5035
17.2512
26.5409
6.06778
4.64723
3.86278
3.68856
4.1307
5.26664
7.26152
10.3839
15.0079
21.5102
6.06772
4.64717
3.86272
3.68849
4.13063
5.26654
7.2614
10.3837
15.0077
21.51
6.06768
4.64713
3.86268
3.68845
4.13057
5.26647
7.26131
10.3836
15.0076
21.5098
6.06765
4.64711
3.86265
3.68842
4.13053
5.26643
7.26126
10.3836
15.0075
21.5097
6.06765
4.6471
3.86264
3.6884
4.13052
5.26641
7.26123
10.3835
15.0074
21.5096
6.06765
4.64711
3.86264
3.68841
4.13052
5.26641
7.26123
10.3835
15.0074
21.5096
6.06768
4.64713
3.86266
3.68842
4.13053
5.26643
7.26125
10.3836
15.0075
21.5097
6.06772
4.64716
3.8627
3.68845
4.13057
5.26646
7.2613
10.3836
15.0076
21.5098
6.06778
4.64721
3.86274
3.6885
4.13062
5.26652
7.26137
10.3837
15.0077
21.5099
6.06786
4.64728
3.8628
3.68856
4.13068
5.26659
7.26146
10.3838
15.0078
21.5101
4.70054
3.82359
3.31779
3.24667
3.65848
4.62595
6.26005
8.70353
12.0871
16.3955
4.70049
3.82354
3.31773
3.24661
3.65841
4.62586
6.25995
8.7034
12.0869
16.3953
4.70045
3.82351
3.3177
3.24657
3.65836
4.6258
6.25987
8.7033
12.0868
16.3952
4.70043
3.82349
3.31767
3.24654
3.65833
4.62576
6.25982
8.70324
12.0867
16.3951
4.70042
3.82348
3.31766
3.24653
3.65831
4.62574
6.2598
8.70321
12.0867
16.3951
4.70043
3.82348
3.31767
3.24653
3.65831
4.62574
6.2598
8.70321
12.0867
16.3951
4.70045
3.8235
3.31768
3.24655
3.65833
4.62576
6.25982
8.70324
12.0867
16.3951
4.70049
3.82354
3.31772
3.24658
3.65836
4.6258
6.25987
8.7033
12.0868
16.3952
4.70054
3.82358
3.31776
3.24663
3.65841
4.62585
6.25994
8.70338
12.0869
16.3954
4.70061
3.82365
3.31782
3.24668
3.65848
4.62593
6.26003
8.7035
12.0871
16.3955
3.54172
3.01388
2.71683
2.72195
3.08415
3.86168
5.12135
6.92615
9.29676
12.1358
3.54168
3.01384
2.71678
2.72189
3.08409
3.86161
5.12126
6.92604
9.29663
12.1357
3.54165
3.01381
2.71675
2.72186
3.08405
3.86155
5.12119
6.92596
9.29653
12.1355
3.54163
3.01379
2.71673
2.72183
3.08402
3.86152
5.12115
6.9259
9.29647
12.1355
3.54162
3.01378
2.71672
2.72182
3.08401
3.8615
5.12113
6.92588
9.29644
12.1354
3.54163
3.01379
2.71672
2.72183
3.08401
3.8615
5.12113
6.92588
9.29644
12.1354
3.54165
3.01381
2.71674
2.72184
3.08403
3.86152
5.12115
6.92591
9.29647
12.1355
3.54168
3.01384
2.71677
2.72187
3.08406
3.86156
5.12119
6.92596
9.29654
12.1356
3.54173
3.01388
2.71681
2.72191
3.0841
3.86161
5.12126
6.92604
9.29664
12.1357
3.54179
3.01393
2.71686
2.72197
3.08416
3.86168
5.12134
6.92614
9.29677
12.1358
2.61831
2.30673
2.14667
2.1948
2.49694
3.09466
4.02506
5.31005
6.93297
8.80522
2.61827
2.30669
2.14664
2.19476
2.49688
3.09459
4.02498
5.30996
6.93286
8.80509
2.61825
2.30666
2.14661
2.19472
2.49685
3.09455
4.02493
5.3099
6.93278
8.805
2.61823
2.30665
2.14659
2.19471
2.49682
3.09452
4.02489
5.30985
6.93273
8.80494
2.61823
2.30664
2.14658
2.1947
2.49681
3.09451
4.02488
5.30983
6.93271
8.80491
2.61824
2.30665
2.14659
2.1947
2.49682
3.09451
4.02488
5.30984
6.93271
8.80492
2.61825
2.30666
2.1466
2.19471
2.49683
3.09453
4.0249
5.30986
6.93274
8.80496
2.61828
2.30669
2.14663
2.19474
2.49686
3.09456
4.02494
5.30991
6.9328
8.80503
2.61832
2.30673
2.14666
2.19478
2.4969
3.0946
4.02499
5.30998
6.93289
8.80513
2.61837
2.30677
2.14671
2.19482
2.49695
3.09467
4.02507
5.31007
6.933
8.80527
1.90737
1.72901
1.65285
1.7189
1.96061
2.4054
3.07231
3.96474
5.05848
6.28951
1.90734
1.72898
1.65282
1.71886
1.96057
2.40535
3.07225
3.96467
5.0584
6.28941
1.90732
1.72896
1.65279
1.71884
1.96054
2.40531
3.0722
3.96462
5.05833
6.28934
1.9073
1.72895
1.65278
1.71882
1.96052
2.40529
3.07218
3.96458
5.0583
6.2893
1.9073
1.72894
1.65277
1.71881
1.96051
2.40528
3.07216
3.96457
5.05828
6.28928
1.90731
1.72895
1.65278
1.71882
1.96051
2.40528
3.07217
3.96457
5.05828
6.28928
1.90732
1.72896
1.65279
1.71883
1.96053
2.40529
3.07218
3.96459
5.05831
6.28932
1.90734
1.72898
1.65281
1.71885
1.96055
2.40532
3.07222
3.96463
5.05836
6.28937
1.90737
1.72901
1.65284
1.71888
1.96058
2.40536
3.07227
3.96469
5.05843
6.28946
1.90742
1.72905
1.65288
1.71892
1.96063
2.40542
3.07233
3.96477
5.05852
6.28957
1.37661
1.28121
1.25476
1.32433
1.51289
1.83756
2.30693
2.9166
3.64382
4.44473
1.37658
1.28119
1.25473
1.3243
1.51285
1.83751
2.30688
2.91654
3.64375
4.44465
1.37656
1.28117
1.25471
1.32428
1.51283
1.83748
2.30684
2.9165
3.6437
4.44459
1.37655
1.28116
1.2547
1.32426
1.51281
1.83747
2.30682
2.91647
3.64367
4.44456
1.37655
1.28116
1.2547
1.32426
1.51281
1.83746
2.30681
2.91646
3.64366
4.44454
1.37656
1.28116
1.2547
1.32426
1.51281
1.83746
2.30681
2.91647
3.64366
4.44455
1.37657
1.28117
1.25471
1.32427
1.51282
1.83747
2.30683
2.91648
3.64368
4.44458
1.37659
1.28119
1.25473
1.32429
1.51284
1.8375
2.30686
2.91652
3.64372
4.44463
1.37661
1.28121
1.25475
1.32432
1.51287
1.83753
2.3069
2.91657
3.64378
4.44469
1.37665
1.28125
1.25479
1.32435
1.51291
1.83758
2.30695
2.91663
3.64386
4.44478
0.99547
0.954048
0.957471
1.02474
1.17185
1.40925
1.73947
2.15422
2.63215
3.14018
0.995451
0.954028
0.957449
1.02472
1.17182
1.40922
1.73943
2.15418
2.63209
3.14012
0.995438
0.954014
0.957434
1.0247
1.1718
1.40919
1.7394
2.15414
2.63205
3.14008
0.99543
0.954006
0.957425
1.02469
1.17179
1.40918
1.73938
2.15412
2.63203
3.14005
0.995429
0.954004
0.957422
1.02469
1.17178
1.40917
1.73938
2.15411
2.63202
3.14004
0.995433
0.954007
0.957425
1.02469
1.17179
1.40918
1.73938
2.15412
2.63203
3.14005
0.995442
0.954017
0.957434
1.0247
1.1718
1.40919
1.73939
2.15413
2.63205
3.14007
0.995457
0.954032
0.957449
1.02472
1.17181
1.40921
1.73942
2.15416
2.63208
3.14011
0.995478
0.954052
0.957471
1.02474
1.17184
1.40924
1.73945
2.1542
2.63213
3.14016
0.995505
0.954079
0.957498
1.02477
1.17187
1.40927
1.73949
2.15425
2.63219
3.14023
0.739804
0.737365
0.759999
0.824534
0.943834
1.12472
1.36606
1.65636
1.97151
2.27552
0.739788
0.737348
0.759981
0.824514
0.94381
1.12469
1.36603
1.65633
1.97146
2.27547
0.739778
0.737337
0.759968
0.824499
0.943793
1.12467
1.366
1.6563
1.97144
2.27544
0.739772
0.737331
0.759961
0.824491
0.943783
1.12466
1.36599
1.65628
1.97142
2.27542
0.739771
0.737329
0.759958
0.824488
0.943779
1.12466
1.36598
1.65628
1.97141
2.27541
0.739774
0.737332
0.759961
0.824491
0.943782
1.12466
1.36599
1.65628
1.97141
2.27542
0.739782
0.73734
0.759969
0.824499
0.943791
1.12467
1.366
1.65629
1.97143
2.27544
0.739795
0.737353
0.759982
0.824513
0.943806
1.12469
1.36602
1.65632
1.97146
2.27547
0.739812
0.73737
0.760001
0.824532
0.943828
1.12471
1.36605
1.65635
1.9715
2.27551
0.739833
0.737392
0.760023
0.824557
0.943856
1.12474
1.36609
1.6564
1.97155
2.27557
0.598495
0.626414
0.660908
0.724383
0.829928
0.983041
1.18066
1.4084
1.63525
1.80239
0.598484
0.626402
0.660894
0.724367
0.82991
0.983021
1.18064
1.40837
1.63522
1.80236
0.598475
0.626392
0.660884
0.724355
0.829896
0.983004
1.18062
1.40835
1.6352
1.80233
0.59847
0.626387
0.660877
0.724348
0.829888
0.982994
1.18061
1.40833
1.63518
1.80232
0.59847
0.626385
0.660876
0.724345
0.829885
0.98299
1.1806
1.40833
1.63518
1.80231
0.598473
0.626388
0.660878
0.724348
0.829887
0.982993
1.18061
1.40833
1.63518
1.80232
0.598479
0.626396
0.660886
0.724356
0.829896
0.983003
1.18062
1.40835
1.6352
1.80233
0.59849
0.626407
0.660898
0.724369
0.82991
0.983019
1.18064
1.40837
1.63522
1.80236
0.598505
0.626422
0.660914
0.724387
0.82993
0.983042
1.18066
1.4084
1.63526
1.8024
0.598523
0.626442
0.660935
0.724409
0.829955
0.98307
1.1807
1.40844
1.6353
1.80245
42.565
49.4075
53.0425
55.2231
56.605
57.4975
58.0722
58.4327
58.6427
58.7393
42.5647
49.4071
53.042
55.2226
56.6045
57.497
58.0717
58.4322
58.6423
58.7389
42.5644
49.4068
53.0418
55.2223
56.6042
57.4967
58.0714
58.4319
58.642
58.7387
42.5642
49.4067
53.0416
55.2221
56.604
57.4965
58.0712
58.4318
58.6418
58.7385
42.5642
49.4066
53.0415
55.2221
56.6039
57.4964
58.0712
58.4317
58.6418
58.7385
42.5642
49.4066
53.0415
55.2221
56.6039
57.4964
58.0712
58.4318
58.6418
58.7385
42.5643
49.4067
53.0416
55.2222
56.6041
57.4966
58.0714
58.4319
58.642
58.7387
42.5644
49.4069
53.0418
55.2224
56.6043
57.4968
58.0716
58.4322
58.6423
58.739
42.5646
49.4071
53.0421
55.2228
56.6047
57.4972
58.072
58.4326
58.6427
58.7394
42.5649
49.4075
53.0425
55.2231
56.6051
57.4976
58.0724
58.433
58.6431
58.7398
29.6178
35.1273
38.6178
40.8379
42.2672
43.1919
43.786
44.1576
44.3735
44.4727
29.6175
35.127
38.6175
40.8376
42.2668
43.1915
43.7856
44.1573
44.3732
44.4724
29.6173
35.1268
38.6172
40.8373
42.2665
43.1912
43.7854
44.157
44.3729
44.4722
29.6172
35.1266
38.6171
40.8371
42.2664
43.1911
43.7852
44.1568
44.3728
44.4721
29.6171
35.1266
38.617
40.8371
42.2663
43.191
43.7852
44.1568
44.3728
44.472
29.6171
35.1266
38.617
40.8371
42.2663
43.191
43.7852
44.1568
44.3728
44.4721
29.6172
35.1267
38.6171
40.8372
42.2664
43.1912
43.7853
44.157
44.373
44.4722
29.6173
35.1268
38.6173
40.8374
42.2666
43.1914
43.7856
44.1572
44.3732
44.4725
29.6175
35.1271
38.6176
40.8377
42.2669
43.1917
43.7859
44.1576
44.3735
44.4728
29.6178
35.1274
38.6179
40.8381
42.2673
43.1921
43.7863
44.158
44.374
44.4732
21.1503
25.0169
27.8095
29.7329
31.0292
31.8903
32.452
32.8065
33.0135
33.1088
21.1501
25.0167
27.8092
29.7326
31.0289
31.8899
32.4517
32.8062
33.0132
33.1086
21.1499
25.0165
27.809
29.7323
31.0287
31.8897
32.4515
32.806
33.013
33.1084
21.1498
25.0164
27.8089
29.7322
31.0285
31.8896
32.4513
32.8058
33.0129
33.1083
21.1497
25.0163
27.8089
29.7322
31.0285
31.8895
32.4513
32.8058
33.0129
33.1083
21.1497
25.0163
27.8089
29.7322
31.0285
31.8896
32.4513
32.8058
33.0129
33.1083
21.1498
25.0164
27.809
29.7323
31.0286
31.8897
32.4514
32.806
33.013
33.1085
21.1499
25.0165
27.8091
29.7325
31.0288
31.8899
32.4516
32.8062
33.0133
33.1087
21.1501
25.0167
27.8093
29.7327
31.0291
31.8902
32.4519
32.8065
33.0136
33.109
21.1503
25.017
27.8096
29.733
31.0294
31.8905
32.4523
32.8068
33.0139
33.1094
15.1284
17.7583
19.8234
21.343
22.4172
23.155
23.6474
23.963
24.1492
24.2354
15.1283
17.7581
19.8232
21.3427
22.417
23.1547
23.6471
23.9627
24.149
24.2352
15.1281
17.758
19.823
21.3426
22.4168
23.1545
23.647
23.9626
24.1488
24.2351
15.128
17.7579
19.8229
21.3425
22.4167
23.1544
23.6468
23.9625
24.1487
24.235
15.128
17.7578
19.8229
21.3424
22.4167
23.1544
23.6468
23.9624
24.1487
24.235
15.128
17.7578
19.8229
21.3424
22.4167
23.1544
23.6468
23.9625
24.1487
24.235
15.1281
17.7579
19.823
21.3425
22.4168
23.1545
23.647
23.9626
24.1488
24.2351
15.1282
17.758
19.8231
21.3427
22.4169
23.1547
23.6471
23.9628
24.149
24.2353
15.1283
17.7582
19.8233
21.3429
22.4172
23.1549
23.6474
23.963
24.1493
24.2356
15.1285
17.7584
19.8236
21.3432
22.4175
23.1552
23.6477
23.9633
24.1496
24.2359
10.7436
12.5127
13.9779
15.1115
15.947
16.5399
16.9456
17.2104
17.3686
17.4424
10.7434
12.5125
13.9777
15.1113
15.9469
16.5397
16.9454
17.2102
17.3684
17.4423
10.7433
12.5124
13.9776
15.1112
15.9467
16.5396
16.9453
17.2101
17.3683
17.4421
10.7432
12.5124
13.9775
15.1111
15.9466
16.5395
16.9452
17.21
17.3682
17.4421
10.7432
12.5123
13.9775
15.1111
15.9466
16.5395
16.9452
17.21
17.3682
17.4421
10.7432
12.5123
13.9775
15.1111
15.9466
16.5395
16.9452
17.21
17.3682
17.4421
10.7433
12.5124
13.9776
15.1112
15.9467
16.5396
16.9453
17.2101
17.3683
17.4422
10.7434
12.5125
13.9777
15.1113
15.9468
16.5397
16.9454
17.2103
17.3685
17.4424
10.7435
12.5126
13.9778
15.1115
15.947
16.5399
16.9456
17.2105
17.3687
17.4426
10.7436
12.5128
13.978
15.1117
15.9473
16.5402
16.9459
17.2107
17.369
17.4428
7.55321
8.73111
9.74168
10.5537
11.1734
11.6264
11.9439
12.155
12.2828
12.3429
7.5531
8.73099
9.74155
10.5536
11.1733
11.6262
11.9437
12.1549
12.2827
12.3428
7.55302
8.7309
9.74145
10.5535
11.1732
11.6261
11.9436
12.1548
12.2826
12.3427
7.55297
8.73084
9.74139
10.5534
11.1731
11.6261
11.9436
12.1547
12.2825
12.3427
7.55295
8.73082
9.74137
10.5534
11.1731
11.626
11.9435
12.1547
12.2825
12.3427
7.55296
8.73083
9.74139
10.5534
11.1731
11.6261
11.9436
12.1547
12.2826
12.3427
7.55299
8.73088
9.74144
10.5535
11.1732
11.6261
11.9436
12.1548
12.2826
12.3428
7.55306
8.73096
9.74153
10.5536
11.1733
11.6262
11.9438
12.1549
12.2828
12.3429
7.55316
8.73107
9.74165
10.5537
11.1734
11.6264
11.9439
12.1551
12.2829
12.3431
7.55329
8.73122
9.74182
10.5539
11.1736
11.6266
11.9441
12.1553
12.2831
12.3433
5.25985
6.02994
6.70827
7.27024
7.71209
8.04378
8.2816
8.44263
8.54141
8.58823
5.25976
6.02984
6.70817
7.27013
7.71197
8.04366
8.28148
8.44251
8.5413
8.58815
5.2597
6.02977
6.70809
7.27005
7.71189
8.04358
8.2814
8.44243
8.54123
8.58809
5.25966
6.02973
6.70805
7.27001
7.71184
8.04353
8.28135
8.44239
8.54119
8.58805
5.25964
6.02972
6.70803
7.26999
7.71183
8.04352
8.28134
8.44238
8.54118
8.58804
5.25965
6.02973
6.70805
7.27001
7.71185
8.04354
8.28137
8.4424
8.54121
8.58807
5.25968
6.02976
6.70809
7.27005
7.7119
8.0436
8.28142
8.44246
8.54127
8.58814
5.25974
6.02983
6.70816
7.27013