/*--------------------------------*- C++ -*----------------------------------*\
  =========                 |
  \\      /  F ield         | OpenFOAM: The Open Source CFD Toolbox
   \\    /   O peration     | Website:  https://openfoam.org
    \\  /    A nd           | Version:  6
     \\/     M anipulation  |
\*---------------------------------------------------------------------------*/
FoamFile
{
    version     2.0;
    format      ascii;
    class       volScalarField;
    location    "0.074";
    object      p;
}
// * * * * * * * * * * * * * * * * * * * * * * * * * * * * * * * * * * * * * //

dimensions      [0 2 -2 0 0 0 0];

internalField   nonuniform List<scalar> 
7000
(
6.37561e-05
0.0849902
0.180421
0.239236
0.260556
0.266421
0.29044
0.361465
0.483171
0.586577
-0.0770887
0.0564308
0.175333
0.23833
0.257764
0.260395
0.283769
0.363346
0.521007
0.694699
-0.186639
0.0012305
0.153296
0.229709
0.25563
0.263575
0.296505
0.396958
0.603056
0.851594
-0.287503
-0.0580918
0.124214
0.217395
0.254737
0.273624
0.321741
0.446863
0.695985
1.00017
-0.345265
-0.0937161
0.105855
0.20944
0.254448
0.280926
0.339035
0.479266
0.752706
1.08614
-0.345264
-0.0937152
0.105855
0.209441
0.254449
0.280926
0.339035
0.479265
0.752705
1.08614
-0.287501
-0.0580888
0.124216
0.217397
0.254738
0.273625
0.321741
0.446863
0.695984
1.00016
-0.186635
0.00123421
0.153298
0.229711
0.25563
0.263575
0.296505
0.396958
0.603054
0.851593
-0.077074
0.0564351
0.175335
0.238332
0.257765
0.260397
0.283772
0.36335
0.521014
0.694701
0.000165433
0.0850021
0.180423
0.239237
0.260556
0.266422
0.290442
0.361469
0.483177
0.58658
-22.5758
-22.3087
-22.0134
-21.8393
-21.788
-21.7899
-21.7372
-21.5331
-21.1556
-20.8279
-22.8251
-22.4008
-22.0308
-21.8424
-21.7966
-21.808
-21.7563
-21.5222
-21.0243
-20.4596
-23.1757
-22.5777
-22.1016
-21.87
-21.8029
-21.7963
-21.7125
-21.4092
-20.7503
-19.9378
-23.4971
-22.7664
-22.1942
-21.9093
-21.8054
-21.7627
-21.6292
-21.2452
-20.4446
-19.4486
-23.681
-22.8798
-22.2528
-21.9348
-21.8061
-21.7387
-21.5725
-21.1391
-20.2588
-19.1667
-23.681
-22.8798
-22.2528
-21.9348
-21.8061
-21.7387
-21.5725
-21.1391
-20.2588
-19.1667
-23.4971
-22.7664
-22.1942
-21.9093
-21.8054
-21.7627
-21.6292
-21.2452
-20.4446
-19.4486
-23.1757
-22.5777
-22.1016
-21.87
-21.8029
-21.7963
-21.7125
-21.4092
-20.7503
-19.9378
-22.8251
-22.4008
-22.0308
-21.8424
-21.7966
-21.808
-21.7563
-21.5222
-21.0243
-20.4596
-22.5758
-22.3087
-22.0134
-21.8393
-21.788
-21.7899
-21.7372
-21.5331
-21.1556
-20.8279
-44.989
-44.5032
-44.0031
-43.7694
-43.7965
-43.9466
-44.0053
-43.7614
-43.1241
-42.5248
-45.4739
-44.6831
-44.0381
-43.7753
-43.8099
-43.9745
-44.0302
-43.7214
-42.8313
-41.7372
-46.135
-45.0148
-44.1694
-43.8251
-43.8186
-43.9469
-43.9388
-43.4921
-42.2763
-40.6815
-46.7331
-45.3634
-44.3385
-43.8958
-43.8208
-43.881
-43.7775
-43.174
-41.6765
-39.7164
-47.0731
-45.5717
-44.4451
-43.9415
-43.8209
-43.8349
-43.6694
-42.9708
-41.3163
-39.1665
-47.0731
-45.5717
-44.4451
-43.9415
-43.8209
-43.8349
-43.6694
-42.9708
-41.3163
-39.1665
-46.7331
-45.3634
-44.3385
-43.8958
-43.8208
-43.881
-43.7775
-43.174
-41.6765
-39.7164
-46.135
-45.0148
-44.1694
-43.8251
-43.8186
-43.9469
-43.9388
-43.4921
-42.2763
-40.6815
-45.4739
-44.6831
-44.0381
-43.7753
-43.8099
-43.9745
-44.0302
-43.7214
-42.8312
-41.7372
-44.989
-44.5032
-44.0031
-43.7694
-43.7965
-43.9466
-44.0053
-43.7614
-43.1241
-42.5248
-67.0377
-66.276
-65.5739
-65.3949
-65.7135
-66.294
-66.7605
-66.7012
-65.8437
-64.9206
-67.8662
-66.5849
-65.6358
-65.4038
-65.7283
-66.3242
-66.7742
-66.5864
-65.2459
-63.3874
-68.9541
-67.1261
-65.8462
-65.4803
-65.7352
-66.2666
-66.6036
-66.1714
-64.2387
-61.474
-69.9208
-67.6844
-66.1129
-65.5893
-65.7339
-66.1533
-66.3302
-65.6292
-63.197
-59.7844
-70.4662
-68.0154
-66.2803
-65.6598
-65.7319
-66.0767
-66.1511
-65.2892
-62.5824
-58.8369
-70.4662
-68.0154
-66.2803
-65.6598
-65.7319
-66.0767
-66.1511
-65.2892
-62.5824
-58.8369
-69.9208
-67.6844
-66.1129
-65.5893
-65.7339
-66.1533
-66.3302
-65.6292
-63.197
-59.7844
-68.9541
-67.1261
-65.8462
-65.4803
-65.7352
-66.2666
-66.6036
-66.1714
-64.2387
-61.474
-67.8662
-66.5849
-65.6358
-65.4038
-65.7283
-66.3242
-66.7742
-66.5864
-65.2459
-63.3874
-67.0377
-66.276
-65.5739
-65.3949
-65.7135
-66.294
-66.7605
-66.7012
-65.8437
-64.9206
-88.3631
-87.2554
-86.3806
-86.4594
-87.4365
-88.9475
-90.3853
-90.9995
-90.1162
-88.8882
-89.6874
-87.751
-86.4815
-86.4695
-87.4436
-88.9614
-90.3495
-90.7181
-88.9408
-86.0062
-91.3608
-88.5756
-86.7955
-86.5776
-87.4409
-88.8502
-90.0482
-90.0043
-87.1934
-82.6896
-92.8193
-89.4093
-87.1873
-86.734
-87.4321
-88.67
-89.6165
-89.1381
-85.4832
-79.8855
-93.6352
-89.8998
-87.4319
-86.8354
-87.4265
-88.5526
-89.3417
-88.6078
-84.4966
-78.3445
-93.6352
-89.8998
-87.4319
-86.8354
-87.4265
-88.5526
-89.3417
-88.6078
-84.4966
-78.3445
-92.8193
-89.4093
-87.1873
-86.734
-87.4321
-88.67
-89.6165
-89.1381
-85.4832
-79.8855
-91.3608
-88.5756
-86.7955
-86.5776
-87.4409
-88.8502
-90.0482
-90.0043
-87.1933
-82.6896
-89.6874
-87.751
-86.4815
-86.4695
-87.4436
-88.9614
-90.3495
-90.7181
-88.9408
-86.0062
-88.3631
-87.2554
-86.3806
-86.4594
-87.4365
-88.9475
-90.3853
-90.9995
-90.1162
-88.8882
-108.366
-106.844
-105.877
-106.541
-108.759
-112.028
-115.45
-117.753
-117.481
-116.302
-110.374
-107.597
-106.03
-106.547
-108.74
-111.988
-115.291
-117.138
-115.253
-111.059
-112.819
-108.791
-106.475
-106.691
-108.716
-111.79
-114.788
-115.966
-112.338
-105.534
-114.911
-109.974
-107.023
-106.906
-108.697
-111.525
-114.151
-114.663
-109.667
-101.097
-116.071
-110.665
-107.363
-107.046
-108.689
-111.36
-113.76
-113.889
-108.168
-98.7175
-116.071
-110.665
-107.363
-107.046
-108.689
-111.36
-113.76
-113.889
-108.168
-98.7175
-114.911
-109.974
-107.023
-106.906
-108.697
-111.525
-114.151
-114.663
-109.667
-101.097
-112.819
-108.791
-106.475
-106.691
-108.716
-111.79
-114.788
-115.966
-112.338
-105.534
-110.374
-107.597
-106.03
-106.547
-108.74
-111.988
-115.291
-117.138
-115.253
-111.059
-108.366
-106.844
-105.877
-106.541
-108.759
-112.028
-115.45
-117.753
-117.481
-116.302
-126.115
-124.136
-123.233
-124.96
-129.266
-135.572
-142.702
-148.689
-150.759
-151.134
-129.003
-125.22
-123.452
-124.953
-129.192
-135.419
-142.299
-147.462
-146.701
-142.025
-132.406
-126.866
-124.053
-125.136
-129.134
-135.102
-141.524
-145.663
-142.109
-133.41
-135.265
-128.468
-124.785
-125.423
-129.113
-134.753
-140.671
-143.86
-138.217
-126.89
-136.838
-129.395
-125.238
-125.612
-129.11
-134.548
-140.169
-142.829
-136.105
-123.488
-136.838
-129.395
-125.238
-125.612
-129.11
-134.548
-140.169
-142.829
-136.104
-123.488
-135.265
-128.468
-124.785
-125.423
-129.113
-134.753
-140.671
-143.86
-138.217
-126.89
-132.406
-126.866
-124.053
-125.136
-129.134
-135.102
-141.524
-145.663
-142.109
-133.41
-129.003
-125.22
-123.452
-124.953
-129.192
-135.419
-142.299
-147.462
-146.701
-142.025
-126.115
-124.136
-123.233
-124.96
-129.266
-135.572
-142.702
-148.689
-150.759
-151.134
-140.27
-137.848
-137.251
-140.647
-148.135
-159.256
-172.747
-185.93
-194.072
-199.109
-144.196
-139.32
-137.544
-140.614
-147.971
-158.912
-171.936
-183.669
-186.686
-182.551
-148.686
-141.474
-138.319
-140.842
-147.876
-158.461
-170.846
-181.079
-179.73
-169.405
-152.395
-143.536
-139.254
-141.218
-147.878
-158.074
-169.849
-178.843
-174.481
-160.368
-154.421
-144.722
-139.831
-141.468
-147.902
-157.869
-169.302
-177.637
-171.77
-155.843
-154.421
-144.722
-139.831
-141.468
-147.902
-157.869
-169.302
-177.637
-171.77
-155.843
-152.395
-143.536
-139.254
-141.218
-147.878
-158.074
-169.849
-178.843
-174.481
-160.368
-148.686
-141.474
-138.319
-140.842
-147.876
-158.461
-170.846
-181.079
-179.73
-169.405
-144.196
-139.32
-137.544
-140.614
-147.971
-158.912
-171.937
-183.669
-186.686
-182.551
-140.27
-137.848
-137.251
-140.647
-148.135
-159.256
-172.747
-185.93
-194.072
-199.109
-149.07
-146.303
-146.312
-151.996
-163.843
-181.925
-205.483
-231.907
-254.342
-264.043
-154.074
-148.176
-146.68
-151.93
-163.559
-181.31
-204.091
-228.206
-241.207
-226.638
-159.648
-150.835
-147.629
-152.21
-163.444
-180.74
-202.66
-224.661
-230.864
-202.043
-164.186
-153.341
-148.766
-152.695
-163.524
-180.428
-201.72
-222.328
-224.578
-188.169
-166.649
-154.775
-149.467
-153.021
-163.614
-180.306
-201.287
-221.233
-221.662
-181.827
-166.649
-154.775
-149.467
-153.021
-163.614
-180.306
-201.287
-221.233
-221.662
-181.827
-164.186
-153.341
-148.766
-152.695
-163.524
-180.428
-201.72
-222.328
-224.578
-188.169
-159.648
-150.835
-147.629
-152.21
-163.444
-180.74
-202.66
-224.661
-230.864
-202.043
-154.074
-148.176
-146.68
-151.93
-163.559
-181.31
-204.091
-228.206
-241.207
-226.638
-149.07
-146.303
-146.312
-151.996
-163.843
-181.925
-205.483
-231.908
-254.342
-264.043
-150.457
-147.539
-148.418
-156.791
-173.924
-201.33
-240.711
-294.077
-361.811
-408.663
-156.368
-149.753
-148.863
-156.728
-173.62
-200.709
-239.504
-291.592
-352.02
-359.108
-162.813
-152.819
-149.972
-157.114
-173.655
-200.462
-238.86
-290.313
-348.139
-335.518
-167.996
-155.672
-151.286
-157.749
-173.967
-200.63
-239.002
-290.65
-348.604
-328.27
-170.793
-157.296
-152.092
-158.171
-174.21
-200.822
-239.257
-291.174
-349.586
-326.385
-170.793
-157.296
-152.092
-158.171
-174.21
-200.822
-239.257
-291.174
-349.586
-326.385
-167.996
-155.672
-151.286
-157.749
-173.967
-200.63
-239.002
-290.65
-348.604
-328.27
-162.813
-152.819
-149.972
-157.114
-173.655
-200.462
-238.86
-290.313
-348.14
-335.518
-156.368
-149.753
-148.863
-156.728
-173.62
-200.709
-239.504
-291.592
-352.021
-359.108
-150.457
-147.539
-148.418
-156.791
-173.924
-201.33
-240.711
-294.077
-361.811
-408.663
-142.4
-139.565
-141.292
-151.886
-173.594
-210.123
-267.896
-358.442
-502.49
-740.088
-148.768
-141.96
-141.805
-151.908
-173.519
-210.202
-268.709
-361.736
-514.63
-781.364
-155.603
-145.215
-143.027
-152.47
-173.976
-211.077
-271.055
-368.349
-533.211
-826.07
-161.047
-148.212
-144.443
-153.269
-174.664
-212.189
-273.576
-374.612
-549.118
-862.149
-163.972
-149.91
-145.306
-153.785
-175.119
-212.899
-275.099
-378.205
-557.854
-881.583
-163.972
-149.91
-145.306
-153.785
-175.119
-212.899
-275.099
-378.205
-557.854
-881.583
-161.047
-148.212
-144.443
-153.269
-174.664
-212.189
-273.576
-374.612
-549.118
-862.149
-155.603
-145.215
-143.027
-152.47
-173.976
-211.077
-271.055
-368.349
-533.211
-826.07
-148.768
-141.96
-141.805
-151.908
-173.519
-210.202
-268.709
-361.737
-514.63
-781.365
-142.4
-139.565
-141.292
-151.886
-173.594
-210.123
-267.896
-358.442
-502.49
-740.088
-123.538
-120.947
-122.91
-133.574
-155.135
-191.088
-246.873
-330.529
-452.967
-629.811
-129.649
-123.241
-123.388
-133.549
-154.929
-190.804
-246.664
-330.91
-456.406
-643.631
-136.143
-126.322
-124.527
-134.033
-155.223
-191.232
-247.717
-333.641
-463.38
-659.725
-141.284
-129.142
-125.85
-134.767
-155.814
-192.087
-249.461
-337.466
-471.786
-677.066
-144.04
-130.736
-126.658
-135.248
-156.224
-192.679
-250.62
-339.902
-476.931
-687.373
-144.04
-130.736
-126.658
-135.248
-156.224
-192.679
-250.62
-339.902
-476.931
-687.373
-141.284
-129.142
-125.85
-134.767
-155.814
-192.087
-249.461
-337.466
-471.786
-677.066
-136.143
-126.322
-124.527
-134.033
-155.223
-191.232
-247.717
-333.641
-463.38
-659.725
-129.649
-123.241
-123.388
-133.549
-154.929
-190.804
-246.664
-330.91
-456.406
-643.631
-123.538
-120.947
-122.91
-133.574
-155.135
-191.088
-246.873
-330.529
-452.966
-629.811
-94.0727
-91.9596
-93.6582
-102.562
-120.376
-149.7
-194.231
-258.685
-347.889
-465.591
-99.1437
-93.8613
-94.0489
-102.522
-120.155
-149.342
-193.764
-258.265
-348.221
-468.023
-104.506
-96.3981
-94.9759
-102.894
-120.328
-149.52
-194.203
-259.437
-351.037
-473.792
-108.737
-98.7123
-96.0547
-103.478
-120.765
-150.094
-195.294
-261.68
-355.495
-481.9
-111.001
-100.018
-96.7126
-103.863
-121.077
-150.512
-196.062
-263.192
-358.393
-487.031
-111.001
-100.018
-96.7126
-103.863
-121.077
-150.512
-196.062
-263.192
-358.393
-487.031
-108.737
-98.7123
-96.0547
-103.478
-120.765
-150.094
-195.294
-261.68
-355.495
-481.9
-104.506
-96.3981
-94.9759
-102.894
-120.328
-149.52
-194.203
-259.437
-351.037
-473.792
-99.1437
-93.8613
-94.0489
-102.522
-120.155
-149.342
-193.764
-258.265
-348.221
-468.023
-94.0727
-91.9596
-93.6582
-102.562
-120.376
-149.7
-194.231
-258.685
-347.889
-465.591
-55.7551
-54.3625
-55.4789
-61.3104
-72.907
-91.8172
-120.111
-160.162
-213.88
-281.429
-59.1048
-55.6187
-55.7355
-61.2783
-72.7451
-91.5424
-119.713
-159.681
-213.541
-281.588
-62.6403
-57.2895
-56.3425
-61.5128
-72.8319
-91.5955
-119.855
-160.134
-214.712
-283.999
-65.4269
-58.8116
-57.049
-61.8883
-73.0952
-91.911
-120.426
-161.277
-216.918
-287.828
-66.917
-59.67
-57.4797
-62.1363
-73.2863
-92.1499
-120.845
-162.077
-218.395
-290.311
-66.917
-59.67
-57.4797
-62.1363
-73.2863
-92.1499
-120.845
-162.077
-218.395
-290.311
-65.4269
-58.8116
-57.049
-61.8883
-73.0952
-91.911
-120.426
-161.277
-216.918
-287.828
-62.6403
-57.2895
-56.3425
-61.5128
-72.8319
-91.5955
-119.855
-160.134
-214.712
-283.999
-59.1048
-55.6187
-55.7355
-61.2783
-72.7452
-91.5424
-119.713
-159.681
-213.541
-281.588
-55.7551
-54.3625
-55.4789
-61.3104
-72.907
-91.8172
-120.111
-160.162
-213.88
-281.429
-11.5949
-11.1041
-11.4788
-13.4806
-17.4604
-23.9272
-33.5391
-47.0066
-64.8102
-86.7138
-12.7677
-11.5451
-11.5699
-13.4701
-17.4022
-23.8247
-33.384
-46.8033
-64.6166
-86.635
-14.0085
-12.1328
-11.785
-13.553
-17.4281
-23.8283
-33.399
-46.8914
-64.8964
-87.2618
-14.9882
-12.6691
-12.0351
-13.685
-17.515
-23.9219
-33.5601
-47.2138
-65.5235
-88.3514
-15.5125
-12.9716
-12.1874
-13.772
-17.5787
-23.9953
-33.6835
-47.4472
-65.9539
-89.0707
-15.5125
-12.9716
-12.1874
-13.772
-17.5787
-23.9953
-33.6835
-47.4472
-65.9539
-89.0707
-14.9882
-12.6691
-12.0351
-13.685
-17.515
-23.9219
-33.5601
-47.2138
-65.5235
-88.3514
-14.0085
-12.1328
-11.785
-13.553
-17.4281
-23.8283
-33.399
-46.8914
-64.8964
-87.2617
-12.7677
-11.5451
-11.5699
-13.4702
-17.4022
-23.8247
-33.384
-46.8033
-64.6166
-86.635
-11.5949
-11.1042
-11.4788
-13.4806
-17.4604
-23.9272
-33.5391
-47.0066
-64.8102
-86.7138
34.6016
34.123
34.5344
36.6028
40.6806
47.2752
57.0385
70.6697
88.6334
110.679
35.7655
34.5573
34.6203
36.5875
40.6208
47.1772
56.8972
70.4915
88.4743
110.637
36.9852
35.1298
34.823
36.6615
40.6462
47.1943
56.9446
70.6329
88.8238
111.339
37.9415
35.6485
35.0594
36.7847
40.7342
47.3043
57.1423
71.0134
89.5253
112.508
38.4514
35.9404
35.2036
36.8667
40.7987
47.388
57.2881
71.282
90.0006
113.275
38.4514
35.9404
35.2036
36.8667
40.7987
47.388
57.2881
71.282
90.0006
113.275
37.9415
35.6485
35.0594
36.7848
40.7342
47.3043
57.1423
71.0134
89.5253
112.508
36.9852
35.1298
34.823
36.6615
40.6462
47.1943
56.9446
70.6329
88.8237
111.339
35.7655
34.5573
34.6203
36.5875
40.6208
47.1772
56.8972
70.4914
88.4743
110.637
34.6016
34.123
34.5344
36.6028
40.6806
47.2752
57.0386
70.6697
88.6334
110.679
78.7577
77.3755
78.524
84.414
96.0968
115.119
143.547
183.746
237.614
305.31
82.1006
78.6265
78.7767
84.3784
95.9344
114.85
143.163
183.289
237.308
305.506
85.6188
80.2849
79.3738
84.6062
96.022
114.916
143.335
183.79
238.542
307.985
88.3862
81.7925
80.0691
84.975
96.2871
115.246
143.938
184.984
240.814
311.886
89.8643
82.642
80.4932
85.2191
96.4794
115.495
144.376
185.815
242.329
314.412
89.8643
82.642
80.4932
85.2191
96.4794
115.495
144.376
185.815
242.329
314.412
88.3862
81.7925
80.0691
84.975
96.2871
115.247
143.938
184.984
240.814
311.886
85.6188
80.2849
79.3738
84.6062
96.022
114.916
143.335
183.79
238.542
307.985
82.1006
78.6265
78.7767
84.3784
95.9344
114.85
143.163
183.289
237.308
305.505
78.7577
77.3755
78.524
84.414
96.0968
115.119
143.547
183.746
237.614
305.31
117.066
114.96
116.682
125.629
143.507
172.912
217.543
282.111
371.443
489.3
122.134
116.859
117.071
125.588
143.287
172.56
217.088
281.712
371.802
491.764
127.485
119.388
117.992
125.957
143.462
172.75
217.55
282.919
374.663
497.586
131.704
121.694
119.065
126.538
143.903
173.336
218.664
285.197
379.165
505.744
133.961
122.994
119.719
126.921
144.216
173.76
219.446
286.73
382.089
510.906
133.961
122.994
119.719
126.921
144.216
173.76
219.446
286.73
382.089
510.906
131.704
121.694
119.065
126.538
143.903
173.336
218.664
285.197
379.165
505.744
127.485
119.388
117.992
125.957
143.462
172.75
217.55
282.919
374.663
497.586
122.134
116.859
117.071
125.588
143.287
172.56
217.089
281.712
371.802
491.764
117.066
114.96
116.682
125.629
143.507
172.912
217.543
282.111
371.443
489.3
146.514
143.927
145.901
156.589
178.182
214.174
270.006
353.718
476.233
653.232
152.627
146.221
146.38
156.565
177.978
213.895
269.802
354.104
479.667
667.043
159.119
149.3
147.519
157.05
178.276
214.328
270.861
356.836
486.629
683.121
164.257
152.118
148.841
157.784
178.869
215.187
272.608
360.661
495.024
700.451
167.01
153.71
149.648
158.264
179.28
215.781
273.769
363.096
500.162
710.751
167.01
153.71
149.648
158.264
179.28
215.781
273.769
363.096
500.162
710.751
164.257
152.118
148.841
157.784
178.869
215.187
272.608
360.661
495.024
700.45
159.119
149.3
147.519
157.05
178.276
214.328
270.861
356.836
486.629
683.121
152.627
146.221
146.38
156.565
177.978
213.895
269.802
354.104
479.667
667.043
146.514
143.927
145.901
156.589
178.182
214.174
270.006
353.718
476.233
653.232
165.35
162.514
164.242
174.837
196.544
233.066
290.827
381.361
525.41
763.114
171.724
164.912
164.758
174.863
196.472
233.147
291.635
384.635
537.486
804.283
178.565
168.172
165.985
175.429
196.932
234.02
293.966
391.205
555.97
848.838
184.014
171.173
167.404
176.231
197.621
235.126
296.467
397.422
571.785
884.79
186.942
172.873
168.27
176.749
198.077
235.832
297.977
400.986
580.467
904.153
186.942
172.873
168.27
176.749
198.077
235.832
297.977
400.986
580.467
904.153
184.014
171.173
167.404
176.231
197.621
235.127
296.467
397.422
571.785
884.79
178.565
168.172
165.985
175.429
196.932
234.02
293.966
391.205
555.97
848.838
171.724
164.912
164.758
174.863
196.472
233.147
291.635
384.635
537.487
804.283
165.35
162.514
164.242
174.837
196.544
233.066
290.827
381.361
525.41
763.115
-1293.59
-1398.99
-1418.5
-1431.56
-1435.66
-1435.66
-1431.56
-1418.5
-1398.99
-1293.59
-1465.39
-1491.84
-1463.4
-1461.58
-1460.25
-1460.25
-1461.58
-1463.4
-1491.84
-1465.39
-1608.1
-1569.33
-1501.33
-1485.56
-1478.35
-1478.35
-1485.56
-1501.33
-1569.33
-1608.1
-1705.37
-1626.81
-1532.23
-1505.64
-1493.65
-1493.65
-1505.64
-1532.23
-1626.81
-1705.37
-1754.71
-1657.31
-1549.48
-1517.16
-1502.6
-1502.6
-1517.16
-1549.48
-1657.31
-1754.71
-1754.71
-1657.31
-1549.48
-1517.16
-1502.6
-1502.6
-1517.16
-1549.48
-1657.31
-1754.71
-1705.37
-1626.81
-1532.23
-1505.64
-1493.65
-1493.65
-1505.64
-1532.23
-1626.81
-1705.37
-1608.1
-1569.33
-1501.33
-1485.56
-1478.35
-1478.35
-1485.56
-1501.33
-1569.33
-1608.1
-1465.39
-1491.84
-1463.4
-1461.58
-1460.25
-1460.25
-1461.58
-1463.4
-1491.84
-1465.39
-1293.59
-1398.99
-1418.5
-1431.56
-1435.66
-1435.66
-1431.56
-1418.5
-1398.99
-1293.59
-909.639
-1017.33
-1055.07
-1072.08
-1077.98
-1077.98
-1072.08
-1055.07
-1017.33
-909.639
-958.487
-1048.52
-1071.19
-1082.1
-1085.66
-1085.66
-1082.1
-1071.19
-1048.52
-958.487
-1008.28
-1080.59
-1088.28
-1092.35
-1092.89
-1092.88
-1092.35
-1088.28
-1080.59
-1008.28
-1048.71
-1109.51
-1105.98
-1104.14
-1101.9
-1101.9
-1104.14
-1105.98
-1109.51
-1048.71
-1070.6
-1125.87
-1116.53
-1111.44
-1107.64
-1107.64
-1111.44
-1116.53
-1125.87
-1070.6
-1070.6
-1125.87
-1116.53
-1111.44
-1107.64
-1107.64
-1111.44
-1116.53
-1125.87
-1070.6
-1048.71
-1109.51
-1105.98
-1104.14
-1101.9
-1101.9
-1104.14
-1105.98
-1109.51
-1048.71
-1008.28
-1080.59
-1088.28
-1092.35
-1092.89
-1092.88
-1092.35
-1088.28
-1080.59
-1008.28
-958.487
-1048.52
-1071.19
-1082.1
-1085.66
-1085.66
-1082.1
-1071.19
-1048.52
-958.487
-909.639
-1017.33
-1055.07
-1072.08
-1077.98
-1077.98
-1072.08
-1055.07
-1017.33
-909.639
-619.591
-698.82
-736.08
-753.981
-760.833
-760.833
-753.981
-736.08
-698.82
-619.591
-630.766
-706.145
-739.776
-755.956
-762.103
-762.103
-755.956
-739.776
-706.145
-630.766
-647.793
-718.245
-747.068
-760.673
-765.596
-765.596
-760.673
-747.068
-718.245
-647.792
-664.367
-731.394
-756.085
-767.087
-770.701
-770.701
-767.087
-756.085
-731.394
-664.367
-673.891
-739.232
-761.679
-771.18
-774.027
-774.027
-771.18
-761.679
-739.231
-673.891
-673.891
-739.232
-761.679
-771.18
-774.027
-774.027
-771.18
-761.678
-739.231
-673.891
-664.367
-731.394
-756.085
-767.087
-770.701
-770.701
-767.087
-756.085
-731.394
-664.367
-647.793
-718.245
-747.068
-760.673
-765.596
-765.596
-760.673
-747.068
-718.245
-647.792
-630.766
-706.145
-739.776
-755.956
-762.103
-762.103
-755.956
-739.776
-706.145
-630.765
-619.591
-698.82
-736.08
-753.981
-760.833
-760.833
-753.981
-736.08
-698.82
-619.591
-360.946
-408.165
-433.315
-446.096
-451.254
-451.254
-446.096
-433.315
-408.165
-360.946
-363.887
-409.862
-433.904
-446.167
-451.118
-451.118
-446.167
-433.904
-409.862
-363.887
-370.322
-414.638
-436.914
-448.157
-452.612
-452.612
-448.157
-436.914
-414.639
-370.323
-377.344
-420.486
-441.14
-451.262
-455.135
-455.135
-451.262
-441.14
-420.487
-377.344
-381.525
-424.085
-443.837
-453.297
-456.82
-456.82
-453.297
-443.837
-424.085
-381.526
-381.525
-424.085
-443.837
-453.297
-456.82
-456.82
-453.297
-443.837
-424.085
-381.526
-377.344
-420.486
-441.14
-451.262
-455.135
-455.135
-451.262
-441.14
-420.487
-377.344
-370.322
-414.638
-436.914
-448.157
-452.612
-452.612
-448.157
-436.914
-414.639
-370.323
-363.887
-409.862
-433.904
-446.167
-451.118
-451.118
-446.167
-433.904
-409.862
-363.887
-360.946
-408.165
-433.315
-446.096
-451.254
-451.254
-446.096
-433.315
-408.165
-360.946
-111.322
-126.915
-135.661
-140.228
-142.116
-142.116
-140.228
-135.661
-126.915
-111.322
-111.93
-127.211
-135.686
-140.137
-141.982
-141.982
-140.137
-135.686
-127.211
-111.93
-113.571
-128.448
-136.468
-140.649
-142.362
-142.362
-140.649
-136.468
-128.448
-113.571
-115.488
-130.084
-137.677
-141.55
-143.1
-143.1
-141.55
-137.677
-130.084
-115.489
-116.655
-131.112
-138.465
-142.154
-143.605
-143.605
-142.154
-138.465
-131.112
-116.656
-116.655
-131.112
-138.465
-142.154
-143.605
-143.605
-142.154
-138.465
-131.112
-116.656
-115.488
-130.084
-137.677
-141.55
-143.1
-143.1
-141.55
-137.677
-130.084
-115.489
-113.571
-128.448
-136.468
-140.649
-142.362
-142.362
-140.649
-136.468
-128.448
-113.571
-111.93
-127.211
-135.686
-140.137
-141.982
-141.982
-140.137
-135.686
-127.211
-111.93
-111.322
-126.915
-135.661
-140.228
-142.116
-142.116
-140.228
-135.661
-126.915
-111.322
135.397
151.054
159.831
164.413
166.305
166.305
164.413
159.831
151.054
135.397
136.035
151.367
159.863
164.322
166.169
166.169
164.322
159.863
151.367
136.035
137.739
152.647
160.669
164.845
166.555
166.555
164.845
160.669
152.647
137.739
139.726
154.331
161.908
165.764
167.305
167.305
165.764
161.908
154.332
139.726
140.934
155.39
162.715
166.379
167.818
167.818
166.379
162.715
155.39
140.934
140.934
155.39
162.715
166.379
167.818
167.818
166.379
162.715
155.39
140.934
139.726
154.331
161.908
165.764
167.305
167.305
165.764
161.908
154.332
139.726
137.739
152.647
160.669
164.845
166.555
166.555
164.845
160.669
152.647
137.739
136.035
151.367
159.863
164.322
166.169
166.169
164.322
159.863
151.367
136.035
135.397
151.054
159.831
164.413
166.305
166.305
164.413
159.831
151.054
135.397
384.96
432.264
457.46
470.264
475.433
475.433
470.264
457.46
432.264
384.96
387.931
433.979
458.056
470.337
475.295
475.295
470.337
458.056
433.979
387.931
394.427
438.796
461.089
472.338
476.796
476.796
472.338
461.089
438.796
394.427
401.513
444.69
465.345
475.461
479.331
479.331
475.461
465.344
444.69
401.512
405.732
448.317
468.059
477.507
481.023
481.023
477.507
468.059
448.317
405.732
405.732
448.317
468.059
477.507
481.023
481.023
477.507
468.059
448.317
405.732
401.513
444.69
465.345
475.461
479.331
479.331
475.461
465.344
444.69
401.512
394.427
438.796
461.089
472.338
476.796
476.796
472.338
461.089
438.796
394.427
387.931
433.979
458.056
470.337
475.295
475.295
470.337
458.056
433.979
387.931
384.96
432.264
457.46
470.264
475.433
475.433
470.264
457.46
432.264
384.96
643.489
722.847
760.183
778.124
784.994
784.994
778.124
760.183
722.847
643.49
654.697
730.193
763.888
780.102
786.264
786.265
780.102
763.888
730.194
654.697
671.776
742.331
771.203
784.832
789.765
789.765
784.832
771.203
742.332
671.777
688.403
755.521
780.246
791.262
794.882
794.882
791.262
780.246
755.521
688.404
697.957
763.382
785.856
795.366
798.217
798.217
795.366
785.855
763.383
697.958
697.957
763.382
785.856
795.366
798.217
798.217
795.366
785.855
763.383
697.958
688.403
755.521
780.246
791.262
794.882
794.882
791.262
780.246
755.521
688.404
671.776
742.331
771.203
784.832
789.765
789.765
784.832
771.203
742.332
671.777
654.696
730.193
763.888
780.102
786.264
786.264
780.102
763.888
730.194
654.697
643.489
722.847
760.183
778.124
784.994
784.994
778.124
760.183
722.847
643.489
933.371
1041.27
1079.13
1096.19
1102.12
1102.12
1096.19
1079.13
1041.27
933.371
982.236
1072.49
1095.26
1106.22
1109.81
1109.81
1106.22
1095.26
1072.49
982.236
1032.04
1104.59
1112.37
1116.49
1117.05
1117.05
1116.49
1112.37
1104.59
1032.04
1072.49
1133.53
1130.1
1128.29
1126.07
1126.07
1128.29
1130.1
1133.53
1072.49
1094.39
1149.91
1140.66
1135.6
1131.82
1131.82
1135.6
1140.66
1149.91
1094.39
1094.39
1149.91
1140.66
1135.6
1131.82
1131.82
1135.6
1140.66
1149.91
1094.39
1072.49
1133.53
1130.1
1128.29
1126.07
1126.07
1128.29
1130.1
1133.53
1072.49
1032.04
1104.59
1112.37
1116.49
1117.05
1117.05
1116.49
1112.37
1104.59
1032.04
982.236
1072.49
1095.26
1106.22
1109.81
1109.81
1106.22
1095.26
1072.49
982.236
933.371
1041.27
1079.13
1096.19
1102.12
1102.12
1096.19
1079.13
1041.27
933.37
1317.15
1422.86
1442.52
1455.66
1459.79
1459.79
1455.66
1442.52
1422.86
1317.15
1488.93
1515.74
1487.44
1485.7
1484.4
1484.4
1485.7
1487.44
1515.74
1488.93
1631.58
1593.24
1525.39
1509.69
1502.51
1502.51
1509.69
1525.39
1593.24
1631.58
1728.78
1650.73
1556.31
1529.79
1517.83
1517.83
1529.79
1556.31
1650.73
1728.78
1778.09
1681.23
1573.57
1541.32
1526.78
1526.78
1541.32
1573.57
1681.23
1778.09
1778.09
1681.23
1573.57
1541.32
1526.78
1526.78
1541.32
1573.57
1681.23
1778.09
1728.78
1650.73
1556.31
1529.79
1517.83
1517.83
1529.79
1556.31
1650.73
1728.78
1631.58
1593.24
1525.39
1509.69
1502.51
1502.51
1509.69
1525.39
1593.24
1631.58
1488.93
1515.74
1487.44
1485.7
1484.4
1484.4
1485.7
1487.44
1515.74
1488.93
1317.15
1422.86
1442.52
1455.66
1459.79
1459.79
1455.66
1442.52
1422.86
1317.15
-740.088
-502.49
-358.442
-267.896
-210.123
-173.594
-151.886
-141.292
-139.564
-142.4
-781.364
-514.629
-361.736
-268.708
-210.202
-173.518
-151.908
-141.805
-141.959
-148.768
-826.069
-533.21
-368.349
-271.055
-211.077
-173.976
-152.47
-143.027
-145.215
-155.603
-862.148
-549.117
-374.612
-273.576
-212.189
-174.664
-153.268
-144.443
-148.211
-161.047
-881.582
-557.853
-378.204
-275.099
-212.899
-175.119
-153.785
-145.307
-149.909
-163.972
-881.582
-557.853
-378.204
-275.099
-212.899
-175.119
-153.785
-145.307
-149.909
-163.972
-862.148
-549.118
-374.612
-273.576
-212.189
-174.664
-153.268
-144.443
-148.211
-161.047
-826.069
-533.21
-368.349
-271.055
-211.077
-173.976
-152.47
-143.027
-145.215
-155.603
-781.364
-514.629
-361.736
-268.708
-210.202
-173.518
-151.908
-141.805
-141.959
-148.768
-740.088
-502.49
-358.442
-267.896
-210.123
-173.594
-151.886
-141.292
-139.564
-142.4
-629.811
-452.966
-330.529
-246.873
-191.088
-155.135
-133.574
-122.91
-120.947
-123.538
-643.632
-456.406
-330.91
-246.664
-190.804
-154.929
-133.549
-123.388
-123.241
-129.649
-659.725
-463.38
-333.641
-247.717
-191.232
-155.223
-134.033
-124.527
-126.322
-136.143
-677.067
-471.786
-337.466
-249.461
-192.087
-155.814
-134.767
-125.851
-129.141
-141.284
-687.373
-476.931
-339.902
-250.62
-192.679
-156.224
-135.247
-126.658
-130.735
-144.04
-687.373
-476.931
-339.902
-250.62
-192.679
-156.224
-135.247
-126.658
-130.735
-144.04
-677.067
-471.786
-337.466
-249.461
-192.087
-155.814
-134.767
-125.851
-129.141
-141.284
-659.725
-463.38
-333.641
-247.717
-191.232
-155.223
-134.033
-124.527
-126.322
-136.143
-643.632
-456.406
-330.91
-246.664
-190.804
-154.929
-133.549
-123.388
-123.241
-129.649
-629.811
-452.966
-330.529
-246.873
-191.088
-155.135
-133.574
-122.91
-120.947
-123.538
-465.591
-347.889
-258.685
-194.231
-149.7
-120.376
-102.562
-93.6582
-91.9595
-94.0726
-468.022
-348.221
-258.265
-193.764
-149.342
-120.155
-102.522
-94.0492
-93.8608
-99.1437
-473.792
-351.037
-259.437
-194.203
-149.52
-120.328
-102.894
-94.9763
-96.3978
-104.506
-481.899
-355.495
-261.68
-195.294
-150.094
-120.765
-103.478
-96.055
-98.7119
-108.737
-487.03
-358.393
-263.192
-196.061
-150.512
-121.077
-103.863
-96.713
-100.018
-111.001
-487.03
-358.393
-263.192
-196.061
-150.512
-121.077
-103.863
-96.713
-100.018
-111.001
-481.899
-355.495
-261.68
-195.294
-150.094
-120.765
-103.478
-96.055
-98.7118
-108.737
-473.792
-351.037
-259.437
-194.203
-149.52
-120.328
-102.894
-94.9763
-96.3978
-104.506
-468.022
-348.221
-258.265
-193.764
-149.342
-120.155
-102.522
-94.0492
-93.8608
-99.1437
-465.591
-347.889
-258.685
-194.231
-149.7
-120.376
-102.562
-93.6582
-91.9595
-94.0726
-281.429
-213.88
-160.162
-120.11
-91.8171
-72.9069
-61.3103
-55.4788
-54.3624
-55.755
-281.588
-213.541
-159.681
-119.713
-91.5424
-72.745
-61.278
-55.7358
-55.6182
-59.1048
-283.999
-214.713
-160.134
-119.855
-91.5955
-72.8318
-61.5124
-56.343
-57.2893
-62.6403
-287.828
-216.918
-161.277
-120.425
-91.911
-73.0952
-61.8879
-57.0493
-58.8112
-65.4268
-290.312
-218.395
-162.076
-120.844
-92.1499
-73.2862
-62.1359
-57.48
-59.6696
-66.917
-290.312
-218.395
-162.076
-120.844
-92.1499
-73.2862
-62.1359
-57.48
-59.6695
-66.917
-287.828
-216.918
-161.277
-120.425
-91.911
-73.0952
-61.8879
-57.0493
-58.8112
-65.4268
-283.999
-214.712
-160.134
-119.855
-91.5955
-72.8318
-61.5124
-56.343
-57.2893
-62.6403
-281.588
-213.541
-159.681
-119.713
-91.5424
-72.745
-61.278
-55.7358
-55.6182
-59.1048
-281.429
-213.88
-160.162
-120.11
-91.8171
-72.9069
-61.3103
-55.4788
-54.3624
-55.755
-86.7138
-64.8102
-47.0065
-33.539
-23.9271
-17.4603
-13.4805
-11.4788
-11.1041