/*--------------------------------*- C++ -*----------------------------------*\
  =========                 |
  \\      /  F ield         | OpenFOAM: The Open Source CFD Toolbox
   \\    /   O peration     | Website:  https://openfoam.org
    \\  /    A nd           | Version:  6
     \\/     M anipulation  |
\*---------------------------------------------------------------------------*/
FoamFile
{
    version     2.0;
    format      ascii;
    class       volScalarField;
    location    "0.074";
    object      p;
}
// * * * * * * * * * * * * * * * * * * * * * * * * * * * * * * * * * * * * * //

dimensions      [0 2 -2 0 0 0 0];

internalField   nonuniform List<scalar> 
48800
(
2.65343e-06
0.00132223
0.00331799
0.005154
0.00636346
0.00662805
0.00583813
0.00405745
0.00148289
-0.00157801
-0.00474991
-0.00763435
-0.00985517
-0.0111112
-0.0112326
-0.0102162
-0.00827262
-0.00585403
-0.00356961
-0.00225207
-0.00119002
0.00111161
0.00371421
0.00564412
0.00684445
0.00702541
0.00611423
0.00422275
0.00154212
-0.00162227
-0.00489952
-0.00790096
-0.0102529
-0.0116523
-0.0119276
-0.0110173
-0.00908273
-0.00653516
-0.00358434
-0.00122662
-0.00359361
-5.93735e-05
0.00333104
0.00560506
0.0069929
0.0072256
0.00629236
0.00435163
0.00160019
-0.0016464
-0.00501055
-0.00810129
-0.0105361
-0.0119972
-0.012301
-0.0113306
-0.00917814
-0.00622884
-0.00242042
0.00123264
-0.00675782
-0.00209246
0.00218888
0.00501529
0.00674281
0.00716371
0.00632482
0.0044134
0.00164526
-0.00164177
-0.00505286
-0.00818227
-0.0106282
-0.0120471
-0.0122316
-0.0110314
-0.00847932
-0.00490278
-0.000127809
0.00471814
-0.0100648
-0.00438934
0.000751712
0.00414708
0.00626611
0.00694638
0.00626147
0.00442501
0.00167844
-0.001616
-0.00504159
-0.00817095
-0.0105787
-0.0118941
-0.011881
-0.0103611
-0.00734159
-0.00311128
0.00260338
0.00852133
-0.0131503
-0.00663919
-0.000756034
0.0031751
0.0056918
0.00664983
0.00614092
0.00440366
0.00170317
-0.00157524
-0.00499144
-0.008094
-0.0104329
-0.0116123
-0.0113709
-0.00950529
-0.00600788
-0.00115733
0.00537452
0.0121825
-0.015789
-0.00863098
-0.00214642
0.00224656
0.00511855
0.00633363
0.00599662
0.00436437
0.00172093
-0.00152786
-0.00491992
-0.00798109
-0.0102386
-0.0112747
-0.0108088
-0.00862032
-0.00469284
0.000695008
0.0078916
0.0153887
-0.0178456
-0.0102183
-0.00328407
0.00146751
0.00462322
0.00605021
0.0058602
0.00432176
0.00173329
-0.00148266
-0.00484589
-0.00786349
-0.010044
-0.0109525
-0.0102939
-0.0078377
-0.00356466
0.00224223
0.00993666
0.0179324
-0.0192464
-0.011316
-0.00408504
0.000909881
0.00426254
0.00583971
0.00575599
0.0042871
0.00174118
-0.00144754
-0.00478612
-0.00776843
-0.00988999
-0.0107039
-0.00990568
-0.00725908
-0.00274536
0.0033467
0.0113697
0.0196865
-0.0199542
-0.0118757
-0.00449776
0.000619972
0.00407334
0.00572811
0.00569991
0.00426786
0.00174503
-0.00142841
-0.00475296
-0.00771569
-0.00980542
-0.0105693
-0.00969798
-0.00695282
-0.00231582
0.00392036
0.0121062
0.0205794
-0.0199542
-0.0118757
-0.00449775
0.000619981
0.00407335
0.00572812
0.00569992
0.00426787
0.00174504
-0.00142841
-0.00475296
-0.00771569
-0.00980542
-0.0105693
-0.00969798
-0.00695282
-0.00231582
0.00392035
0.0121062
0.0205794
-0.0192463
-0.0113159
-0.00408502
0.000909906
0.00426257
0.00583974
0.00575602
0.00428712
0.0017412
-0.00144753
-0.00478611
-0.00776843
-0.00989
-0.0107039
-0.0099057
-0.00725909
-0.00274538
0.00334669
0.0113697
0.0196864
-0.0178456
-0.0102183
-0.00328404
0.00146755
0.00462328
0.00605027
0.00586025
0.0043218
0.00173332
-0.00148264
-0.00484588
-0.00786349
-0.010044
-0.0109526
-0.010294
-0.00783774
-0.0035647
0.00224222
0.00993667
0.0179323
-0.015789
-0.00863097
-0.00214638
0.00224662
0.00511863
0.00633371
0.00599669
0.00436443
0.00172098
-0.00152783
-0.00491991
-0.00798109
-0.0102386
-0.0112748
-0.0108089
-0.00862038
-0.00469289
0.000695005
0.00789164
0.0153887
-0.0131503
-0.00663918
-0.000755984
0.00317518
0.0056919
0.00664994
0.006141
0.00440372
0.00170322
-0.00157521
-0.00499143
-0.008094
-0.0104329
-0.0116124
-0.011371
-0.00950535
-0.00600792
-0.00115733
0.00537456
0.0121825
-0.0100647
-0.00438924
0.000751835
0.00414719
0.00626622
0.0069465
0.00626156
0.00442509
0.00167849
-0.00161598
-0.00504158
-0.00817095
-0.0105788
-0.0118941
-0.0118811
-0.0103611
-0.00734167
-0.00311136
0.00260334
0.00852126
-0.00675761
-0.00209218
0.00218911
0.00501545
0.00674293
0.00716385
0.00632495
0.0044135
0.00164532
-0.00164173
-0.00505283
-0.00818226
-0.0106282
-0.0120471
-0.0122316
-0.0110315
-0.00847944
-0.00490294
-0.000127945
0.00471799
-0.00359326
-5.90713e-05
0.00333127
0.00560523
0.00699306
0.00722578
0.00629252
0.00435175
0.00160026
-0.00164636
-0.00501053
-0.0081013
-0.0105361
-0.0119973
-0.0123011
-0.0113307
-0.00917824
-0.00622896
-0.00242057
0.00123246
-0.00118944
0.00111182
0.00371437
0.00564435
0.00684475
0.00702573
0.00611452
0.00422297
0.00154228
-0.00162214
-0.00489942
-0.00790089
-0.0102529
-0.0116524
-0.0119278
-0.0110174
-0.0090827
-0.00653505
-0.00358408
-0.00122666
5.02415e-06
0.00132245
0.00331805
0.00515418
0.00636377
0.00662839
0.0058384
0.00405764
0.00148301
-0.00157794
-0.00474988
-0.00763437
-0.00985526
-0.0111114
-0.0112329
-0.0102165
-0.00827274
-0.00585392
-0.00356925
-0.00225182
-1.13664
-1.1335
-1.12775
-1.12108
-1.1148
-1.10982
-1.10656
-1.10501
-1.10485
-1.10549
-1.10617
-1.10609
-1.10454
-1.10098
-1.09524
-1.0876
-1.07884
-1.07031
-1.06376
-1.06077
-1.13898
-1.13342
-1.12625
-1.11924
-1.11302
-1.10833
-1.10546
-1.10435
-1.10463
-1.10572
-1.10686
-1.10728
-1.10624
-1.10321
-1.09798
-1.09067
-1.08193
-1.07292
-1.06473
-1.05917
-1.1449
-1.13632
-1.12711
-1.11913
-1.11245
-1.10764
-1.10488
-1.10396
-1.10451
-1.10591
-1.10737
-1.10812
-1.10738
-1.10459
-1.09946
-1.092
-1.08267
-1.07249
-1.06205
-1.05331
-1.15347
-1.14192
-1.13037
-1.12093
-1.11333
-1.108
-1.10497
-1.10397
-1.10454
-1.10602
-1.10758
-1.1084
-1.10766
-1.10472
-1.09923
-1.09109
-1.08065
-1.06876
-1.05576
-1.04391
-1.16299
-1.14868
-1.13479
-1.12378
-1.11507
-1.109
-1.1055
-1.10422
-1.10466
-1.10606
-1.10756
-1.10827
-1.10733
-1.10401
-1.09789
-1.0888
-1.077
-1.06326
-1.04769
-1.03292
-1.1723
-1.15561
-1.1396
-1.12706
-1.11722
-1.11033
-1.10628
-1.10463
-1.10482
-1.10604
-1.10738
-1.10787
-1.10659
-1.10277
-1.09591
-1.08577
-1.07256
-1.05702
-1.0391
-1.0218
-1.18056
-1.16194
-1.14417
-1.13029
-1.11942
-1.11175
-1.10714
-1.10509
-1.105
-1.10599
-1.1071
-1.10732
-1.10566
-1.10131
-1.0937
-1.08255
-1.06806
-1.05092
-1.03105
-1.01169
-1.18719
-1.16713
-1.14801
-1.13306
-1.12134
-1.11302
-1.10792
-1.10552
-1.10516
-1.10592
-1.10681
-1.10676
-1.10476
-1.09992
-1.09166
-1.07967
-1.06412
-1.04572
-1.02433
-1.00344
-1.19181
-1.17079
-1.15075
-1.13507
-1.12276
-1.11397
-1.10851
-1.10585
-1.10527
-1.10587
-1.10657
-1.10632
-1.10405
-1.09885
-1.09012
-1.07752
-1.06122
-1.04195
-1.01954
-0.99764
-1.19417
-1.17268
-1.15218
-1.13613
-1.12351
-1.11448
-1.10883
-1.10602
-1.10534
-1.10583
-1.10644
-1.10608
-1.10366
-1.09827
-1.08929
-1.07637
-1.05969
-1.03997
-1.01705
-0.99465
-1.19417
-1.17268
-1.15218
-1.13613
-1.12351
-1.11448
-1.10883
-1.10602
-1.10534
-1.10583
-1.10644
-1.10608
-1.10366
-1.09827
-1.08929
-1.07637
-1.05969
-1.03997
-1.01705
-0.99465
-1.19181
-1.17079
-1.15075
-1.13507
-1.12276
-1.11397
-1.10851
-1.10585
-1.10527
-1.10587
-1.10657
-1.10632
-1.10405
-1.09885
-1.09012
-1.07752
-1.06122
-1.04195
-1.01954
-0.99764
-1.18719
-1.16713
-1.14801
-1.13306
-1.12134
-1.11302
-1.10792
-1.10552
-1.10516
-1.10592
-1.10681
-1.10676
-1.10476
-1.09992
-1.09166
-1.07967
-1.06412
-1.04572
-1.02433
-1.00344
-1.18056
-1.16194
-1.14417
-1.13029
-1.11942
-1.11175
-1.10713
-1.10509
-1.105
-1.10599
-1.1071
-1.10732
-1.10566
-1.10131
-1.0937
-1.08255
-1.06806
-1.05092
-1.03105
-1.01169
-1.1723
-1.15561
-1.1396
-1.12706
-1.11722
-1.11033
-1.10628
-1.10463
-1.10482
-1.10604
-1.10738
-1.10787
-1.10659
-1.10277
-1.09591
-1.08577
-1.07256
-1.05702
-1.0391
-1.0218
-1.16299
-1.14868
-1.13479
-1.12377
-1.11507
-1.109
-1.1055
-1.10422
-1.10466
-1.10606
-1.10756
-1.10827
-1.10733
-1.10401
-1.0979
-1.0888
-1.077
-1.06326
-1.04769
-1.03292
-1.15347
-1.14192
-1.13037
-1.12093
-1.11333
-1.108
-1.10497
-1.10397
-1.10454
-1.10602
-1.10758
-1.1084
-1.10766
-1.10472
-1.09923
-1.09109
-1.08065
-1.06876
-1.05576
-1.04391
-1.1449
-1.13632
-1.12711
-1.11913
-1.11245
-1.10764
-1.10488
-1.10396
-1.10451
-1.10591
-1.10737
-1.10812
-1.10738
-1.10459
-1.09946
-1.092
-1.08267
-1.07249
-1.06205
-1.05331
-1.13898
-1.13342
-1.12625
-1.11924
-1.11302
-1.10833
-1.10546
-1.10435
-1.10463
-1.10572
-1.10686
-1.10728
-1.10624
-1.10321
-1.09798
-1.09067
-1.08193
-1.07292
-1.06473
-1.05917
-1.13664
-1.1335
-1.12775
-1.12108
-1.1148
-1.10982
-1.10656
-1.10501
-1.10485
-1.10549
-1.10617
-1.10609
-1.10454
-1.10098
-1.09524
-1.0876
-1.07884
-1.07031
-1.06376
-1.06077
-2.27109
-2.26592
-2.25613
-2.24447
-2.23313
-2.22364
-2.21673
-2.21246
-2.21033
-2.2094
-2.20848
-2.20629
-2.20168
-2.19383
-2.1825
-2.1682
-2.15233
-2.13721
-2.12588
-2.12091
-2.27484
-2.26561
-2.2535
-2.24122
-2.22999
-2.221
-2.21479
-2.21128
-2.20994
-2.20982
-2.20974
-2.20844
-2.20477
-2.19788
-2.18743
-2.17373
-2.1579
-2.1419
-2.12781
-2.11844
-2.28472
-2.27045
-2.25491
-2.24098
-2.22898
-2.21981
-2.21377
-2.21062
-2.20975
-2.21017
-2.21067
-2.20995
-2.20682
-2.20035
-2.19009
-2.17612
-2.15929
-2.14123
-2.12329
-2.10852
-2.29923
-2.27996
-2.26048
-2.24409
-2.23055
-2.22048
-2.21399
-2.21069
-2.20984
-2.21039
-2.21104
-2.21043
-2.20727
-2.20053
-2.18963
-2.17449
-2.15572
-2.13474
-2.11239
-2.09229
-2.31549
-2.29155
-2.2681
-2.24904
-2.23363
-2.22229
-2.215
-2.21121
-2.2101
-2.21049
-2.21099
-2.21016
-2.20661
-2.19918
-2.18718
-2.17037
-2.14924
-2.12505
-2.09826
-2.07313
-2.3315
-2.30348
-2.27644
-2.25479
-2.23744
-2.22472
-2.21645
-2.21201
-2.21044
-2.21048
-2.21064
-2.20938
-2.20521
-2.19688
-2.18356
-2.16491
-2.14133
-2.114
-2.08315
-2.05364
-2.34579
-2.31446
-2.2844
-2.26046
-2.24134
-2.22728
-2.21805
-2.2129
-2.21081
-2.2104
-2.21013
-2.20834
-2.20348
-2.19418
-2.17953
-2.15912
-2.13328
-2.10319
-2.06892
-2.03584
-2.35731
-2.32348
-2.29109
-2.26533
-2.24476
-2.22958
-2.21951
-2.21372
-2.21113
-2.2103
-2.20959
-2.20731
-2.20179
-2.19162
-2.17583
-2.15392
-2.12624
-2.09394
-2.05703
-2.02126
-2.36535
-2.32986
-2.29588
-2.26887
-2.24728
-2.2313
-2.2206
-2.21434
-2.21137
-2.21021
-2.20916
-2.20649
-2.20047
-2.18966
-2.17302
-2.15005
-2.12106
-2.08722
-2.04853
-2.01099
-2.36948
-2.33315
-2.29838
-2.27073
-2.24862
-2.23222
-2.22119
-2.21467
-2.2115
-2.21015
-2.20892
-2.20603
-2.19976
-2.1886
-2.17151
-2.14798
-2.11832
-2.0837
-2.04411
-2.00568
-2.36948
-2.33315
-2.29838
-2.27073
-2.24862
-2.23222
-2.22119
-2.21467
-2.2115
-2.21015
-2.20892
-2.20603
-2.19976
-2.1886
-2.17151
-2.14798
-2.11832
-2.0837
-2.04411
-2.00568
-2.36535
-2.32986
-2.29588
-2.26887
-2.24728
-2.2313
-2.2206
-2.21434
-2.21137
-2.21021
-2.20916
-2.20649
-2.20047
-2.18966
-2.17302
-2.15005
-2.12106
-2.08722
-2.04853
-2.01099
-2.35731
-2.32348
-2.29109
-2.26533
-2.24476
-2.22958
-2.21951
-2.21372
-2.21113
-2.2103
-2.20959
-2.20731
-2.20179
-2.19162
-2.17583
-2.15392
-2.12624
-2.09394
-2.05703
-2.02126
-2.34579
-2.31446
-2.2844
-2.26045
-2.24134
-2.22728
-2.21805
-2.2129
-2.21081
-2.2104
-2.21013
-2.20834
-2.20348
-2.19418
-2.17953
-2.15912
-2.13328
-2.10319
-2.06892
-2.03584
-2.3315
-2.30348
-2.27644
-2.25479
-2.23744
-2.22472
-2.21645
-2.21201
-2.21044
-2.21048
-2.21064
-2.20938
-2.20521
-2.19688
-2.18356
-2.16491
-2.14133
-2.114
-2.08315
-2.05364
-2.31549
-2.29154
-2.2681
-2.24904
-2.23363
-2.22229
-2.215
-2.21121
-2.2101
-2.21049
-2.21099
-2.21016
-2.20661
-2.19918
-2.18718
-2.17037
-2.14924
-2.12505
-2.09826
-2.07313
-2.29923
-2.27996
-2.26048
-2.24409
-2.23055
-2.22048
-2.21399
-2.21069
-2.20984
-2.21039
-2.21104
-2.21043
-2.20727
-2.20053
-2.18963
-2.17449
-2.15572
-2.13474
-2.11239
-2.09229
-2.28472
-2.27045
-2.25491
-2.24098
-2.22898
-2.21981
-2.21377
-2.21062
-2.20975
-2.21017
-2.21067
-2.20995
-2.20682
-2.20035
-2.19009
-2.17612
-2.15929
-2.14124
-2.12329
-2.10852
-2.27484
-2.26561
-2.2535
-2.24122
-2.22999
-2.221
-2.21479
-2.21128
-2.20994
-2.20982
-2.20974
-2.20844
-2.20477
-2.19788
-2.18743
-2.17373
-2.1579
-2.1419
-2.12781
-2.11844
-2.27109
-2.26592
-2.25613
-2.24447
-2.23313
-2.22364
-2.21673
-2.21246
-2.21033
-2.2094
-2.20848
-2.20629
-2.20168
-2.19383
-2.18251
-2.1682
-2.15233
-2.13721
-2.12588
-2.12091
-3.40209
-3.3945
-3.38022
-3.36327
-3.34687
-3.33319
-3.32331
-3.3173
-3.31443
-3.31335
-3.31231
-3.30942
-3.30297
-3.29171
-3.27522
-3.2542
-3.23068
-3.20813
-3.19109
-3.18356
-3.40767
-3.39406
-3.37638
-3.35851
-3.34225
-3.32931
-3.32045
-3.31556
-3.31386
-3.31398
-3.3142
-3.31265
-3.30762
-3.29779
-3.28263
-3.26253
-3.23908
-3.21516
-3.19398
-3.17969
-3.42226
-3.40121
-3.37849
-3.35817
-3.34079
-3.32759
-3.31897
-3.31461
-3.3136
-3.31452
-3.31557
-3.31488
-3.31064
-3.30145
-3.28656
-3.26605
-3.2411
-3.21406
-3.18701
-3.16453
-3.44362
-3.4152
-3.38667
-3.36276
-3.34314
-3.32861
-3.31933
-3.31473
-3.31374
-3.31483
-3.31609
-3.31553
-3.31123
-3.30162
-3.28576
-3.26346
-3.23559
-3.20412
-3.17041
-3.13984
-3.46754
-3.43224
-3.39789
-3.37006
-3.34769
-3.33131
-3.32084
-3.31553
-3.31413
-3.31495
-3.31597
-3.31505
-3.31014
-3.29948
-3.28195
-3.25713
-3.22568
-3.18936
-3.14893
-3.11078
-3.49109
-3.44978
-3.41015
-3.37852
-3.35332
-3.33491
-3.32302
-3.31673
-3.31464
-3.31492
-3.3154
-3.31382
-3.30795
-3.29591
-3.27637
-3.24877
-3.21363
-3.17258
-3.12603
-3.08125
-3.51212
-3.46592
-3.42183
-3.38685
-3.35907
-3.33871
-3.3254
-3.31806
-3.31518
-3.31479
-3.3146
-3.31221
-3.30528
-3.29176
-3.27022
-3.23996
-3.20142
-3.15619
-3.10449
-3.05433
-3.52907
-3.47918
-3.43167
-3.39402
-3.36412
-3.34212
-3.32757
-3.31929
-3.31567
-3.31462
-3.31378
-3.31062
-3.30269
-3.28786
-3.26458
-3.23207
-3.19074
-3.14219
-3.0865
-3.03231
-3.5409
-3.48856
-3.43872
-3.39923
-3.36784
-3.34467
-3.3292
-3.32021
-3.31602
-3.31448
-3.31311
-3.30936
-3.30068
-3.28487
-3.26031
-3.2262
-3.1829
-3.13204
-3.07366
-3.0168
-3.54697
-3.4934
-3.44239
-3.40197
-3.36981
-3.34602
-3.33007
-3.32071
-3.31621
-3.31439
-3.31275
-3.30866
-3.29958
-3.28325
-3.25803
-3.22307
-3.17876
-3.12672
-3.06699
-3.0088
-3.54697
-3.4934
-3.44239
-3.40197
-3.36981
-3.34602
-3.33007
-3.32071
-3.31621
-3.31439
-3.31275
-3.30866
-3.29958
-3.28325
-3.25803
-3.22307
-3.17876
-3.12672
-3.06699
-3.0088
-3.5409
-3.48856
-3.43872
-3.39923
-3.36784
-3.34467
-3.3292
-3.32021
-3.31602
-3.31448
-3.31311
-3.30936
-3.30068
-3.28487
-3.26031
-3.2262
-3.1829
-3.13204
-3.07366
-3.0168
-3.52907
-3.47918
-3.43167
-3.39402
-3.36412
-3.34212
-3.32757
-3.31929
-3.31567
-3.31462
-3.31378
-3.31062
-3.30269
-3.28786
-3.26458
-3.23207
-3.19074
-3.14219
-3.0865
-3.03231
-3.51212
-3.46592
-3.42183
-3.38685
-3.35907
-3.33871
-3.3254
-3.31806
-3.31518
-3.31479
-3.3146
-3.31221
-3.30528
-3.29176
-3.27022
-3.23996
-3.20142
-3.15619
-3.10449
-3.05433
-3.49109
-3.44978
-3.41015
-3.37851
-3.35332
-3.33491
-3.32302
-3.31673
-3.31464
-3.31492
-3.3154
-3.31382
-3.30795
-3.29591
-3.27637
-3.24877
-3.21363
-3.17258
-3.12603
-3.08125
-3.46754
-3.43224
-3.39789
-3.37006
-3.34769
-3.33131
-3.32084
-3.31553
-3.31413
-3.31495
-3.31597
-3.31505
-3.31014
-3.29948
-3.28195
-3.25713
-3.22568
-3.18936
-3.14893
-3.11078
-3.44361
-3.4152
-3.38667
-3.36276
-3.34314
-3.32861
-3.31933
-3.31473
-3.31374
-3.31483
-3.31609
-3.31553
-3.31123
-3.30162
-3.28576
-3.26346
-3.23559
-3.20412
-3.17041
-3.13984
-3.42226
-3.40121
-3.37849
-3.35817
-3.34079
-3.32759
-3.31897
-3.31461
-3.3136
-3.31452
-3.31557
-3.31488
-3.31064
-3.30145
-3.28656
-3.26605
-3.2411
-3.21406
-3.18701
-3.16453
-3.40767
-3.39406
-3.37638
-3.35851
-3.34225
-3.32931
-3.32045
-3.31556
-3.31386
-3.31398
-3.3142
-3.31265
-3.30762
-3.29779
-3.28263
-3.26253
-3.23908
-3.21516
-3.19398
-3.17969
-3.40209
-3.3945
-3.38022
-3.36327
-3.34687
-3.33319
-3.32331
-3.3173
-3.31443
-3.31335
-3.31231
-3.30942
-3.30297
-3.29171
-3.27522
-3.2542
-3.23068
-3.20813
-3.19109
-3.18356
-4.52783
-4.51728
-4.49787
-4.47526
-4.45381
-4.43644
-4.42457
-4.41827
-4.4165
-4.41736
-4.41841
-4.41696
-4.41053
-4.39724
-4.37632
-4.34855
-4.31664
-4.28539
-4.26127
-4.25029
-4.53587
-4.51687
-4.49274
-4.46882
-4.44757
-4.4312
-4.42071
-4.41593
-4.41574
-4.41824
-4.42101
-4.42141
-4.41695
-4.40567
-4.38661
-4.36015
-4.32838
-4.29515
-4.26506
-4.24418
-4.55622
-4.52687
-4.49574
-4.46843
-4.44564
-4.42889
-4.41871
-4.41464
-4.41538
-4.41895
-4.42286
-4.42443
-4.42105
-4.41063
-4.39194
-4.3649
-4.33098
-4.29328
-4.25471
-4.22194
-4.58573
-4.54614
-4.50698
-4.47475
-4.44887
-4.43031
-4.41922
-4.4148
-4.41556
-4.41933
-4.42349
-4.42521
-4.42172
-4.41069
-4.3906
-4.361
-4.3229
-4.27888
-4.23073
-4.18629
-4.61863
-4.56952
-4.52234
-4.48473
-4.45509
-4.434
-4.42129
-4.41588
-4.41605
-4.41945
-4.42324
-4.42443
-4.42005
-4.40752
-4.38504
-4.35185
-4.30866
-4.25769
-4.19994
-4.14464
-4.65092
-4.59352
-4.53908
-4.49626
-4.46277
-4.4389
-4.42425
-4.4175
-4.41672
-4.41935
-4.42238
-4.42262
-4.41688
-4.40237
-4.37706
-4.33992
-4.29147
-4.23377
-4.1673
-4.10258
-4.67968
-4.61555
-4.555
-4.50761
-4.47059
-4.44408
-4.42748
-4.4193
-4.41743
-4.41912
-4.42121
-4.4203
-4.41305
-4.39647
-4.36832
-4.32742
-4.27415
-4.21052
-4.13673
-4.06438
-4.70283
-4.63363
-4.56838
-4.51735
-4.47746
-4.44871
-4.43042
-4.42096
-4.41806
-4.41885
-4.42002
-4.41803
-4.40938
-4.39095
-4.36034
-4.31627
-4.25905
-4.19071
-4.11129
-4.03323
-4.71898
-4.6464
-4.57797
-4.52443
-4.48251
-4.45216
-4.43264
-4.42221
-4.41853
-4.41862
-4.41907
-4.41625
-4.40654
-4.38672
-4.35433
-4.30798
-4.24798
-4.17638
-4.09316
-4.01133
-4.72726
-4.65299
-4.58296
-4.52814
-4.48517
-4.454
-4.43382
-4.42288
-4.41878
-4.41849
-4.41855
-4.41527
-4.405
-4.38445
-4.35111
-4.30358
-4.24215
-4.16889
-4.08376
-4.00005
-4.72726
-4.65299
-4.58296
-4.52814
-4.48517
-4.454
-4.43382
-4.42288
-4.41878
-4.41849
-4.41855
-4.41527
-4.405
-4.38445
-4.35111
-4.30358
-4.24215
-4.16889
-4.08376
-4.00005
-4.71898
-4.6464
-4.57797
-4.52443
-4.48251
-4.45216
-4.43264
-4.42221
-4.41853
-4.41862
-4.41907
-4.41625
-4.40654
-4.38672
-4.35433
-4.30798
-4.24798
-4.17638
-4.09316
-4.01133
-4.70283
-4.63363
-4.56838
-4.51735
-4.47746
-4.44871
-4.43042
-4.42096
-4.41806
-4.41885
-4.42002
-4.41803
-4.40938
-4.39095
-4.36034
-4.31627
-4.25905
-4.19071
-4.11129
-4.03323
-4.67968
-4.61555
-4.555
-4.50761
-4.47059
-4.44408
-4.42748
-4.4193
-4.41743
-4.41912
-4.42121
-4.4203
-4.41305
-4.39647
-4.36832
-4.32742
-4.27415
-4.21052
-4.13673
-4.06438
-4.65092
-4.59352
-4.53908
-4.49626
-4.46277
-4.4389
-4.42425
-4.4175
-4.41672
-4.41935
-4.42238
-4.42262
-4.41688
-4.40237
-4.37706
-4.33992
-4.29147
-4.23377
-4.1673
-4.10258
-4.61863
-4.56952
-4.52234
-4.48473
-4.45509
-4.434
-4.42129
-4.41588
-4.41605
-4.41945
-4.42324
-4.42443
-4.42005
-4.40752
-4.38504
-4.35185
-4.30866
-4.25769
-4.19994
-4.14464
-4.58573
-4.54614
-4.50698
-4.47475
-4.44887
-4.43031
-4.41922
-4.4148
-4.41556
-4.41933
-4.42349
-4.42521
-4.42172
-4.41069
-4.3906
-4.361
-4.3229
-4.27888
-4.23073
-4.18629
-4.55622
-4.52686
-4.49574
-4.46843
-4.44564
-4.42889
-4.41871
-4.41464
-4.41538
-4.41895
-4.42286
-4.42443
-4.42105
-4.41063
-4.39194
-4.3649
-4.33098
-4.29328
-4.25471
-4.22194
-4.53587
-4.51687
-4.49274
-4.46882
-4.44757
-4.4312
-4.42071
-4.41593
-4.41574
-4.41824
-4.42101
-4.42141
-4.41695
-4.40567
-4.38661
-4.36015
-4.32838
-4.29515
-4.26506
-4.24418
-4.52783
-4.51728
-4.49787
-4.47526
-4.45381
-4.43644
-4.42457
-4.41827
-4.4165
-4.41736
-4.41841
-4.41696
-4.41053
-4.39724
-4.37632
-4.34855
-4.31664
-4.28539
-4.26127
-4.25029
-5.64577
-5.63157
-5.60622
-5.57749
-5.55108
-5.53076
-5.5183
-5.51374
-5.51563
-5.52139
-5.52767
-5.53076
-5.52712
-5.51392
-5.4898
-5.45544
-5.41425
-5.37258
-5.3394
-5.32367
-5.65709
-5.63138
-5.59968
-5.56918
-5.54302
-5.52398
-5.51331
-5.5107
-5.51464
-5.52253
-5.53107
-5.53659
-5.53556
-5.52507
-5.50349
-5.47095
-5.42997
-5.38557
-5.34398
-5.31404
-5.6846
-5.64492
-5.60382
-5.5688
-5.54058
-5.52102
-5.51073
-5.50902
-5.51415
-5.52341
-5.53342
-5.54045
-5.54084
-5.53147
-5.51035
-5.47699
-5.43305
-5.3824
-5.32885
-5.28202
-5.72395
-5.67053
-5.61871
-5.57717
-5.54487
-5.52292
-5.51139
-5.50921
-5.51433
-5.52382
-5.53412
-5.5413
-5.54149
-5.53124
-5.50816
-5.47124
-5.42149
-5.36202
-5.29504
-5.23178
-5.76752
-5.7014
-5.63892
-5.59025
-5.55301
-5.52773
-5.51408
-5.51058
-5.51491
-5.52387
-5.53365
-5.54009
-5.53902
-5.5267
-5.50032
-5.45844
-5.40162
-5.3325
-5.25215
-5.17373
-5.81007
-5.73295
-5.66084
-5.60532
-5.56302
-5.5341
-5.5179
-5.51265
-5.51572
-5.52365
-5.53238
-5.53751
-5.53459
-5.51956
-5.48929
-5.44197
-5.3779
-5.29947
-5.20703
-5.11557
-5.84786
-5.7618
-5.68164
-5.62011
-5.5732
-5.54081
-5.52208
-5.51495
-5.51658
-5.52327
-5.53073
-5.53432
-5.52934
-5.51148
-5.47733
-5.42485
-5.35415
-5.26756
-5.16503
-5.06306
-5.87821
-5.78544
-5.69908
-5.63278
-5.5821
-5.54681
-5.52588
-5.51707
-5.51735
-5.52285
-5.52908
-5.53122
-5.52435
-5.50398
-5.46648
-5.40967
-5.33356
-5.24048
-5.13022
-5.02043
-5.89934
-5.80211
-5.71156
-5.64197
-5.58865
-5.55128
-5.52873
-5.51868
-5.51793
-5.5225
-5.52778
-5.5288
-5.52051
-5.49827
-5.45834
-5.39842
-5.31851
-5.22097
-5.1055
-4.99055
-5.91017
-5.81071
-5.71806
-5.64679
-5.59211
-5.55366
-5.53026
-5.51954
-5.51824
-5.52231
-5.52707
-5.52748
-5.51843
-5.4952
-5.45399
-5.39246
-5.31059
-5.21078
-5.0927
-4.97519
-5.91017
-5.81071
-5.71806
-5.64679
-5.59211
-5.55366
-5.53026
-5.51954
-5.51824
-5.52231
-5.52707
-5.52748
-5.51843
-5.4952
-5.45399
-5.39246
-5.31059
-5.21078
-5.0927
-4.97519
-5.89934
-5.80211
-5.71156
-5.64197
-5.58865
-5.55128
-5.52873
-5.51868
-5.51793
-5.5225
-5.52778
-5.5288
-5.52051
-5.49827
-5.45834
-5.39842
-5.31851
-5.22097
-5.1055
-4.99055
-5.87821
-5.78544
-5.69908
-5.63278
-5.5821
-5.54681
-5.52588
-5.51707
-5.51735
-5.52285
-5.52908
-5.53122
-5.52435
-5.50398
-5.46649
-5.40967
-5.33356
-5.24048
-5.13022
-5.02043
-5.84786
-5.7618
-5.68164
-5.62011
-5.5732
-5.54081
-5.52208
-5.51495
-5.51658
-5.52327
-5.53073
-5.53432
-5.52934
-5.51148
-5.47733
-5.42485
-5.35415
-5.26756
-5.16503
-5.06306
-5.81007
-5.73295
-5.66084
-5.60532
-5.56302
-5.5341
-5.5179
-5.51265
-5.51572
-5.52365
-5.53238
-5.53751
-5.53459
-5.51956
-5.48929
-5.44197
-5.3779
-5.29947
-5.20703
-5.11557
-5.76752
-5.7014
-5.63892
-5.59025
-5.55301
-5.52773
-5.51408
-5.51058
-5.51491
-5.52387
-5.53365
-5.54009
-5.53902
-5.5267
-5.50032
-5.45844
-5.40162
-5.3325
-5.25215
-5.17373
-5.72395
-5.67053
-5.61871
-5.57717
-5.54487
-5.52292
-5.51139
-5.50921
-5.51433
-5.52382
-5.53412
-5.5413
-5.54149
-5.53124
-5.50816
-5.47124
-5.42149
-5.36202
-5.29504
-5.23178
-5.6846
-5.64492
-5.60382
-5.5688
-5.54058
-5.52102
-5.51073
-5.50902
-5.51415
-5.52341
-5.53342
-5.54045
-5.54084
-5.53147
-5.51035
-5.47699
-5.43305
-5.3824
-5.32886
-5.28202
-5.65709
-5.63138
-5.59968
-5.56918
-5.54302
-5.52398
-5.51331
-5.5107
-5.51464
-5.52253
-5.53107
-5.53659
-5.53556
-5.52507
-5.50349
-5.47095
-5.42997
-5.38557
-5.34398
-5.31404
-5.64577
-5.63157
-5.60622
-5.57749
-5.55108
-5.53076
-5.5183
-5.51373
-5.51562
-5.52139
-5.52767
-5.53076
-5.52712
-5.51392
-5.4898
-5.45544
-5.41425
-5.37258
-5.3394
-5.32367
-6.75237
-6.73366
-6.7014
-6.66608
-6.63494
-6.61271
-6.60159
-6.60151
-6.61055
-6.62525
-6.64114
-6.65315
-6.6563
-6.64644
-6.62118
-6.58085
-6.52943
-6.47515
-6.43016
-6.40778
-6.76801
-6.73396
-6.69333
-6.65567
-6.62482
-6.6042
-6.59531
-6.59769
-6.60928
-6.62666
-6.6454
-6.66051
-6.66705
-6.66074
-6.63886
-6.60099
-6.54992
-6.49193
-6.43526
-6.3927
-6.80439
-6.7519
-6.69892
-6.65537
-6.62185
-6.60051
-6.59207
-6.59554
-6.6086
-6.62768
-6.64825
-6.66525
-6.67358
-6.66869
-6.64737
-6.60835
-6.55323
-6.48664
-6.4133
-6.34702
-6.85566
-6.78514
-6.71817
-6.66616
-6.62737
-6.60295
-6.5929
-6.59572
-6.60873
-6.62805
-6.64893
-6.66606
-6.67404
-6.6679
-6.64388
-6.59998
-6.53689
-6.45817
-6.36621
-6.27708
-6.91196
-6.82488
-6.74408
-6.68288
-6.63774
-6.60905
-6.59626
-6.59739
-6.60936
-6.62795
-6.64811
-6.66422
-6.67048
-6.66152
-6.63302
-6.58236
-6.50962
-6.41768
-6.30734
-6.19734
-6.96665
-6.86529
-6.77205
-6.70204
-6.65042
-6.61708
-6.60105
-6.59993
-6.61027
-6.62752
-6.64631
-6.66066
-6.66444
-6.65185
-6.6181
-6.5601
-6.47751
-6.37287
-6.24603
-6.11822
-7.01502
-6.90211
-6.79849
-6.72078
-6.66328
-6.62554
-6.60627
-6.60278
-6.61127
-6.62692
-6.64404
-6.65637
-6.65743
-6.64106
-6.60213
-6.53717
-6.44562
-6.3299
-6.18936
-6.0473
-7.05377
-6.9322
-6.82061
-6.73681
-6.67452
-6.63308
-6.61103
-6.6054
-6.61218
-6.6263
-6.64183
-6.65226
-6.65083
-6.63113
-6.58774
-6.51697
-6.41813
-6.29365
-6.14266
-5.99003
-7.08069
-6.95338
-6.83642
-6.74843
-6.68277
-6.63869
-6.6146
-6.60738
-6.61286
-6.6258
-6.6401
-6.64907
-6.64578
-6.62362
-6.57698
-6.50207
-6.39812
-6.26762
-6.10961
-5.95005
-7.09447
-6.9643
-6.84464
-6.75451
-6.68712
-6.64167
-6.61651
-6.60845
-6.61323
-6.62553
-6.63916
-6.64735
-6.64306
-6.61959
-6.57126
-6.49419
-6.38762
-6.25406
-6.09254
-5.92954
-7.09447
-6.9643
-6.84464
-6.75451
-6.68712
-6.64167
-6.61651
-6.60845
-6.61323
-6.62553
-6.63916
-6.64735
-6.64306
-6.61959
-6.57126
-6.49419
-6.38762
-6.25406
-6.09254
-5.92954
-7.08069
-6.95338
-6.83642
-6.74843
-6.68277
-6.63869
-6.6146
-6.60738
-6.61286
-6.6258
-6.6401
-6.64907
-6.64578
-6.62362
-6.57698
-6.50207
-6.39813
-6.26762
-6.10961
-5.95005
-7.05377
-6.9322
-6.82061
-6.73681
-6.67452
-6.63308
-6.61103
-6.6054
-6.61218
-6.6263
-6.64183
-6.65226
-6.65083
-6.63113
-6.58774
-6.51697
-6.41813
-6.29365
-6.14266
-5.99003
-7.01502
-6.90211
-6.79849
-6.72078
-6.66328
-6.62554
-6.60627
-6.60278
-6.61127
-6.62692
-6.64404
-6.65637
-6.65743
-6.64106
-6.60213
-6.53717
-6.44562
-6.3299
-6.18936
-6.0473
-6.96664
-6.86529
-6.77205
-6.70204
-6.65042
-6.61708
-6.60105
-6.59993
-6.61027
-6.62752
-6.64631
-6.66066
-6.66444
-6.65185
-6.6181
-6.5601
-6.47751
-6.37287
-6.24603
-6.11822
-6.91196
-6.82488
-6.74408
-6.68288
-6.63774
-6.60905
-6.59626
-6.59739
-6.60936
-6.62795
-6.64811
-6.66422
-6.67048
-6.66152
-6.63302
-6.58236
-6.50962
-6.41768
-6.30734
-6.19734
-6.85566
-6.78514
-6.71817
-6.66616
-6.62737
-6.60295
-6.5929
-6.59572
-6.60873
-6.62805
-6.64893
-6.66606
-6.67404
-6.6679
-6.64388
-6.59998
-6.53689
-6.45817
-6.36621
-6.27708
-6.80439
-6.7519
-6.69892
-6.65537
-6.62184
-6.60051
-6.59207
-6.59554
-6.6086
-6.62768
-6.64825
-6.66525
-6.67358
-6.66869
-6.64737
-6.60835
-6.55323
-6.48664
-6.4133
-6.34702
-6.76801
-6.73396
-6.69333
-6.65567
-6.62482
-6.6042
-6.59531
-6.59769
-6.60928
-6.62666
-6.6454
-6.66051
-6.66705
-6.66074
-6.63886
-6.60099
-6.54992
-6.49193
-6.43526
-6.3927
-6.75237
-6.73366
-6.7014
-6.66608
-6.63494
-6.61271
-6.60159
-6.60151
-6.61055
-6.62525
-6.64114
-6.65315
-6.6563
-6.64644
-6.62118
-6.58085
-6.52943
-6.47515
-6.43016
-6.40778
-7.84282
-7.81858
-7.77831
-7.73594
-7.7005
-7.67785
-7.67063
-7.67868
-7.69948
-7.72855
-7.75998
-7.787
-7.80272
-7.80108
-7.7781
-7.73323
-7.67085
-7.60127
-7.54073
-7.50899
-7.86403
-7.81969
-7.76859
-7.72318
-7.68806
-7.66737
-7.66287
-7.67392
-7.69784
-7.73018
-7.76512
-7.79602
-7.81601
-7.81894
-7.80038
-7.75882
-7.69696
-7.62242
-7.54574
-7.48552
-7.91132
-7.84305
-7.776
-7.72305
-7.68451
-7.66286
-7.65886
-7.6712
-7.69687
-7.73125
-7.76841
-7.8016
-7.8238
-7.82847
-7.81054
-7.76737
-7.70002
-7.61373
-7.51398
-7.42061
-7.97693
-7.88542
-7.80043
-7.73671
-7.69149
-7.66592
-7.65986
-7.67134
-7.69687
-7.73148
-7.76894
-7.8022
-7.82382
-7.82673
-7.8051
-7.75528
-7.6771
-7.57421
-7.44882
-7.32383
-8.04837
-7.93565
-7.83302
-7.75766
-7.70443
-7.67348
-7.66396
-7.6733
-7.69749
-7.73113
-7.76761
-7.79947
-7.81878
-7.8179
-7.79026
-7.73134
-7.64009
-7.51922
-7.36873
-7.21518
-8.11735
-7.98643
-7.86801
-7.78154
-7.72018
-7.68341
-7.66983
-7.67634
-7.69848
-7.7304
-7.7651
-7.79466
-7.81071
-7.80503
-7.77041
-7.70167
-7.59716
-7.45913
-7.28626
-7.10856
-8.17812
-8.03253
-7.90098
-7.80483
-7.73609
-7.69383
-7.67623
-7.67977
-7.69959
-7.72949
-7.76207
-7.78903
-7.80154
-7.79091
-7.74944
-7.67145
-7.55496
-7.40203
-7.21069
-7.0138
-8.22665
-8.07009
-7.92849
-7.8247
-7.74998
-7.70312
-7.68205
-7.68294
-7.70063
-7.72861
-7.75918
-7.7837
-7.79301
-7.77804
-7.73071
-7.64503
-7.51883
-7.35417
-7.14881
-6.93777
-8.2603
-8.09649
-7.94812
-7.83908
-7.76016
-7.71002
-7.68642
-7.68534
-7.70142
-7.72793
-7.75694
-7.77961
-7.78652
-7.76835
-7.7168
-7.62565
-7.49266
-7.31997
-7.10523
-6.88493
-8.2775
-8.11007
-7.95831
-7.8466
-7.76553
-7.71368
-7.68876
-7.68664
-7.70185
-7.72756
-7.75574
-7.77741
-7.78304
-7.76318
-7.70941
-7.61543
-7.47897
-7.30219
-7.08277
-6.8579
-8.2775
-8.11007
-7.95831
-7.8466
-7.76553
-7.71368
-7.68876
-7.68664
-7.70185
-7.72756
-7.75574
-7.77741
-7.78304
-7.76318
-7.70941
-7.61543
-7.47897
-7.3022
-7.08277
-6.8579
-8.2603
-8.09649
-7.94812
-7.83907
-7.76016
-7.71002
-7.68642
-7.68534
-7.70142
-7.72793
-7.75694
-7.77961
-7.78652
-7.76835
-7.7168
-7.62565
-7.49266
-7.31997
-7.10523
-6.88493
-8.22665
-8.07009
-7.92849
-7.8247
-7.74998
-7.70312
-7.68205
-7.68294
-7.70063
-7.72861
-7.75918
-7.7837
-7.79301
-7.77804
-7.73071
-7.64503
-7.51883
-7.35417
-7.14881
-6.93777
-8.17812
-8.03253
-7.90098
-7.80483
-7.73609
-7.69383
-7.67623
-7.67977
-7.69959
-7.72949
-7.76207
-7.78903
-7.80154
-7.79091
-7.74944
-7.67145
-7.55496
-7.40203
-7.21069
-7.0138
-8.11735
-7.98643
-7.86801
-7.78154
-7.72017
-7.68341
-7.66983
-7.67634
-7.69847
-7.7304
-7.7651
-7.79466
-7.81071
-7.80503
-7.77041
-7.70167
-7.59716
-7.45913
-7.28626
-7.10856
-8.04837
-7.93565
-7.83302
-7.75766
-7.70443
-7.67348
-7.66396
-7.6733
-7.69749
-7.73113
-7.76761
-7.79947
-7.81878
-7.8179
-7.79026
-7.73134
-7.64009
-7.51922
-7.36873
-7.21518
-7.97693
-7.88542
-7.80043
-7.73671
-7.69149
-7.66592
-7.65986
-7.67134
-7.69687
-7.73148
-7.76894
-7.8022
-7.82382
-7.82673
-7.8051
-7.75528
-7.6771
-7.57421
-7.44882
-7.32383
-7.91132
-7.84305
-7.776
-7.72305
-7.68451
-7.66286
-7.65886
-7.6712
-7.69687
-7.73124
-7.76841
-7.8016
-7.8238
-7.82847
-7.81054
-7.76737
-7.70002
-7.61373
-7.51398
-7.42061
-7.86403
-7.81969
-7.76859
-7.72318
-7.68806
-7.66737
-7.66287
-7.67392
-7.69784
-7.73018
-7.76512
-7.79602
-7.81601
-7.81894
-7.80038
-7.75882
-7.69696
-7.62242
-7.54574
-7.48552
-7.84282
-7.81858
-7.77831
-7.73594
-7.7005
-7.67785
-7.67063
-7.67868
-7.69948