/*--------------------------------*- C++ -*----------------------------------*\
  =========                 |
  \\      /  F ield         | OpenFOAM: The Open Source CFD Toolbox
   \\    /   O peration     | Website:  https://openfoam.org
    \\  /    A nd           | Version:  6
     \\/     M anipulation  |
\*---------------------------------------------------------------------------*/
FoamFile
{
    version     2.0;
    format      ascii;
    class       volScalarField;
    location    "0.745";
    object      T;
}
// * * * * * * * * * * * * * * * * * * * * * * * * * * * * * * * * * * * * * //

dimensions      [0 0 0 1 0 0 0];

internalField   nonuniform List<scalar> 
7000
(
106.299
106.298
106.294
106.289
106.282
106.275
106.269
106.263
106.258
106.256
106.299
106.298
106.294
106.289
106.282
106.275
106.269
106.263
106.258
106.256
106.299
106.298
106.294
106.289
106.282
106.275
106.269
106.263
106.258
106.256
106.299
106.298
106.294
106.289
106.282
106.275
106.269
106.263
106.258
106.256
106.299
106.298
106.294
106.289
106.282
106.275
106.269
106.263
106.258
106.256
106.299
106.298
106.294
106.289
106.282
106.275
106.269
106.263
106.258
106.256
106.299
106.298
106.294
106.289
106.282
106.275
106.269
106.263
106.258
106.256
106.299
106.298
106.294
106.289
106.282
106.275
106.269
106.263
106.258
106.256
106.299
106.298
106.294
106.289
106.282
106.275
106.269
106.263
106.258
106.256
106.299
106.298
106.294
106.289
106.282
106.275
106.269
106.263
106.258
106.256
98.9234
98.9176
98.9064
98.8905
98.8712
98.85
98.8289
98.8103
98.7962
98.7886
98.9234
98.9176
98.9064
98.8905
98.8712
98.85
98.8289
98.8102
98.7962
98.7886
98.9234
98.9176
98.9064
98.8905
98.8712
98.85
98.8289
98.8102
98.7962
98.7886
98.9234
98.9176
98.9064
98.8905
98.8712
98.85
98.8289
98.8102
98.7962
98.7886
98.9234
98.9176
98.9064
98.8905
98.8712
98.85
98.8289
98.8102
98.7962
98.7886
98.9234
98.9176
98.9064
98.8905
98.8712
98.85
98.8289
98.8102
98.7962
98.7886
98.9234
98.9176
98.9064
98.8905
98.8712
98.85
98.8289
98.8102
98.7962
98.7886
98.9234
98.9176
98.9064
98.8905
98.8712
98.85
98.8289
98.8102
98.7962
98.7886
98.9234
98.9176
98.9064
98.8905
98.8712
98.85
98.8289
98.8102
98.7962
98.7886
98.9234
98.9176
98.9064
98.8905
98.8712
98.85
98.8289
98.8102
98.7962
98.7886
91.6223
91.6124
91.5931
91.5657
91.5321
91.4951
91.4579
91.4247
91.3995
91.3859
91.6223
91.6123
91.5931
91.5657
91.5321
91.495
91.4579
91.4247
91.3995
91.3858
91.6223
91.6123
91.593
91.5656
91.5321
91.495
91.4579
91.4247
91.3995
91.3858
91.6223
91.6123
91.593
91.5656
91.5321
91.495
91.4579
91.4247
91.3995
91.3858
91.6223
91.6123
91.593
91.5656
91.5321
91.495
91.4579
91.4246
91.3995
91.3858
91.6223
91.6123
91.593
91.5656
91.5321
91.495
91.4579
91.4246
91.3995
91.3858
91.6223
91.6123
91.593
91.5656
91.5321
91.495
91.4579
91.4246
91.3995
91.3858
91.6223
91.6123
91.593
91.5656
91.5321
91.495
91.4579
91.4247
91.3995
91.3858
91.6223
91.6123
91.593
91.5656
91.5321
91.495
91.4579
91.4247
91.3995
91.3858
91.6223
91.6123
91.593
91.5657
91.5321
91.495
91.4579
91.4247
91.3995
91.3859
84.445
84.4305
84.4023
84.3621
84.3123
84.2567
84.2003
84.1491
84.1098
84.0883
84.445
84.4305
84.4023
84.362
84.3122
84.2567
84.2003
84.1491
84.1097
84.0882
84.445
84.4305
84.4023
84.362
84.3122
84.2566
84.2002
84.1491
84.1097
84.0882
84.445
84.4305
84.4023
84.362
84.3122
84.2566
84.2002
84.149
84.1097
84.0882
84.445
84.4305
84.4023
84.362
84.3122
84.2566
84.2002
84.149
84.1097
84.0882
84.445
84.4305
84.4023
84.362
84.3122
84.2566
84.2002
84.149
84.1097
84.0882
84.445
84.4305
84.4023
84.362
84.3122
84.2566
84.2002
84.149
84.1097
84.0882
84.445
84.4305
84.4023
84.362
84.3122
84.2566
84.2002
84.149
84.1097
84.0882
84.445
84.4305
84.4023
84.362
84.3122
84.2566
84.2002
84.1491
84.1097
84.0882
84.445
84.4305
84.4023
84.362
84.3122
84.2567
84.2003
84.1491
84.1098
84.0883
77.4388
77.4193
77.3812
77.3263
77.2577
77.1798
77.0993
77.0247
76.9661
76.9335
77.4388
77.4193
77.3812
77.3263
77.2577
77.1798
77.0993
77.0247
76.9661
76.9335
77.4388
77.4193
77.3812
77.3263
77.2576
77.1798
77.0993
77.0247
76.9661
76.9335
77.4387
77.4193
77.3812
77.3263
77.2576
77.1798
77.0993
77.0246
76.9661
76.9335
77.4387
77.4192
77.3812
77.3263
77.2576
77.1798
77.0992
77.0246
76.9661
76.9335
77.4387
77.4192
77.3812
77.3263
77.2576
77.1798
77.0992
77.0246
76.9661
76.9335
77.4387
77.4192
77.3812
77.3263
77.2576
77.1798
77.0992
77.0246
76.9661
76.9335
77.4387
77.4193
77.3812
77.3263
77.2576
77.1798
77.0993
77.0247
76.9661
76.9335
77.4388
77.4193
77.3812
77.3263
77.2576
77.1798
77.0993
77.0247
76.9661
76.9335
77.4388
77.4193
77.3812
77.3263
77.2577
77.1798
77.0993
77.0247
76.9661
76.9335
70.6486
70.6238
70.5748
70.5036
70.413
70.3082
70.1969
70.0904
70.004
69.9545
70.6486
70.6237
70.5748
70.5035
70.413
70.3082
70.1969
70.0904
70.004
69.9544
70.6486
70.6237
70.5748
70.5035
70.413
70.3081
70.1968
70.0904
70.0039
69.9544
70.6485
70.6237
70.5747
70.5035
70.4129
70.3081
70.1968
70.0904
70.0039
69.9544
70.6485
70.6237
70.5747
70.5035
70.4129
70.3081
70.1968
70.0903
70.0039
69.9544
70.6485
70.6236
70.5747
70.5035
70.4129
70.3081
70.1968
70.0903
70.0039
69.9544
70.6485
70.6237
70.5747
70.5035
70.4129
70.3081
70.1968
70.0904
70.0039
69.9544
70.6485
70.6237
70.5747
70.5035
70.4129
70.3081
70.1968
70.0904
70.0039
69.9544
70.6486
70.6237
70.5748
70.5035
70.413
70.3082
70.1968
70.0904
70.004
69.9544
70.6486
70.6237
70.5748
70.5035
70.413
70.3082
70.1969
70.0904
70.004
69.9545
64.1164
64.086
64.0257
63.9368
63.8216
63.6847
63.5339
63.3831
63.254
63.1761
64.1164
64.086
64.0257
63.9367
63.8216
63.6846
63.5339
63.3831
63.254
63.1761
64.1164
64.0859
64.0256
63.9367
63.8215
63.6846
63.5338
63.383
63.254
63.1761
64.1163
64.0859
64.0256
63.9367
63.8215
63.6846
63.5338
63.383
63.254
63.176
64.1163
64.0859
64.0256
63.9367
63.8215
63.6845
63.5338
63.383
63.2539
63.176
64.1163
64.0859
64.0256
63.9367
63.8215
63.6845
63.5338
63.383
63.2539
63.176
64.1163
64.0859
64.0256
63.9367
63.8215
63.6845
63.5338
63.383
63.2539
63.176
64.1163
64.0859
64.0256
63.9367
63.8215
63.6846
63.5338
63.383
63.254
63.1761
64.1163
64.0859
64.0256
63.9367
63.8216
63.6846
63.5338
63.383
63.254
63.1761
64.1164
64.086
64.0257
63.9368
63.8216
63.6846
63.5339
63.3831
63.254
63.1761
57.8804
57.8447
57.7734
57.6668
57.5257
57.3522
57.1523
56.9393
56.7415
56.6104
57.8803
57.8447
57.7734
57.6668
57.5256
57.3522
57.1522
56.9392
56.7415
56.6103
57.8803
57.8446
57.7734
57.6667
57.5256
57.3521
57.1522
56.9392
56.7415
56.6103
57.8803
57.8446
57.7733
57.6667
57.5256
57.3521
57.1522
56.9391
56.7414
56.6103
57.8803
57.8446
57.7733
57.6667
57.5255
57.3521
57.1521
56.9391
56.7414
56.6103
57.8803
57.8446
57.7733
57.6667
57.5255
57.3521
57.1521
56.9391
56.7414
56.6103
57.8803
57.8446
57.7733
57.6667
57.5255
57.3521
57.1522
56.9391
56.7414
56.6103
57.8803
57.8446
57.7733
57.6667
57.5256
57.3521
57.1522
56.9392
56.7414
56.6103
57.8803
57.8446
57.7734
57.6668
57.5256
57.3521
57.1522
56.9392
56.7415
56.6103
57.8803
57.8447
57.7734
57.6668
57.5256
57.3522
57.1522
56.9392
56.7415
56.6104
51.974
51.9341
51.8537
51.7317
51.5664
51.3557
51.0988
50.8012
50.4888
50.2432
51.9739
51.934
51.8536
51.7317
51.5663
51.3556
51.0988
50.8011
50.4887
50.2432
51.9739
51.934
51.8536
51.7316
51.5663
51.3556
51.0987
50.8011
50.4887
50.2431
51.9739
51.9339
51.8536
51.7316
51.5663
51.3556
51.0987
50.801
50.4887
50.2431
51.9739
51.9339
51.8536
51.7316
51.5662
51.3555
51.0987
50.801
50.4887
50.2431
51.9739
51.9339
51.8535
51.7316
51.5662
51.3555
51.0987
50.801
50.4887
50.2431
51.9739
51.9339
51.8536
51.7316
51.5663
51.3555
51.0987
50.801
50.4887
50.2431
51.9739
51.9339
51.8536
51.7316
51.5663
51.3556
51.0987
50.8011
50.4887
50.2431
51.9739
51.934
51.8536
51.7316
51.5663
51.3556
51.0987
50.8011
50.4887
50.2432
51.9739
51.934
51.8536
51.7317
51.5664
51.3557
51.0988
50.8011
50.4888
50.2432
46.4249
46.3826
46.2969
46.1653
45.9832
45.7428
45.4315
45.032
44.5322
43.9997
46.4249
46.3826
46.2969
46.1653
45.9832
45.7427
45.4315
45.0319
44.5321
43.9997
46.4248
46.3825
46.2968
46.1652
45.9831
45.7427
45.4314
45.0319
44.5321
43.9996
46.4248
46.3825
46.2968
46.1652
45.9831
45.7426
45.4314
45.0319
44.5321
43.9996
46.4248
46.3825
46.2968
46.1652
45.9831
45.7426
45.4314
45.0318
44.532
43.9996
46.4248
46.3825
46.2968
46.1652
45.9831
45.7426
45.4314
45.0318
44.532
43.9996
46.4248
46.3825
46.2968
46.1652
45.9831
45.7426
45.4314
45.0319
44.5321
43.9996
46.4248
46.3825
46.2968
46.1652
45.9831
45.7427
45.4314
45.0319
44.5321
43.9996
46.4249
46.3825
46.2969
46.1653
45.9831
45.7427
45.4314
45.0319
44.5321
43.9997
46.4249
46.3826
46.2969
46.1653
45.9832
45.7427
45.4315
45.032
44.5322
43.9997
41.2541
41.2121
41.1268
40.9951
40.8107
40.5616
40.2242
39.7475
39.0071
37.6361
41.254
41.212
41.1267
40.995
40.8106
40.5615
40.2241
39.7475
39.007
37.636
41.254
41.212
41.1267
40.995
40.8106
40.5615
40.224
39.7474
39.0069
37.6359
41.254
41.2119
41.1267
40.995
40.8106
40.5615
40.224
39.7474
39.0069
37.6359
41.2539
41.2119
41.1267
40.9949
40.8105
40.5615
40.224
39.7474
39.0069
37.6359
41.2539
41.2119
41.1267
40.9949
40.8105
40.5615
40.224
39.7474
39.0069
37.6359
41.2539
41.2119
41.1267
40.995
40.8105
40.5615
40.224
39.7474
39.0069
37.6359
41.254
41.212
41.1267
40.995
40.8106
40.5615
40.224
39.7474
39.0069
37.6359
41.254
41.212
41.1267
40.995
40.8106
40.5615
40.2241
39.7474
39.007
37.636
41.254
41.212
41.1268
40.9951
40.8107
40.5616
40.2241
39.7475
39.007
37.636
36.4744
36.4359
36.358
36.2382
36.0716
35.8481
35.5488
35.137
34.5454
33.6715
36.4744
36.4359
36.3579
36.2382
36.0715
35.8481
35.5488
35.137
34.5453
33.6715
36.4743
36.4358
36.3579
36.2381
36.0715
35.848
35.5487
35.1369
34.5453
33.6714
36.4743
36.4358
36.3579
36.2381
36.0714
35.848
35.5487
35.1369
34.5452
33.6714
36.4743
36.4358
36.3579
36.2381
36.0714
35.848
35.5487
35.1369
34.5452
33.6713
36.4743
36.4358
36.3579
36.2381
36.0714
35.848
35.5487
35.1369
34.5452
33.6713
36.4743
36.4358
36.3579
36.2381
36.0714
35.848
35.5487
35.1369
34.5452
33.6714
36.4743
36.4358
36.3579
36.2381
36.0714
35.848
35.5487
35.1369
34.5452
33.6714
36.4743
36.4358
36.3579
36.2382
36.0715
35.8481
35.5488
35.1369
34.5453
33.6714
36.4744
36.4359
36.358
36.2382
36.0715
35.8481
35.5488
35.137
34.5454
33.6715
32.0907
32.0588
31.9949
31.8987
31.7689
31.6024
31.3937
31.1344
30.8202
30.4804
32.0906
32.0587
31.9949
31.8986
31.7688
31.6024
31.3936
31.1343
30.8201
30.4803
32.0906
32.0587
31.9948
31.8986
31.7688
31.6023
31.3936
31.1342
30.82
30.4803
32.0906
32.0586
31.9948
31.8986
31.7687
31.6023
31.3935
31.1342
30.82
30.4802
32.0905
32.0586
31.9948
31.8986
31.7687
31.6023
31.3935
31.1342
30.82
30.4802
32.0905
32.0586
31.9948
31.8986
31.7687
31.6023
31.3935
31.1342
30.82
30.4802
32.0905
32.0586
31.9948
31.8986
31.7687
31.6023
31.3935
31.1342
30.82
30.4802
32.0906
32.0586
31.9948
31.8986
31.7688
31.6023
31.3935
31.1342
30.82
30.4802
32.0906
32.0587
31.9948
31.8986
31.7688
31.6024
31.3936
31.1343
30.8201
30.4803
32.0906
32.0587
31.9949
31.8987
31.7689
31.6024
31.3937
31.1343
30.8201
30.4804
28.0995
28.0765
28.0319
27.9678
27.8879
27.7976
27.7049
27.6242
27.5856
27.6552
28.0994
28.0765
28.0318
27.9677
27.8878
27.7975
27.7048
27.6242
27.5855
27.6551
28.0994
28.0765
28.0318
27.9677
27.8878
27.7975
27.7047
27.6241
27.5855
27.655
28.0994
28.0764
28.0317
27.9676
27.8878
27.7974
27.7047
27.6241
27.5854
27.655
28.0994
28.0764
28.0317
27.9676
27.8878
27.7974
27.7047
27.6241
27.5854
27.655
28.0994
28.0764
28.0317
27.9676
27.8878
27.7974
27.7047
27.6241
27.5854
27.655
28.0994
28.0764
28.0317
27.9676
27.8878
27.7974
27.7047
27.6241
27.5854
27.655
28.0994
28.0764
28.0317
27.9677
27.8878
27.7974
27.7047
27.6241
27.5855
27.655
28.0994
28.0765
28.0318
27.9677
27.8878
27.7975
27.7048
27.6242
27.5855
27.6551
28.0995
28.0765
28.0318
27.9678
27.8879
27.7975
27.7048
27.6242
27.5856
27.6552
24.4904
24.4777
24.4548
24.427
24.4026
24.3944
24.4215
24.5124
24.7108
25.0844
24.4904
24.4777
24.4548
24.4269
24.4025
24.3943
24.4214
24.5123
24.7107
25.0844
24.4903
24.4776
24.4547
24.4269
24.4025
24.3943
24.4214
24.5123
24.7107
25.0843
24.4903
24.4776
24.4547
24.4268
24.4024
24.3943
24.4214
24.5122
24.7106
25.0843
24.4903
24.4776
24.4547
24.4268
24.4024
24.3943
24.4213
24.5122
24.7106
25.0843
24.4903
24.4776
24.4547
24.4268
24.4024
24.3943
24.4213
24.5122
24.7106
25.0843
24.4903
24.4776
24.4547
24.4268
24.4024
24.3943
24.4214
24.5122
24.7106
25.0843
24.4903
24.4776
24.4547
24.4269
24.4025
24.3943
24.4214
24.5123
24.7107
25.0843
24.4903
24.4776
24.4548
24.4269
24.4025
24.3943
24.4214
24.5123
24.7107
25.0844
24.4904
24.4777
24.4548
24.427
24.4025
24.3944
24.4215
24.5124
24.7108
25.0844
21.2473
21.2449
21.2438
21.2517
21.2811
21.3509
21.4879
21.7296
22.1253
22.7358
21.2472
21.2449
21.2438
21.2517
21.2811
21.3508
21.4879
21.7295
22.1253
22.7358
21.2472
21.2448
21.2437
21.2516
21.281
21.3508
21.4878
21.7295
22.1252
22.7357
21.2472
21.2448
21.2437
21.2516
21.281
21.3507
21.4878
21.7295
22.1252
22.7357
21.2472
21.2448
21.2437
21.2516
21.281
21.3507
21.4878
21.7295
22.1252
22.7357
21.2472
21.2448
21.2437
21.2516
21.281
21.3507
21.4878
21.7295
22.1252
22.7357
21.2472
21.2448
21.2437
21.2516
21.281
21.3507
21.4878
21.7295
22.1252
22.7357
21.2472
21.2448
21.2437
21.2516
21.281
21.3508
21.4878
21.7295
22.1252
22.7357
21.2472
21.2448
21.2438
21.2517
21.2811
21.3508
21.4879
21.7295
22.1253
22.7358
21.2473
21.2449
21.2438
21.2517
21.2811
21.3509
21.4879
21.7296
22.1253
22.7358
18.35
18.3569
18.3752
18.4144
18.49
18.6255
18.854
19.2205
19.781
20.5947
18.35
18.3569
18.3751
18.4143
18.49
18.6255
18.854
19.2204
19.7809
20.5946
18.35
18.3568
18.3751
18.4143
18.4899
18.6254
18.8539
19.2204
19.7809
20.5946
18.3499
18.3568
18.3751
18.4142
18.4899
18.6254
18.8539
19.2204
19.7809
20.5945
18.3499
18.3568
18.3751
18.4142
18.4899
18.6254
18.8539
19.2204
19.7808
20.5945
18.3499
18.3568
18.3751
18.4142
18.4899
18.6254
18.8539
19.2204
19.7808
20.5945
18.3499
18.3568
18.3751
18.4142
18.4899
18.6254
18.8539
19.2204
19.7809
20.5945
18.3499
18.3568
18.3751
18.4143
18.4899
18.6254
18.8539
19.2204
19.7809
20.5946
18.35
18.3568
18.3751
18.4143
18.49
18.6255
18.854
19.2204
19.7809
20.5946
18.35
18.3569
18.3752
18.4144
18.49
18.6255
18.854
19.2205
19.781
20.5947
15.7763
15.7904
15.8237
15.8866
15.9962
16.1789
16.4727
16.9312
17.6258
18.6355
15.7762
15.7904
15.8236
15.8865
15.9962
16.1789
16.4726
16.9311
17.6257
18.6355
15.7762
15.7903
15.8236
15.8865
15.9962
16.1788
16.4726
16.9311
17.6257
18.6354
15.7762
15.7903
15.8236
15.8864
15.9961
16.1788
16.4725
16.9311
17.6257
18.6354
15.7762
15.7903
15.8236
15.8864
15.9961
16.1788
16.4725
16.931
17.6256
18.6354
15.7762
15.7903
15.8236
15.8864
15.9961
16.1788
16.4725
16.9311
17.6256
18.6354
15.7762
15.7903
15.8236
15.8864
15.9961
16.1788
16.4725
16.9311
17.6257
18.6354
15.7762
15.7903
15.8236
15.8865
15.9962
16.1788
16.4726
16.9311
17.6257
18.6354
15.7762
15.7904
15.8236
15.8865
15.9962
16.1789
16.4726
16.9311
17.6257
18.6355
15.7763
15.7904
15.8237
15.8866
15.9963
16.1789
16.4727
16.9312
17.6258
18.6356
13.5028
13.5217
13.5645
13.6414
13.7696
13.9755
14.2988
14.801
15.5793
16.7831
13.5028
13.5217
13.5644
13.6413
13.7696
13.9754
14.2988
14.801
15.5793
16.783
13.5028
13.5217
13.5644
13.6413
13.7695
13.9754
14.2987
14.801
15.5792
16.783
13.5027
13.5216
13.5644
13.6413
13.7695
13.9754
14.2987
14.8009
15.5792
16.783
13.5027
13.5216
13.5643
13.6413
13.7695
13.9753
14.2987
14.8009
15.5792
16.783
13.5027
13.5216
13.5643
13.6413
13.7695
13.9753
14.2987
14.8009
15.5792
16.783
13.5027
13.5216
13.5644
13.6413
13.7695
13.9754
14.2987
14.8009
15.5792
16.783
13.5027
13.5216
13.5644
13.6413
13.7695
13.9754
14.2987
14.801
15.5792
16.783
13.5028
13.5217
13.5644
13.6413
13.7696
13.9754
14.2988
14.801
15.5793
16.7831
13.5028
13.5217
13.5645
13.6414
13.7696
13.9755
14.2988
14.8011
15.5793
16.7831
11.507
11.528
11.5744
11.6553
11.7856
11.9878
12.2962
12.7666
13.5072
14.7914
11.5069
11.5279
11.5744
11.6553
11.7856
11.9878
12.2961
12.7665
13.5071
14.7914
11.5069
11.5279
11.5743
11.6552
11.7855
11.9878
12.2961
12.7665
13.5071
14.7913
11.5069
11.5279
11.5743
11.6552
11.7855
11.9877
12.2961
12.7665
13.5071
14.7913
11.5069
11.5279
11.5743
11.6552
11.7855
11.9877
12.2961
12.7665
13.507
14.7913
11.5069
11.5279
11.5743
11.6552
11.7855
11.9877
12.2961
12.7665
13.5071
14.7913
11.5069
11.5279
11.5743
11.6552
11.7855
11.9877
12.2961
12.7665
13.5071
14.7913
11.5069
11.5279
11.5743
11.6552
11.7855
11.9878
12.2961
12.7665
13.5071
14.7913
11.5069
11.5279
11.5744
11.6553
11.7856
11.9878
12.2962
12.7666
13.5071
14.7914
11.507
11.528
11.5744
11.6553
11.7856
11.9878
12.2962
12.7666
13.5072
14.7914
34.332
33.3747
34.0612
36.1661
39.6759
44.7152
51.5492
60.6483
72.8647
89.904
34.3319
33.3746
34.0611
36.166
39.6758
44.7151
51.5491
60.6482
72.8646
89.9039
34.3319
33.3745
34.061
36.1659
39.6757
44.715
51.549
60.6481
72.8645
89.9038
34.3318
33.3745
34.061
36.1659
39.6757
44.7149
51.5489
60.648
72.8644
89.9037
34.3318
33.3744
34.0609
36.1658
39.6756
44.7149
51.5489
60.6479
72.8644
89.9037
34.3318
33.3744
34.0609
36.1658
39.6756
44.7149
51.5488
60.6479
72.8644
89.9037
34.3318
33.3744
34.0609
36.1658
39.6756
44.7149
51.5489
60.648
72.8644
89.9037
34.3319
33.3745
34.061
36.1659
39.6757
44.715
51.5489
60.648
72.8644
89.9037
34.3319
33.3745
34.061
36.1659
39.6757
44.715
51.549
60.6481
72.8645
89.9038
34.332
33.3746
34.0611
36.166
39.6758
44.7151
51.5491
60.6482
72.8646
89.9039
32.5135
32.3119
33.2735
35.44
38.8725
43.6931
50.102
58.3925
68.9443
82.0688
32.5134
32.3118
33.2734
35.4399
38.8724
43.693
50.1019
58.3924
68.9441
82.0686
32.5133
32.3118
33.2733
35.4398
38.8723
43.6929
50.1018
58.3923
68.944
82.0685
32.5133
32.3117
33.2732
35.4397
38.8723
43.6928
50.1017
58.3922
68.9439
82.0684
32.5132
32.3117
33.2732
35.4397
38.8722
43.6928
50.1017
58.3922
68.9439
82.0684
32.5132
32.3117
33.2732
35.4397
38.8722
43.6928
50.1017
58.3922
68.9439
82.0684
32.5133
32.3117
33.2732
35.4397
38.8722
43.6928
50.1017
58.3922
68.9439
82.0684
32.5133
32.3117
33.2733
35.4397
38.8723
43.6929
50.1017
58.3923
68.944
82.0685
32.5133
32.3118
33.2733
35.4398
38.8723
43.6929
50.1018
58.3923
68.9441
82.0686
32.5134
32.3119
33.2734
35.4399
38.8724
43.693
50.1019
58.3925
68.9442
82.0687
30.2737
30.6689
31.9109
34.1249
37.4048
41.8524
47.5876
54.7332
63.3492
73.2484
30.2736
30.6688
31.9108
34.1248
37.4047
41.8522
47.5875
54.7331
63.3491
73.2483
30.2735
30.6688
31.9108
34.1247
37.4046
41.8521
47.5874
54.733
63.349
73.2482
30.2735
30.6687
31.9107
34.1247
37.4045
41.8521
47.5874
54.733
63.3489
73.2481
30.2735
30.6687
31.9107
34.1246
37.4045
41.8521
47.5873
54.7329
63.3489
73.2481
30.2735
30.6687
31.9107
34.1246
37.4045
41.8521
47.5873
54.7329
63.3489
73.2481
30.2735
30.6687
31.9107
34.1246
37.4045
41.8521
47.5873
54.7329
63.3489
73.2481
30.2735
30.6687
31.9107
34.1247
37.4045
41.8521
47.5874
54.733
63.349
73.2482
30.2736
30.6688
31.9108
34.1248
37.4046
41.8522
47.5875
54.7331
63.3491
73.2483
30.2736
30.6689
31.9109
34.1248
37.4047
41.8523
47.5876
54.7332
63.3492
73.2484
27.9713
28.7621
30.2043
32.4172
35.488
39.4876
44.4705
50.4533
57.3604
64.9251
27.9712
28.762
30.2042
32.4171
35.4879
39.4875
44.4704
50.4532
57.3603
64.925
27.9712
28.7619
30.2041
32.4171
35.4879
39.4874
44.4703
50.4531
57.3602
64.9249
27.9711
28.7619
30.204
32.417
35.4878
39.4874
44.4703
50.453
57.3601
64.9248
27.9711
28.7619
30.204
32.417
35.4878
39.4873
44.4702
50.453
57.3601
64.9248
27.9711
28.7619
30.204
32.417
35.4878
39.4873
44.4702
50.453
57.3601
64.9248
27.9711
28.7619
30.204
32.417
35.4878
39.4874
44.4703
50.453
57.3601
64.9248
27.9712
28.7619
30.2041
32.417
35.4878
39.4874
44.4703
50.4531
57.3602
64.9249
27.9712
28.762
30.2041
32.4171
35.4879
39.4875
44.4704
50.4532
57.3603
64.925
27.9713
28.7621
30.2042
32.4172
35.488
39.4876
44.4705
50.4533
57.3604
64.9251
25.7333
26.784
28.3501
30.5191
33.3541
36.8948
41.1513
46.0874
51.5905
57.4339
25.7332
26.7839
28.35
30.519
33.354
36.8947
41.1512
46.0873
51.5904
57.4338
25.7331
26.7838
28.3499
30.5189
33.3539
36.8946
41.1511
46.0872
51.5903
57.4337
25.7331
26.7838
28.3499
30.5189
33.3539
36.8945
41.151
46.0871
51.5902
57.4336
25.7331
26.7838
28.3499
30.5189
33.3539
36.8945
41.151
46.0871
51.5902
57.4336
25.7331
26.7838
28.3499
30.5189
33.3538
36.8945
41.151
46.0871
51.5902
57.4336
25.7331
26.7838
28.3499
30.5189
33.3539
36.8945
41.151
46.0871
51.5902
57.4336
25.7331
26.7838
28.3499
30.5189
33.3539
36.8946
41.1511
46.0872
51.5903
57.4337
25.7332
26.7839
28.35
30.519
33.354
36.8946
41.1512
46.0873
51.5904
57.4338
25.7333
26.784
28.3501
30.5191
33.3541
36.8948
41.1513
46.0874
51.5905
57.4339
23.6277
24.865
26.5096
28.6146
31.2171
34.3308
37.938
41.9788
46.3406
50.8531
23.6276
24.8649
26.5095
28.6145
31.217
34.3307
37.9379
41.9787
46.3405
50.853
23.6275
24.8648
26.5094
28.6144
31.2169
34.3306
37.9378
41.9786
46.3404
50.8529
23.6275
24.8648
26.5094
28.6144
31.2168
34.3306
37.9378
41.9786
46.3403
50.8529
23.6275
24.8648
26.5093
28.6143
31.2168
34.3306
37.9378
41.9786
46.3403
50.8528
23.6275
24.8648
26.5093
28.6143
31.2168
34.3306
37.9378
41.9786
46.3403
50.8528
23.6275
24.8648
26.5094
28.6143
31.2168
34.3306
37.9378
41.9786
46.3403
50.8529
23.6275
24.8648
26.5094
28.6144
31.2169
34.3306
37.9378
41.9786
46.3404
50.8529
23.6276
24.8649
26.5095
28.6145
31.217
34.3307
37.9379
41.9787
46.3405
50.853
23.6277
24.865
26.5095
28.6146
31.2171
34.3308
37.938
41.9788
46.3406
50.8532
21.7026
23.1049
24.8166
26.8629
29.2612
32.0067
35.0634
38.3579
41.7817
45.2064
21.7025
23.1048
24.8165
26.8628
29.2611
32.0066
35.0632
38.3578
41.7816
45.2063
21.7025
23.1047
24.8165
26.8628
29.261
32.0065
35.0632
38.3577
41.7815
45.2062
21.7024
23.1047
24.8164
26.8627
29.261
32.0065
35.0631
38.3576
41.7814
45.2061
21.7024
23.1047
24.8164
26.8627
29.2609
32.0065
35.0631
38.3576
41.7814
45.2061
21.7024
23.1047
24.8164
26.8627
29.2609
32.0065
35.0631
38.3576
41.7814
45.2061
21.7024
23.1047
24.8164
26.8627
29.261
32.0065
35.0631
38.3576
41.7814
45.2061
21.7025
23.1047
24.8165
26.8628
29.261
32.0065
35.0632
38.3577
41.7815
45.2062
21.7025
23.1048
24.8165
26.8628
29.2611
32.0066
35.0633
38.3578
41.7816
45.2063
21.7026
23.1049
24.8166
26.8629
29.2612
32.0067
35.0634
38.3579
41.7817
45.2064
19.9979
21.5913
23.3875
25.4002
27.6402
30.0932
32.7095
35.4
38.0442
40.5203
19.9978
21.5912
23.3874
25.4001
27.6401
30.0931
32.7094
35.3999
38.0441
40.5202
19.9977
21.5911
23.3874
25.4001
27.64
30.0931
32.7093
35.3998
38.044
40.5201
19.9977
21.5911
23.3873
25.4
27.64
30.093
32.7093
35.3998
38.044
40.52
19.9977
21.5911
23.3873
25.4
27.64
30.093
32.7092
35.3998
38.0439
40.52
19.9977
21.5911
23.3873
25.4
27.64
30.093
32.7092
35.3998
38.0439
40.52
19.9977
21.5911
23.3873
25.4
27.64
30.093
32.7093
35.3998
38.044
40.5201
19.9977
21.5911
23.3874
25.4001
27.64
30.0931
32.7093
35.3999
38.044
40.5201
19.9978
21.5912
23.3875
25.4001
27.6401
30.0932
32.7094
35.4
38.0441
40.5202
19.9979
21.5913
23.3875
25.4002
27.6402
30.0933
32.7095
35.4001
38.0442
40.5203
18.563
20.4198
22.331
24.3421
26.4791
28.7279
31.0278
33.266
35.2782
36.8723
18.5629
20.4197
22.3309
24.342
26.479
28.7278
31.0277
33.2659
35.2781
36.8722
18.5629
20.4197
22.3309
24.3419
26.4789
28.7278
31.0276
33.2658
35.278
36.8721
18.5628
20.4196
22.3308
24.3419
26.4789
28.7277
31.0276
33.2658
35.278
36.8721
18.5628
20.4196
22.3308
24.3419
26.4788
28.7277
31.0276
33.2658
35.278
36.872
18.5628
20.4196
22.3308
24.3419
26.4788
28.7277
31.0276
33.2658
35.278
36.872
18.5628
20.4196
22.3308
24.3419
26.4789
28.7277
31.0276
33.2658
35.278
36.8721
18.5629
20.4197
22.3309
24.342
26.4789
28.7278
31.0277
33.2658
35.2781
36.8721
18.5629
20.4197
22.3309
24.342
26.479
28.7279
31.0277
33.2659
35.2782
36.8722
18.563
20.4198
22.331
24.3421
26.4791
28.728
31.0278
33.266
35.2783
36.8724
17.537
19.7284
21.7554
23.7829
25.8718
28.0151
30.1449
32.1234
33.7177
34.5286
17.5369
19.7283
21.7554
23.7828
25.8717
28.0151
30.1448
32.1233
33.7176
34.5285
17.5369
19.7283
21.7553
23.7827
25.8716
28.015
30.1447
32.1232
33.7176
34.5285
17.5369
19.7283
21.7553
23.7827
25.8716
28.015
30.1447
32.1232
33.7175
34.5284
17.5368
19.7282
21.7553
23.7827
25.8716
28.0149
30.1446
32.1232
33.7175
34.5284
17.5369
19.7282
21.7553
23.7827
25.8716
28.015
30.1447
32.1232
33.7175
34.5284
17.5369
19.7283
21.7553
23.7827
25.8716
28.015
30.1447
32.1232
33.7175
34.5284
17.5369
19.7283
21.7553
23.7828
25.8716
28.015
30.1447
32.1233
33.7176
34.5285
17.537
19.7284
21.7554
23.7828
25.8717
28.0151
30.1448
32.1233
33.7177
34.5286
17.537
19.7284
21.7555
23.7829
25.8718
28.0152
30.1449
32.1235
33.7178
34.5287
115.718
127.988
135.504
140.762
144.651
147.568
149.73
151.263
152.247
152.728
115.718
127.988
135.504
140.762
144.651
147.568
149.73
151.263
152.246
152.728
115.718
127.988
135.504
140.762
144.651
147.568
149.73
151.263
152.246
152.728
115.718
127.988
135.504
140.762
144.65
147.568
149.729
151.262
152.246
152.727
115.718
127.987
135.504
140.762
144.65
147.568
149.729
151.262
152.246
152.727
115.718
127.987
135.504
140.762
144.65
147.568
149.729
151.262
152.246
152.727
115.718
127.987
135.504
140.762
144.65
147.568
149.729
151.263
152.246
152.727
115.718
127.988
135.504
140.762
144.651
147.568
149.73
151.263
152.246
152.728
115.718
127.988
135.504
140.762
144.651
147.568
149.73
151.263
152.247
152.728
115.718
127.988
135.504
140.762
144.651
147.568
149.73
151.263
152.247
152.728
97.1135
108.058
115.794
121.404
125.567
128.675
130.965
132.582
133.616
134.121
97.1134
108.058
115.793
121.404
125.567
128.675
130.965
132.582
133.616
134.121
97.1133
108.058
115.793
121.404
125.567
128.675
130.965
132.582
133.616
134.121
97.1132
108.058
115.793
121.404
125.567
128.675
130.965
132.582
133.616
134.121
97.1132
108.058
115.793
121.404
125.567
128.675
130.965
132.582
133.616
134.121
97.1132
108.058
115.793
121.404
125.567
128.675
130.965
132.582
133.616
134.121
97.1132
108.058
115.793
121.404
125.567
128.675
130.965
132.582
133.616
134.121
97.1133
108.058
115.793
121.404
125.567
128.675
130.965
132.582
133.616
134.121
97.1134
108.058
115.793
121.404
125.567
128.675
130.965
132.582
133.616
134.121
97.1135
108.058
115.794
121.404
125.567
128.675
130.965
132.582
133.616
134.121
83.5765
92.3331
99.2246
104.532
108.592
111.67
113.955
115.574
116.612
117.119
83.5764
92.333
99.2244
104.532
108.592
111.67
113.955
115.574
116.612
117.119
83.5763
92.3329
99.2243
104.532
108.592
111.67
113.955
115.574
116.612
117.119
83.5762
92.3328
99.2243
104.532
108.592
111.67
113.955
115.574
116.612
117.119
83.5762
92.3328
99.2242
104.532
108.592
111.67
113.955
115.574
116.612
117.119
83.5762
92.3327
99.2242
104.532
108.592
111.67
113.955
115.574
116.612
117.119
83.5762
92.3328
99.2243
104.532
108.592
111.67
113.955
115.574
116.612
117.119
83.5763
92.3329
99.2243
104.532
108.592
111.67
113.955
115.574
116.612
117.119
83.5764
92.333
99.2244
104.532
108.592
111.67
113.955
115.574
116.612
117.119
83.5765
92.3331
99.2246
104.532
108.592
111.67
113.955
115.574
116.612
117.119
72.5696
79.4599
85.2514
89.9401
93.6503
96.5258
98.6902
100.238
101.235
101.723
72.5694
79.4597
85.2513
89.9399
93.6502
96.5257
98.69
100.238
101.235
101.723
72.5693
79.4596
85.2512
89.9398
93.65
96.5256
98.6899
100.237
101.235
101.723
72.5692
79.4595
85.2511
89.9397
93.65
96.5255
98.6898
100.237
101.234
101.723
72.5692
79.4595
85.2511
89.9397
93.6499
96.5255
98.6898
100.237
101.234
101.723
72.5692
79.4595
85.2511
89.9397
93.6499
96.5255
98.6898
100.237
101.234
101.723
72.5692
79.4595
85.2511
89.9397
93.65
96.5255
98.6899
100.237
101.234
101.723
72.5693
79.4596
85.2512
89.9398
93.6501
96.5256
98.6899
100.237
101.235
101.723
72.5694
79.4597
85.2513
89.9399
93.6502
96.5257
98.6901
100.238
101.235
101.723
72.5695
79.4599
85.2514
89.9401
93.6503
96.5259
98.6902
100.238
101.235
101.723
63.2602
68.6571
73.3777
77.3449
80.5803
83.1452
85.1074
86.5263
87.4472
87.9002
63.2601
68.657
73.3776
77.3447
80.5801
83.145
85.1073
86.5262
87.4471
87.9001
63.26
68.6569
73.3775
77.3446
80.58
83.1449
85.1072
86.5261
87.447
87.9
63.2599
68.6568
73.3774
77.3445
80.5799
83.1449
85.1071
86.526
87.4469
87.9
63.2599
68.6567
73.3774
77.3445
80.5799
83.1448
85.1071
86.526
87.4469
87.9
63.2599
68.6568
73.3774
77.3445
80.5799
83.1448
85.1071
86.526
87.4469
87.9
63.2599
68.6568
73.3774
77.3446
80.5799
83.1449
85.1071
86.526
87.4469
87.9
63.26
68.6569
73.3775
77.3446
80.58
83.145
85.1072
86.5261
87.447
87.9001
63.2601
68.657
73.3776
77.3447
80.5801
83.1451
85.1073
86.5262
87.4472
87.9002
63.2602
68.6571
73.3777
77.3449
80.5803
83.1452
85.1075
86.5264
87.4473
87.9004
55.3035
59.4804
63.2309
66.4756
69.1928
71.3945
73.1077
74.3619
75.1828
75.5886
55.3033
59.4802
63.2307
66.4755
69.1926
71.3944
73.1076
74.3618
75.1827
75.5885
55.3032
59.4801
63.2306
66.4754
69.1925
71.3943
73.1075
74.3617
75.1826
75.5884
55.3032
59.4801
63.2306
66.4753
69.1925
71.3942
73.1074
74.3616
75.1825
75.5883
55.3031
59.48
63.2305
66.4753
69.1924
71.3942
73.1074
74.3616
75.1825
75.5883
55.3031
59.48
63.2305
66.4753
69.1925
71.3942
73.1074
74.3616
75.1825
75.5883
55.3032
59.4801
63.2306
66.4753
69.1925
71.3942
73.1074
74.3617
75.1825
75.5884
55.3032
59.4801
63.2306
66.4754
69.1926
71.3943
73.1075
74.3617
75.1826
75.5885
55.3033
59.4802
63.2307
66.4755
69.1927
71.3944
73.1076
74.3619
75.1827
75.5886
55.3035
59.4804
63.2309
66.4756
69.1928
71.3946
73.1078
74.362
75.1829
75.5887
48.5185
51.6523
54.5333
57.0963
59.2998
61.1256
62.5716
63.6443
64.3528
64.7049
48.5184
51.6522
54.5332
57.0962
59.2997
61.1254
62.5715
63.6442
64.3527
64.7048
48.5183
51.6521
54.5331
57.0961
59.2996
61.1253
62.5714
63.6441
64.3526
64.7047
48.5182
51.6521
54.5331
57.096
59.2995
61.1253
62.5713
63.644
64.3526
64.7047
48.5182
51.652
54.533
57.096
59.2995
61.1253
62.5713
63.644
64.3525
64.7047
48.5182
51.652
54.533
57.096
59.2995
61.1253
62.5713
63.644
64.3525
64.7047
48.5183
51.6521
54.5331
57.0961
59.2995
61.1253
62.5713
63.6441
64.3526
64.7047
48.5183
51.6521
54.5331
57.0961
59.2996
61.1254
62.5714
63.6441
64.3527
64.7048
48.5184
51.6522
54.5332
57.0962
59.2997
61.1255
62.5715
63.6443
64.3528
64.7049
48.5185
51.6524
54.5334
57.0964
59.2999
61.1256
62.5717
63.6444
64.3529
64.7051
42.7824
44.9675
47.0622
49.0012
50.7237
52.1881
53.3709
54.2611
54.8548
55.1515
42.7823
44.9673
47.062
49.0011
50.7236
52.188
53.3708
54.2609