/*--------------------------------*- C++ -*----------------------------------*\
  =========                 |
  \\      /  F ield         | OpenFOAM: The Open Source CFD Toolbox
   \\    /   O peration     | Website:  https://openfoam.org
    \\  /    A nd           | Version:  6
     \\/     M anipulation  |
\*---------------------------------------------------------------------------*/
FoamFile
{
    version     2.0;
    format      ascii;
    class       volScalarField;
    location    "700";
    object      p;
}
// * * * * * * * * * * * * * * * * * * * * * * * * * * * * * * * * * * * * * //

dimensions      [0 2 -2 0 0 0 0];

internalField   nonuniform List<scalar> 
7000
(
0.0399339
0.0376994
0.0371809
0.0369562
0.036851
0.0368747
0.0370251
0.037288
0.0378367
0.0401134
0.0376677
0.0354306
0.0349123
0.0346866
0.0345796
0.0346014
0.0347499
0.0350109
0.0355568
0.0378328
0.0371255
0.0348888
0.0343697
0.0341431
0.0340351
0.0340556
0.0342029
0.0344627
0.0350078
0.037281
0.0368701
0.0346324
0.0341127
0.0338851
0.0337759
0.033795
0.0339408
0.0341992
0.0347432
0.0370148
0.0367277
0.0344889
0.0339682
0.0337396
0.0336289
0.0336464
0.0337906
0.0340477
0.0345907
0.0368608
0.0367115
0.0344716
0.03395
0.0337202
0.0336081
0.0336241
0.0337668
0.0340226
0.0345646
0.0368333
0.0368232
0.0345822
0.0340598
0.0338289
0.0337155
0.0337301
0.0338715
0.0341262
0.0346674
0.036935
0.0370527
0.0348107
0.0342877
0.0340558
0.0339413
0.0339549
0.0340953
0.0343493
0.0348899
0.0371569
0.0375746
0.0353307
0.0348074
0.0345749
0.0344598
0.0344726
0.0346124
0.0348659
0.0354062
0.0376739
0.0398134
0.0375703
0.0370453
0.036812
0.0366962
0.0367084
0.0368475
0.0371008
0.0376418
0.039907
0.0369834
0.0355802
0.0356043
0.035385
0.0352801
0.0353067
0.0354631
0.0357272
0.0357312
0.0371864
0.0355426
0.0341373
0.0341636
0.033942
0.0338348
0.0338588
0.0340126
0.0342746
0.0342732
0.0357253
0.0355453
0.0341423
0.0341672
0.0339447
0.0338363
0.033859
0.0340114
0.034272
0.0342706
0.0357174
0.0352917
0.0338869
0.033911
0.0336875
0.0335775
0.0335984
0.0337488
0.0340075
0.0340049
0.0354496
0.035146
0.0337395
0.0337627
0.0335378
0.0334261
0.033445
0.0335934
0.0338503
0.0338466
0.0352889
0.0351291
0.0337211
0.0337434
0.0335172
0.0334037
0.0334207
0.0335673
0.0338226
0.0338179
0.0352579
0.0352425
0.0338332
0.0338547
0.0336271
0.0335122
0.0335276
0.0336725
0.0339264
0.033921
0.0353591
0.0354687
0.0340587
0.0340796
0.0338508
0.0337346
0.0337487
0.0338925
0.0341457
0.0341399
0.0355763
0.035448
0.0340341
0.0340556
0.0338262
0.0337095
0.0337231
0.0338663
0.0341192
0.0341124
0.0355514
0.0368566
0.035442
0.0354597
0.0352299
0.0351122
0.0351248
0.0352671
0.035519
0.035515
0.0369522
0.0345126
0.0337078
0.034057
0.0338574
0.0338135
0.0338464
0.0339544
0.0342117
0.0338943
0.0347693
0.033661
0.0328572
0.0332105
0.0330069
0.0329599
0.032989
0.0330926
0.0333473
0.0330207
0.0338868
0.0339887
0.0331891
0.0335399
0.0333356
0.0332871
0.0333145
0.0334163
0.0336688
0.0333428
0.0341998
0.0337483
0.0329453
0.0332955
0.0330897
0.0330391
0.0330639
0.0331629
0.0334125
0.0330845
0.0339388
0.0336564
0.0328516
0.0332006
0.032993
0.0329399
0.032962
0.0330582
0.0333051
0.0329757
0.0338255
0.033638
0.0328311
0.0331791
0.0329696
0.0329142
0.0329338
0.0330274
0.033272
0.0329414
0.0337875
0.0336945
0.0328855
0.0332327
0.0330215
0.0329641
0.0329815
0.0330729
0.0333156
0.032984
0.0338274
0.0339047
0.0330956
0.0334417
0.0332289
0.0331699
0.0331856
0.0332754
0.033517
0.0331853
0.0340252
0.0335606
0.0327452
0.033093
0.0328793
0.0328197
0.0328349
0.0329239
0.0331655
0.0328321
0.0336772
0.0343738
0.0335536
0.0338953
0.0336817
0.0336206
0.0336345
0.0337228
0.0339622
0.0336344
0.0344807
0.0332324
0.0326602
0.0330337
0.0328267
0.03286
0.0329035
0.0329547
0.0332406
0.0329089
0.0335791
0.0326014
0.0320323
0.03241
0.0321968
0.0322262
0.0322638
0.0323071
0.0325888
0.0322446
0.0328975
0.03295
0.0323854
0.0327595
0.0325455
0.0325726
0.0326076
0.0326481
0.0329257
0.0325823
0.0332222
0.0326915
0.0321218
0.0324954
0.0322791
0.0323029
0.032334
0.0323702
0.0326434
0.0322963
0.0329312
0.0326654
0.0320938
0.0324657
0.0322467
0.032267
0.032294
0.032326
0.0325951
0.0322457
0.0328723
0.0326445
0.03207
0.0324405
0.0322189
0.0322359
0.0322593
0.0322875
0.0325531
0.032202
0.0328226
0.0326303
0.0320521
0.0324217
0.0321977
0.032212
0.0322323
0.0322573
0.0325202
0.032168
0.0327852
0.0328537
0.0322758
0.0326436
0.0324175
0.0324295
0.0324475
0.0324702
0.0327314
0.0323795
0.0329916
0.0324886
0.0319034
0.0322739
0.0320462
0.0320577
0.032075
0.032097
0.0323587
0.0320046
0.0326223
0.0330736
0.0324799
0.0328433
0.0326164
0.0326252
0.032641
0.0326632
0.0329218
0.0325743
0.0331981
0.0323498
0.0318919
0.0322146
0.0320006
0.0320914
0.0321508
0.0321743
0.0324981
0.0322351
0.0328317
0.0318182
0.0313645
0.0316903
0.0314676
0.0315531
0.0316034
0.0316142
0.03193
0.0316494
0.0322177
0.0321098
0.0316598
0.0319807
0.0317568
0.0318387
0.0318848
0.0318909
0.0322
0.031919
0.0324686
0.0318293
0.0313723
0.0316925
0.0314649
0.0315419
0.0315819
0.0315813
0.0318834
0.0315959
0.0321354
0.0318444
0.0313852
0.031703
0.0314714
0.0315431
0.0315772
0.0315699
0.0318655
0.0315745
0.0320994
0.03182
0.0313568
0.0316726
0.0314372
0.0315043
0.0315329
0.03152
0.0318103
0.0315171
0.0320322
0.0317578
0.031289
0.0316036
0.0313648
0.031428
0.0314522
0.0314349
0.0317214
0.031427
0.0319376
0.0319962
0.0315278
0.0318397
0.0315981
0.0316581
0.0316791
0.0316586
0.0319425
0.0316493
0.0321528
0.0316867
0.0312108
0.0315262
0.0312824
0.0313418
0.031362
0.0313406
0.0316255
0.0313292
0.0318408
0.0321636
0.0316763
0.0319846
0.031742
0.0317975
0.0318164
0.0317966
0.0320781
0.0317913
0.0323147
0.0313842
0.0310436
0.031346
0.0311515
0.0312859
0.0313677
0.0313905
0.0317393
0.0315244
0.0320701
0.0309514
0.0306162
0.0309201
0.0307143
0.0308408
0.0309088
0.0309119
0.0312456
0.0310052
0.031502
0.0312139
0.0308812
0.031179
0.0309712
0.031092
0.0311535
0.0311491
0.0314718
0.0312277
0.0316943
0.0309335
0.0305919
0.0308886
0.0306751
0.0307887
0.0308411
0.0308259
0.0311374
0.0308824
0.0313269
0.0309699
0.0306254
0.0309185
0.0306993
0.0308053
0.0308487
0.0308233
0.0311246
0.0308636
0.0312824
0.0309412
0.0305912
0.0308815
0.0306569
0.0307561
0.0307915
0.0307579
0.0310516
0.0307877
0.0311905
0.0308491
0.0304915
0.0307802
0.0305508
0.0306445
0.0306737
0.0306339
0.0309226
0.0306579
0.0310547
0.0310789
0.0307209
0.0310061
0.030773
0.0308623
0.0308869
0.0308429
0.031128
0.0308649
0.0312555
0.030796
0.0304305
0.0307197
0.0304837
0.0305724
0.0305961
0.0305512
0.0308372
0.0305722
0.0309733
0.0311648
0.0307842
0.0310663
0.0308314
0.0309155
0.0309384
0.030897
0.0311817
0.0309289
0.0313561
0.0303554
0.0301279
0.0304257
0.0302699
0.0304443
0.0305572
0.0306
0.0309741
0.0308094
0.0313492
0.030013
0.029792
0.0300893
0.029919
0.0300817
0.0301743
0.0301874
0.0305346
0.0303289
0.0307835
0.0302593
0.0300392
0.0303292
0.0301558
0.0303102
0.0303928
0.0303939
0.0307232
0.0305063
0.0309084
0.0299927
0.0297619
0.03005
0.0298684
0.0300125
0.0300816
0.0300659
0.0303768
0.0301407
0.0304954
0.0300402
0.029805
0.0300881
0.0298985
0.0300318
0.0300876
0.0300564
0.0303506
0.0301038
0.0304129
0.0300064
0.0297638
0.0300431
0.0298458
0.0299694
0.0300138
0.0299704
0.0302532
0.0300035
0.0302878
0.0298935
0.0296411
0.0299181
0.0297142
0.02983
0.0298656
0.0298138
0.0300899
0.0298417
0.030121
0.0300993
0.0298451
0.0301175
0.0299087
0.0300182
0.0300474
0.0299899
0.0302606
0.0300173
0.0302946
0.0298293
0.0295674
0.029844
0.0296314
0.0297402
0.0297682
0.0297093
0.0299815
0.0297359
0.0300317
0.0300969
0.029816
0.0300858
0.0298738
0.0299774
0.0300057
0.0299537
0.0302283
0.030003
0.0303544
0.0293618
0.0292249
0.0295115
0.0294
0.0296141
0.0297685
0.0298534
0.030276
0.0302036
0.0308298
0.0290826
0.0289526
0.029236
0.0291069
0.0293039
0.0294293
0.0294706
0.0298473
0.0297059
0.030196
0.0293031
0.0291718
0.0294468
0.0293128
0.0294981
0.0296088
0.0296311
0.0299781
0.0298113
0.0301934
0.0290502
0.0289063
0.0291783
0.0290329
0.0292038
0.0292949
0.0292915
0.0296087
0.0294053
0.0296841
0.0291002
0.0289498
0.029215
0.0290586
0.0292143
0.029286
0.0292593
0.0295503
0.0293277
0.0295234
0.0290608
0.0289005
0.0291604
0.0289935
0.0291355
0.029191
0.0291467
0.0294218
0.0291972
0.0293616
0.0289345
0.0287618
0.0290185
0.0288423
0.0289735
0.0290168
0.0289608
0.029228
0.0290117
0.029185
0.0291154
0.0289388
0.0291897
0.0290067
0.029129
0.029163
0.0290994
0.0293595
0.0291526
0.0293394
0.0288671
0.028683
0.028938
0.0287504
0.0288716
0.0289038
0.0288378
0.0290979
0.0288884
0.029111
0.0290602
0.0288529
0.0291016
0.0289135
0.0290295
0.0290639
0.02901
0.0292803
0.0291054
0.0294163
0.028405
0.0283406
0.028612
0.0285486
0.0288037
0.0290119
0.0291623
0.0296676
0.0297358
0.0305716
0.0281664
0.0281088
0.0283738
0.0282891
0.0285209
0.0286896
0.0287785
0.0292083
0.0291714
0.0297745
0.0283541
0.0282924
0.028548
0.0284562
0.0286723
0.0288206
0.0288811
0.029265
0.0291703
0.0295624
0.0281125
0.0280361
0.028287
0.0281802
0.028377
0.0284979
0.0285209
0.028856
0.0286939
0.028885
0.0281579
0.0280721
0.0283141
0.0281926
0.0283684
0.0284622
0.0284509
0.0287435
0.0285477
0.0286075
0.0281124
0.0280137
0.0282488
0.0281129
0.02827
0.028341
0.0283046
0.0285728
0.0283799
0.0284307
0.0279793
0.0278652
0.0280958
0.0279472
0.0280894
0.0281432
0.0280906
0.0283484
0.0281812
0.0282929
0.0281369
0.028016
0.0282393
0.0280814
0.0282107
0.028251
0.0281865
0.0284343
0.0282882
0.028447
0.027917
0.0277886
0.0280156
0.0278517
0.0279788
0.0280152
0.0279455
0.0281915
0.0280452
0.0282401
0.0280569
0.0279016
0.0281228
0.0279572
0.0280791
0.0281203
0.0280707
0.0283396
0.0282295
0.0285573
0.0274396
0.02744
0.0277006
0.0276913
0.0279917
0.0282665
0.0285022
0.0291111
0.0294268
0.030636
0.0272302
0.0272369
0.027488
0.0274543
0.0277249
0.0279494
0.0281036
0.0286044
0.0287517
0.0296836
0.027387
0.0273868
0.0276274
0.0275841
0.0278351
0.0280327
0.0281468
0.0285806
0.0286129
0.0290468
0.0271571
0.0271399
0.027374
0.0273118
0.0275376
0.027699
0.0277605
0.0281216
0.0280577
0.0280863
0.0271936
0.0271636
0.0273864
0.0273049
0.0275027
0.0276268
0.0276394
0.0279431
0.027846
0.0276712
0.0271422
0.0270955
0.0273092
0.0272085
0.027381
0.0274735
0.0274514
0.0277269
0.0276669
0.0275789
0.0270065
0.026941
0.0271485
0.0270308
0.0271825
0.0272507
0.0272052
0.0274688
0.0274761
0.0276146
0.0271405
0.0270645
0.0272628
0.0271318
0.0272653
0.0273129
0.0272478
0.0274939
0.0275267
0.0277213
0.0269472
0.0268637
0.0270649
0.0269261
0.0270548
0.0270942
0.0270188
0.0272476
0.027255
0.0274632
0.0270461
0.0269316
0.0271274
0.0269849
0.0271082
0.0271558
0.0271087
0.0273666
0.0273966
0.0276804
0.0264369
0.0264989
0.0267551
0.0268059
0.0271558
0.0275075
0.0278425
0.02853
0.0290389
0.0307092
0.0262513
0.0263194
0.0265633
0.0265876
0.0269032
0.027197
0.0274336
0.0279935
0.0282463
0.0293732
0.0263821
0.0264403
0.0266731
0.0266856
0.0269783
0.0272405
0.0274287
0.0279062
0.0280227
0.0283124
0.0261652
0.0262043
0.0264288
0.0264184
0.0266802
0.026898
0.0270199
0.027405
0.0274404
0.027205
0.0261914
0.0262136
0.0264243
0.0263893
0.0266151
0.0267847
0.0268432
0.0271537
0.0272045
0.0267445
0.0261344
0.026136
0.0263349
0.0262751
0.0264674
0.0265947
0.0266061
0.0268802
0.0270335
0.0267955
0.0259989
0.0259779
0.0261684
0.0260859
0.0262499
0.0263422
0.026318
0.0265696
0.0268205
0.0270157
0.0261087
0.0260727
0.0262516
0.0261506
0.0262884
0.0263484
0.0262881
0.026494
0.0267256
0.0269057
0.0259378
0.0258938
0.0260742
0.0259626
0.0260907
0.0261337
0.0260469
0.0262064
0.0263386
0.0265862
0.026002
0.025923
0.0260982
0.0259798
0.026101
0.026152
0.0261024
0.0262916
0.0263854
0.0267527
0.0253827
0.0255026
0.0257583
0.0258722
0.0262743
0.026706
0.0271399
0.027848
0.0281036
0.0289331
0.0252173
0.0253439
0.0255858
0.0256736
0.0260416
0.0264174
0.026747
0.0273226
0.0273058
0.0266601
0.0253262
0.0254403
0.025671
0.0257456
0.0260901
0.0264353
0.0267227
0.0272345
0.0272125
0.0261214
0.0251233
0.0252165
0.0254372
0.0254855
0.0257942
0.0260889
0.0263058
0.026721
0.0267062
0.0258739
0.0251392
0.0252113
0.0254156
0.0254334
0.0256968
0.02593
0.0260702
0.0263843
0.0264773
0.0263934
0.025078
0.025125
0.0253145
0.0253006
0.0255194
0.0256942
0.0257647
0.0260019
0.0262009
0.0268596
0.0249452
0.0249656
0.0251438
0.0251001
0.0252799
0.025402
0.0254068
0.025574
0.0257653
0.0266597
0.0250321
0.0250325
0.0251962
0.025127
0.0252693
0.0253407
0.0252784
0.0253396
0.0254024
0.0258028
0.0248815
0.0248732
0.0250366
0.0249526
0.0250774
0.0251178
0.0250073
0.0249788
0.0248501
0.0251184
0.0249175
0.02487
0.0250279
0.0249332
0.0250481
0.0250936
0.0250282
0.0250607
0.0248876
0.0257978
0.0242678
0.0244401
0.0246964
0.0248734
0.0253296
0.0258435
0.0263867
0.0272048
0.0274067
0.0276651
0.0241209
0.0243016
0.0245439
0.0246985
0.025127
0.0256036
0.0260706
0.0267812
0.0270226
0.025947
0.0242111
0.0243772
0.024609
0.0247503
0.0251573
0.0256123
0.0260575
0.026751
0.0270886
0.0263545
0.0240227
0.0241666
0.0243871
0.0244991
0.0248664
0.0252632
0.0256316
0.0262028
0.0263398
0.0259389
0.0240298
0.0241486
0.0243499
0.0244248
0.0247354
0.02505
0.0253113
0.0257059
0.0256491
0.0258679
0.0239664
0.0240557
0.024239
0.0242738
0.0245254
0.0247546
0.0248981
0.0251075
0.0248882
0.0255293
0.0238391
0.023898
0.0240669
0.0240636
0.0242619
0.0244122
0.0244397
0.0244821
0.0241373
0.0245567
0.0239062
0.0239399
0.0240914
0.0240544
0.0242018
0.0242799
0.0242042
0.0240776
0.0236021
0.0231363
0.023775
0.0237994
0.0239483
0.0238921
0.0240132
0.0240438
0.0238994
0.02366
0.0229788
0.0223466
0.023789
0.0237703
0.0239135
0.0238423
0.0239491
0.0239774
0.0238812
0.0237547
0.0229767
0.0230619
0.0230782
0.0232942
0.0235486
0.0237854
0.0242993
0.0249186
0.0256309
0.0267526
0.0277309
0.0285784
0.0229495
0.0231768
0.0234193
0.0236413
0.0241417
0.0247617
0.0254873
0.0266288
0.02805
0.0293708
0.0230247
0.0232362
0.0234694
0.0236794
0.0241634
0.0247758
0.0255185
0.0267162
0.0283081
0.0310672
0.0228521
0.0230411
0.023262
0.0234403
0.0238803
0.0244204
0.025053
0.0260877
0.0271747
0.0295011
0.022853
0.0230134
0.0232128
0.0233463
0.0237145
0.0241355
0.0245813
0.0252863
0.0255413
0.0269211
0.0227905
0.0229178
0.0230961
0.0231794
0.0234691
0.0237614
0.0239936
0.024298
0.0237044
0.0238235
0.0226721
0.022766
0.0229273
0.0229637
0.023183
0.0233638
0.0234091
0.0233862
0.0225207
0.0219874
0.0227236
0.0227881
0.0229295
0.0229249
0.0230811
0.0231718
0.0230882
0.0228468
0.0220804
0.0211269
0.022612
0.022667
0.0228043
0.0227773
0.0229005
0.0229322
0.0227743
0.0224444
0.0215778
0.0206007
0.0226105
0.0226199
0.022752
0.0227066
0.0228129
0.0228349
0.0227218
0.0225649
0.021526
0.0210333
0.0218035
0.0220506
0.0222963
0.0225841
0.0231525
0.0238949
0.0248391
0.0263673
0.0284626
0.0311447
0.0216939
0.0219563
0.0221937
0.0224773
0.0230512
0.0238393
0.0249166
0.0266602
0.0296334
0.0357119
0.0217578
0.0220039
0.0222342
0.0225075
0.0230711
0.0238662
0.0250057
0.0269498
0.0302868
0.0396241
0.0216027
0.0218269
0.0220446
0.0222836
0.0227983
0.0235064
0.0244902
0.0262452
0.0290134
0.0373752
0.0216012
0.0217946
0.0219888
0.0221744
0.0225995
0.0231431
0.023817
0.025032
0.0263832
0.0314
0.0215433
0.0217016
0.0218723
0.0219978
0.0223216
0.0226823
0.0230059
0.0235151
0.0230314
0.0233192
0.0214378
0.0215617
0.0217144
0.0217862
0.0220241
0.0222419
0.0223068
0.0222805
0.0210907
0.0193636
0.0214788
0.0215707
0.0217037
0.0217311
0.0219008
0.0220252
0.0219768
0.0217103
0.0208549
0.0192848
0.0213872
0.0214711
0.0216001
0.0216054
0.0217436
0.0218128
0.021714
0.0214281
0.020678
0.0195032
0.0213772
0.021415
0.0215412
0.0215285
0.0216536
0.0217123
0.0216517
0.0216169
0.0207421
0.0197847
0.0204354
0.020694
0.0209153
0.0212276
0.0218119
0.0226211
0.0237111
0.0253949
0.0280762
0.0323086
0.0203463
0.0206247
0.0208414
0.0211603
0.0217679
0.0226572
0.0239852
0.0260898
0.0298003
0.0401474
0.0204026
0.0206651
0.0208774
0.0211883
0.0217942
0.0227117
0.0241559
0.026664
0.0310277
0.0475395
0.0202673
0.02051
0.0207113
0.0209877
0.0215456
0.0223803
0.0236527
0.0259919
0.0299382
0.0455602
0.0202681
0.0204798
0.0206584
0.0208765
0.0213334
0.0219764
0.022848
0.0245123
0.0267467
0.0371463
0.0202195
0.0203969
0.0205527
0.0207056
0.0210456
0.0214658
0.0218803
0.0226049
0.0224632
0.0243844
0.0201316
0.0202769
0.0204176
0.0205166
0.0207646
0.0210251
0.0211467
0.0211626
0.019875
0.0175434
0.0201679
0.0202822
0.0204071
0.020466
0.0206534
0.0208363
0.0208981
0.0206814
0.0198048
0.017524
0.0200976
0.0202075
0.0203312
0.0203739
0.0205409
0.0206862
0.0207353
0.0205853
0.0199806
0.0178806
0.0200863
0.0201529
0.0202792
0.0203093
0.0204757
0.0206233
0.0207033
0.0208924
0.0203103
0.0182577
0.018974
0.0192176
0.0193926
0.0196871
0.0202197
0.0209821
0.0220375
0.0234929
0.025926
0.0305906
0.0189062
0.0191739
0.0193463
0.0196544
0.0202196
0.0210664
0.0223854
0.0243509
0.0273723
0.0388388
0.0189579
0.0192111
0.0193822
0.019685
0.0202566
0.0211498
0.0226241
0.0251243
0.0288338
0.0490867
0.0188448
0.0190823
0.0192461
0.0195183
0.0200492
0.0208823
0.0222123
0.0245747
0.027948
0.047814
0.0188528
0.0190622
0.0192083
0.0194244
0.0198564
0.0205047
0.0214154
0.0230951
0.0245903
0.0367831
0.0188186
0.0189983
0.019127
0.0192826
0.019601
0.0200286
0.0204721
0.0212691
0.0207692
0.0231641
0.0187531
0.0189075
0.0190286
0.0191416
0.0193814
0.0196676
0.0198666
0.0200216
0.0186765
0.0160123
0.0187909
0.0189195
0.0190336
0.0191209
0.019325
0.0195733
0.0198168
0.0198339
0.0191573
0.0166055
0.018743
0.0188733
0.0189919
0.0190742
0.0192782
0.0195207
0.0197969
0.0199373
0.0198233
0.0173174
0.018738
0.0188313
0.018961
0.0190417
0.0192679
0.0195448
0.0198457
0.0203807
0.0206768
0.0180606
0.0174283
0.0176267
0.0177301
0.0179527
0.0183469
0.0189189
0.0197322
0.0206056
0.0221332
0.0268876
0.0173816
0.0176066
0.0177067
0.0179417
0.0183595
0.0189736
0.0199414
0.0211865
0.0222848
0.0314164
0.0174313
0.0176438
0.0177454
0.0179768
0.0184036
0.019066
0.0201773
0.0219512
0.0232507
0.0414561
0.0173421
0.017545
0.0176452
0.0178551
0.0182555
0.0188942
0.0199306
0.0216639
0.0227133
0.0422987
0.017362
0.0175437
0.0176357
0.017803
0.0181273
0.0186319
0.0193218
0.0205762
0.0199587
0.030464
0.0173467
0.0175079
0.0175941
0.0177206
0.0179653
0.0183128
0.0186611
0.0194329
0.0180541
0.0189727
0.0173078
0.0174553
0.0175471
0.0176564
0.0178658
0.0181445
0.0184231
0.0189324
0.0179894
0.0154123
0.0173524
0.0174839
0.0175819
0.0176909
0.0179103
0.0182234
0.018719
0.0193111
0.0197247
0.0186283
0.0173273
0.0174681
0.0175778
0.0176968
0.0179418
0.0182907
0.0188772
0.0195828
0.0210243
0.0208912
0.0173342
0.0174482
0.0175797
0.0177117
0.0180053
0.0184353
0.0190604
0.0201168
0.0223565
0.0224311
0.0158163
0.0159403
0.0159509
0.0160504
0.0162247
0.0164772
0.0169419
0.0170349
0.0175663
0.0260261
0.0157896
0.0159405
0.0159442
0.0160457
0.0162164
0.016433
0.0168129
0.0169634
0.0158172
0.0237968
0.015839
0.0159798
0.0159878
0.0160862
0.0162619
0.0165039
0.0169317
0.0174178
0.0151684
0.0284548
0.0157748
0.0159139
0.0159281
0.0160185
0.0161868
0.0164413
0.0168693
0.0174601
0.0147789
0.0304374
0.0158102
0.0159386
0.0159583
0.0160311
0.0161678
0.0163769
0.0166061
0.0171633
0.0139392
0.0219957
0.0158169
0.0159386
0.0159688
0.0160347
0.0161572
0.0163383
0.0164568
0.0171692
0.0153854
0.0167857
0.015807
0.0159307
0.0159834
0.0160693
0.0162269
0.0164629
0.016779
0.0177869
0.0182653
0.0203787
0.0158622
0.0159827
0.016057
0.0161748
0.0164022
0.0167631
0.0175217
0.018885
0.0214043
0.0285023
0.0158579
0.015996
0.0160879
0.0162292
0.0165028
0.0169315
0.0178575
0.0192335
0.0228271
0.0332663
0.0158809
0.0160032
0.0161266
0.0162942
0.0166353
0.017185
0.0181729
0.0196908
0.0240868
0.0348238
0.0141715
0.0142018
0.0141134
0.0140628
0.0139815
0.0138337
0.0139584
0.0136685
0.0115849
0.0254934
0.0141626
0.0142179
0.0141176
0.0140534
0.0139318
0.013667
0.0134389
0.012825
0.0085372
0.0183855
0.0142119
0.0142596
0.0141661
0.0140977
0.0139693
0.0136871
0.013329
0.0126554
0.005533
0.0120765
0.0141717
0.0142259
0.0141462
0.0140841
0.0139656
0.0137191
0.0133844
0.0129136
0.00478684
0.010728
0.0142235
0.0142796
0.0142203
0.0141715
0.0140783
0.0139071
0.0135724
0.0136968
0.0075382
0.0127779
0.0142522
0.0143176
0.0142861
0.0142705
0.0142462
0.0142208
0.0140711
0.0150214
0.013373
0.0204325
0.0142701
0.0143548
0.0143616
0.014405
0.014495
0.014664
0.0149901
0.0167218
0.0190398
0.0337894
0.014336
0.014431
0.0144724
0.0145772
0.0147939
0.015158
0.0161135
0.0183989
0.0225086
0.0450601
0.0143481
0.0144667
0.0145263
0.0146601
0.0149266
0.0153419
0.0164982
0.0186421
0.0224547
0.0473334
0.0143868
0.0144996
0.0145954
0.0147607
0.0150893
0.0156033
0.0167896
0.0186293
0.0217516
0.0430707
0.0310093
0.0346807
0.0350342
0.0315509
0.0280539
0.02628
0.025857
0.0261983
0.0272569
0.0275389
0.0299253
0.0348813
0.0342729
0.0297982
0.0263512
0.0250543
0.0249496
0.0253745
0.0266183
0.0270691
0.0281939
0.0324057
0.0321849
0.0286408
0.0260237
0.0249217
0.0245883
0.0247944
0.0258582
0.0256909
0.0259687
0.0299302
0.0302353
0.0278845
0.0260852
0.0245703
0.0234767
0.023559
0.0249611
0.0251149
0.0245496
0.0280496
0.0286772
0.0278475
0.0271746
0.0250445
0.0226382
0.0221571
0.0238859
0.0251892
0.0239686
0.0269184
0.0280016
0.028569
0.0292227
0.0265025
0.0224677
0.0209909
0.0226104
0.0243083
0.0239664
0.0262478
0.0275159
0.0289702
0.030293
0.026877
0.0220017
0.0200538
0.0214651
0.0229974
0.0239785
0.0253717
0.0261888
0.0275816
0.028088
0.0245452
0.0204894
0.0191884
0.02059
0.0216225
0.0243098
0.0249078
0.0248207
0.0248961
0.0242014
0.0215492
0.0192882
0.0188583
0.0200664
0.020418
0.0250069
0.0253593
0.0244946
0.0235989
0.022513
0.0209506
0.0197313
0.01931
0.0199284
0.019448
0.0286418
0.0307077
0.0304776
0.0277392
0.025318
0.0240642
0.0240079
0.0250197
0.0271307
0.0293635
0.026938
0.0289208
0.0282248
0.0254087
0.0231182
0.0219345
0.0221819
0.0236457
0.026328
0.0288117
0.0249117
0.026921
0.0274097
0.0251958
0.023119
0.0217754
0.0216964
0.0229254
0.0254011
0.0276663
0.0232947
0.0254118
0.0261098
0.0246537
0.0228679
0.0209958
0.0200315
0.0208978
0.0236549
0.0259427
0.0234349
0.0248647
0.0257913
0.0253635
0.0238585
0.0207402
0.0185345
0.0187027
0.0213594
0.0238132
0.0238629
0.0247563
0.0258899
0.0259759
0.0249286
0.0206017
0.0172862
0.0169587
0.0193515
0.0218435
0.023867
0.0241148
0.0251408
0.0253708
0.0247398
0.0199809
0.0162656
0.0159098
0.018198
0.0203929
0.0228956
0.0230462
0.0233164
0.0233451
0.0220538
0.0177086
0.0148939
0.0152589
0.0177502
0.019692
0.0226165
0.0226575
0.0220838
0.0208146
0.0188131
0.0158493
0.014428
0.0154588
0.0179861
0.0199272
0.0241977
0.0239926
0.022553
0.020746
0.0189401
0.0172842
0.0167025
0.0173442
0.018694
0.0201899
0.0281846
0.0279745
0.0262348
0.0239818
0.0221792
0.0210808
0.0211073
0.0224965
0.0251676
0.0275111
0.027342
0.0256469
0.0245408
0.0228425
0.0212901
0.0200181
0.0197785
0.0212089
0.024349
0.0268182
0.0244394
0.0240674
0.0247488
0.0231343
0.0214228
0.0197466
0.0190533
0.0203441
0.0233733
0.0256248
0.022853
0.023015
0.0238589
0.0224728
0.0204653
0.0180512
0.0169077
0.0180818
0.021213
0.023404
0.0230145
0.0229235
0.0238507
0.0229534
0.0202257
0.0164372
0.0149747
0.0160016
0.0187824
0.0205334
0.0233038
0.0232198
0.0240133
0.0233169
0.0204657
0.0153599
0.0135663
0.0144769
0.0168896
0.0182163
0.0232465
0.0228581
0.0230294
0.0223237
0.0201194
0.0147345
0.0126592
0.0136499
0.0159972
0.0169595
0.021921
0.0218535
0.0213909
0.0208581
0.0185904
0.0136756
0.0118774
0.0132312
0.0157432
0.0166977
0.0210559
0.021276
0.0205095
0.0195838
0.0172686
0.01345
0.0120332
0.0134126
0.0159957
0.0172345
0.0226276
0.0224864
0.0214061
0.0202941
0.0184111
0.0157546
0.0145534
0.0153454
0.016801
0.0177271
0.0304883
0.0273526
0.0232558
0.0205574
0.0185928
0.0173986
0.0174463
0.0189432
0.0216009
0.023264
0.0302853
0.0250138
0.0225264
0.0205517
0.0188613
0.017409
0.0169237
0.0181175
0.0210758
0.0228856
0.0286607
0.0249135
0.023449
0.0211711
0.0191136
0.0172325
0.0163391
0.0174806
0.020431
0.0219533
0.0275078
0.0240296
0.0228108
0.0203824
0.017758
0.0152858
0.0143135
0.0156365
0.0186354
0.0199886
0.0252699
0.0230917
0.0225366
0.0201931
0.0162913
0.0129399
0.0123616
0.0140248
0.016771
0.0176296
0.0220519
0.0221846
0.0223152
0.0206082
0.0160253
0.0116608
0.0112563
0.0129606
0.0153938
0.0157124
0.0207466
0.0214236
0.0210484
0.0200835
0.0164591
0.0113288
0.0105548
0.0123596
0.0147538
0.0147808
0.0206959
0.0207777
0.0200537
0.0193985
0.0165309
0.0112646
0.0099364
0.0118136
0.0143571
0.0146947
0.0202804
0.0204987
0.0199857
0.0198917
0.0174498
0.0124041
0.0104732
0.0117703
0.0141584
0.0147454
0.0215745
0.0216818
0.0216547
0.0218432
0.0197939
0.0155759
0.0130627
0.0132681
0.0144545
0.0144457
0.032726
0.0269151
0.0213783
0.0179184
0.0153265
0.0137509
0.0136801
0.0151646
0.0177865
0.0191399
0.0327288
0.0250962
0.0207264
0.0178791
0.0155765
0.013935
0.013631
0.0149337
0.0177758
0.0191896
0.0341835
0.0268174
0.0221567
0.0186799
0.0158372
0.01381
0.0134068
0.014862
0.0176546
0.0186441
0.0341167
0.0265004
0.0218724
0.0179579
0.014667
0.0123905
0.012199
0.0138308
0.0165288
0.0172061
0.0313078
0.0248616
0.0213038
0.0172204
0.0128728
0.0103443
0.0107637
0.0128074
0.0153676
0.0156481
0.0230554
0.0215837
0.0204817
0.0177158
0.012426
0.00926771
0.00991125
0.0121708
0.0145725
0.0144212
0.017729
0.0192937
0.0189008
0.0181399
0.013959
0.0095328
0.00936764
0.0116872
0.0140911
0.0137335
0.0184801
0.0191005
0.0183949
0.0181546
0.015283
0.0102341
0.00888066
0.0107541
0.0133258
0.0136081
0.0192814
0.0194314
0.0191533
0.0196999
0.0168728
0.0116592
0.00937441
0.0102884
0.0125311
0.0130626
0.0207069
0.0207119
0.021508
0.0221685
0.0193616
0.0143244
0.0114647
0.0112908
0.0124094
0.0121346
0.0319258
0.0255763
0.0204239
0.0165126
0.0130475
0.0109509
0.0106377
0.0121056
0.0146675
0.0156346
0.0322028
0.0243178
0.0188413
0.015337
0.012392
0.0103631
0.0104318
0.0120951
0.0149708
0.0159908
0.0360139
0.0269453
0.0202959
0.0158168
0.0123174
0.0102388
0.0106558
0.0126494
0.015455
0.0157753
0.0360514
0.0270053
0.0203751
0.0155686
0.011829
0.00973446
0.0104001
0.0124546
0.0149971
0.0148749
0.0313451
0.0242042
0.0193253
0.0147143
0.0105167
0.00854007
0.0096901
0.0119584
0.0143308
0.0139675
0.023635
0.0198608
0.0180763
0.0152412
0.0102962
0.00796804
0.00915369
0.0117032
0.0139965
0.0133531
0.0160303
0.0164594
0.0164133
0.016363
0.0130014
0.00891806
0.00884818
0.0114192
0.0136556
0.0127874
0.0156485
0.0165182
0.0160514
0.0166648
0.0153981
0.0103839
0.00870452
0.0103848
0.0125963
0.0123207
0.0168627
0.0173216
0.0171251
0.0178054
0.0161121
0.0115283
0.00929778
0.00976686
0.0113586
0.0112411
0.0187133
0.0186475
0.019692
0.0210626
0.0183066
0.0131414
0.0106503
0.0102793
0.0110629
0.0103108
0.0279365
0.0232116
0.0198778
0.0159363
0.0116061
0.00920992
0.00864399
0.0101215
0.0126296
0.0127179
0.0283852
0.0222112
0.0173683
0.0134197
0.00997642
0.00799272
0.00823489
0.0100505
0.0130729
0.0133227
0.0341133
0.0255755
0.0184295
0.0133504
0.00970833
0.00807668
0.00901763
0.0111472
0.0139229
0.0133387
0.0336534
0.0255759
0.0188738
0.0137129
0.00999042
0.00816265
0.00922684
0.0114726
0.0138924
0.0129524
0.0260199
0.0209901
0.0170911
0.0133701
0.00947974
0.0077067
0.0088533
0.0112777
0.0135709
0.0124779
0.0188966
0.0163179
0.0152502
0.0141192
0.0101391
0.00799368
0.00878819
0.0113752
0.0135923
0.0122943
0.0137587
0.0134468
0.0140791
0.0152525
0.0138723
0.00967835
0.00891963
0.0113247
0.0133767
0.0118287
0.01325
0.0139742
0.0141567
0.0158247
0.017055
0.0117371
0.00924928
0.0103124
0.0121455
0.0109321
0.0143286
0.0149723
0.0152107
0.0169372
0.017594
0.0130537
0.00984898
0.00967429
0.010752
0.00960773
0.0167143
0.0165855
0.0177927
0.0208463
0.0192126
0.013599
0.0107625
0.0101316
0.0104339
0.00901161
0.0219147
0.0202623
0.0196795
0.0168103
0.0123377
0.00922829
0.00831379
0.0100615
0.0127622
0.0122319
0.0204628
0.0189287
0.0171959
0.0136598
0.00998575
0.00772187
0.00781702
0.00979493
0.0132467
0.0130969
0.0274538
0.0223723
0.0177212
0.0132916
0.00934657
0.00781725
0.00880222
0.0110774
0.0139419
0.0130246
0.0286287
0.0225751
0.0183369
0.0140044
0.00982083
0.00827258
0.00941753
0.0118237
0.0141397
0.0129187
0.0198085
0.0166342
0.0158824
0.0141892
0.0101444
0.00864925
0.00962666
0.012192
0.0144242
0.0126628
0.0121853
0.0116415
0.0129099
0.0153796
0.0124927
0.0100658
0.0103864
0.012687
0.0145198
0.0123391
0.0101782
0.0103398
0.0118276
0.0162443
0.0176408
0.0126166
0.0110827
0.0125673
0.0141336
0.0121318
0.0129084
0.012445
0.0128959
0.0167343
0.0218506
0.0160241
0.0115332
0.0113081
0.0127628
0.011025
0.0153888
0.0145352
0.0147037
0.0186205
0.0233932
0.0184414
0.0118347
0.0100418
0.0109302
0.00919231
0.0186869
0.0169182
0.0179785
0.0240433
0.0249191
0.0178792
0.0121278
0.010183
0.0102316
0.00882965
0.0222224
0.0194836
0.0202783
0.0202747
0.0174325
0.012825
0.0090887
0.00949413
0.0141928
0.0174456
0.0155537
0.0175454
0.0194967
0.0182128
0.0146235
0.0102292
0.0082876
0.0102142
0.0150868
0.0173233
0.0201903
0.0203976
0.0203002
0.0176885
0.0134445
0.0100383
0.00908585
0.0106881
0.0149955
0.0177351
0.022247
0.0205033
0.0208611
0.018587
0.0137679
0.0103495
0.00954806
0.0106829
0.0145226
0.0181094
0.0148303
0.0153867
0.0195565
0.0200411
0.0149975
0.0107497
0.00948932
0.0104864
0.0141686
0.0185563
0.00891704
0.011148
0.0168563
0.0228995
0.0197038
0.0135014
0.0100451
0.0094262
0.0131462
0.0190432
0.012908
0.0109061
0.0147457
0.0244053
0.0275432
0.0187311
0.0114959
0.00840562
0.0129538
0.0213878
0.0239637
0.0154483
0.0147637
0.0244721
0.0331074
0.0255454
0.0133942
0.00824007
0.0128673
0.0221782
0.0313389
0.0203941
0.0170799
0.0255357
0.0347802
0.0292604
0.0152613
0.00793577
0.0116148
0.0204866
0.0340075
0.02303
0.0213589
0.0309868
0.0350309
0.0277585
0.0154454
0.00807151
0.0116608
0.0221164
0.0377335
0.0236643
0.0210817
0.0220371
0.0216549
0.0193384
0.0130111
0.00731922
0.0238931
0.072725
0.0265286
0.0217924
0.0218787
0.0218824
0.0204961
0.0178853
0.0128021
0.0094764
0.0263439
0.0728037
0.0213684
0.0225276
0.0226951
0.0218358
0.0203132
0.0184158
0.0136684
0.00968757
0.0280281
0.0772208
0.0202864
0.0224676
0.0238593
0.02398
0.0229497
0.0212786
0.0155361
0.00942586
0.0286685
0.0839706
0.0205774
0.0227186
0.0262208
0.0285698
0.0284812
0.0258351
0.0176595
0.00889523
0.0285659
0.0919252
0.0275259
0.0243817
0.0286321
0.0337857
0.0355088
0.0316021
0.0197516