/*--------------------------------*- C++ -*----------------------------------*\
  =========                 |
  \\      /  F ield         | OpenFOAM: The Open Source CFD Toolbox
   \\    /   O peration     | Website:  https://openfoam.org
    \\  /    A nd           | Version:  6
     \\/     M anipulation  |
\*---------------------------------------------------------------------------*/
FoamFile
{
    version     2.0;
    format      ascii;
    class       surfaceScalarField;
    location    "700";
    object      phi;
}
// * * * * * * * * * * * * * * * * * * * * * * * * * * * * * * * * * * * * * //

dimensions      [0 3 -1 0 0 0 0];

internalField   nonuniform List<scalar> 
19500
(
1.55706e-07
1.57786e-07
9.96868e-05
1.65729e-08
1.57978e-07
9.99814e-05
1.05623e-08
1.5809e-07
9.98482e-05
4.92874e-09
1.58176e-07
9.98477e-05
-1.57688e-09
1.58299e-07
9.98484e-05
-7.94131e-09
1.58431e-07
9.98482e-05
-1.30937e-08
1.58561e-07
9.98468e-05
-1.82663e-08
1.58693e-07
9.98467e-05
-1.58446e-07
1.5876e-07
9.99816e-05
1.58803e-07
9.96829e-05
1.55892e-07
1.78879e-08
9.99843e-05
1.6558e-08
1.78746e-08
0.00010028
1.06379e-08
1.79035e-08
0.000100146
5.02226e-09
1.79513e-08
0.000100146
-1.4716e-09
1.80137e-08
0.000100147
-7.83377e-09
1.80881e-08
0.000100147
-1.29985e-08
1.81673e-08
0.000100146
-1.81233e-08
1.82392e-08
0.000100146
-1.58402e-07
1.83067e-08
0.000100281
1.84442e-08
9.99821e-05
1.55994e-07
1.25072e-08
9.98497e-05
1.65866e-08
1.25764e-08
0.000100145
1.06862e-08
1.26184e-08
0.000100011
5.09552e-09
1.26788e-08
0.000100011
-1.3907e-09
1.27579e-08
0.000100012
-7.75278e-09
1.28494e-08
0.000100012
-1.29162e-08
1.29436e-08
0.000100011
-1.80547e-08
1.30281e-08
0.000100011
-1.58342e-07
1.30994e-08
0.000100146
1.31817e-08
9.98471e-05
1.56058e-07
7.28412e-09
9.98494e-05
1.66281e-08
7.35941e-09
0.000100145
1.07465e-08
7.41772e-09
0.000100011
5.17613e-09
7.48927e-09
0.000100011
-1.29938e-09
7.57859e-09
0.000100012
-7.6598e-09
7.67777e-09
0.000100012
-1.28315e-08
7.7757e-09
0.000100011
-1.79922e-08
7.85961e-09
0.000100011
-1.58229e-07
7.92018e-09
0.000100146
8.00706e-09
9.98471e-05
1.56145e-07
9.40703e-10
9.98505e-05
1.66757e-08
1.01397e-09
0.000100146
1.08161e-08
1.07074e-09
0.000100012
5.26523e-09
1.14276e-09
0.000100012
-1.20079e-09
1.23038e-09
0.000100013
-7.56193e-09
1.32504e-09
0.000100013
-1.27462e-08
1.41605e-09
0.000100012
-1.79314e-08
1.49128e-09
0.000100012
-1.58129e-07
1.54535e-09
0.000100147
1.62535e-09
9.98485e-05
1.56226e-07
-5.49313e-09
9.98505e-05
1.67263e-08
-5.42836e-09
0.000100146
1.08879e-08
-5.37901e-09
0.000100013
5.35304e-09
-5.3136e-09
0.000100012
-1.10623e-09
-5.23633e-09
0.000100013
-7.47044e-09
-5.15538e-09
0.000100013
-1.26703e-08
-5.08011e-09
0.000100012
-1.78804e-08
-5.02057e-09
0.000100012
-1.58034e-07
-4.97739e-09
0.000100147
-4.91302e-09
9.98487e-05
1.56293e-07
-1.09988e-08
9.98495e-05
1.67748e-08
-1.09498e-08
0.000100145
1.09545e-08
-1.09017e-08
0.000100012
5.43033e-09
-1.08473e-08
0.000100011
-1.02547e-09
-1.07868e-08
0.000100012
-7.39478e-09
-1.07276e-08
0.000100012
-1.26115e-08
-1.06768e-08
0.000100011
-1.78446e-08
-1.0642e-08
0.000100011
-1.57954e-07
-1.06259e-08
0.000100146
-1.05826e-08
9.98479e-05
1.56358e-07
-1.68036e-08
9.98497e-05
1.6814e-08
-1.67068e-08
0.000100146
1.10085e-08
-1.66707e-08
0.000100012
5.4892e-09
-1.66364e-08
0.000100012
-9.66594e-10
-1.65992e-08
0.000100013
-7.34237e-09
-1.65667e-08
0.000100012
-1.25765e-08
-1.65441e-08
0.000100011
-1.78275e-08
-1.65341e-08
0.000100011
-1.5791e-07
-1.65372e-08
0.000100146
-1.65811e-08
9.98483e-05
1.56358e-07
-1.55962e-07
9.99831e-05
1.68498e-08
-1.56023e-07
0.000100279
1.10506e-08
-1.56031e-07
0.000100145
5.52533e-09
-1.55982e-07
0.000100145
-9.30412e-10
-1.55943e-07
0.000100146
-7.3112e-09
-1.559e-07
0.000100146
-1.25667e-08
-1.5586e-07
0.000100145
-1.78302e-08
-1.55844e-07
0.000100145
-1.57834e-07
-1.55776e-07
0.000100279
-1.55603e-07
9.99814e-05
1.56296e-07
9.9688e-05
1.69414e-08
9.99836e-05
1.10888e-08
9.985e-05
5.57184e-09
9.98498e-05
-8.84454e-10
9.98507e-05
-7.27216e-09
9.98507e-05
-1.25368e-08
9.98496e-05
-1.78745e-08
9.98497e-05
-1.57655e-07
9.99842e-05
9.96869e-05
2.22827e-07
2.26035e-07
9.9239e-05
7.0689e-08
2.26412e-07
9.99082e-05
4.34357e-08
2.26304e-07
9.96502e-05
1.84745e-08
2.26486e-07
9.96472e-05
-9.52219e-10
2.26649e-07
9.96422e-05
-2.0321e-08
2.26798e-07
9.96416e-05
-4.50972e-08
2.2692e-07
9.96455e-05
-7.19188e-08
2.26984e-07
9.96474e-05
-2.26865e-07
2.27279e-07
9.99102e-05
2.27285e-07
9.92293e-05
2.23228e-07
7.23762e-08
9.99158e-05
7.08895e-08
7.25336e-08
0.000100587
4.36551e-08
7.25513e-08
0.000100328
1.86882e-08
7.2599e-08
0.000100326
-7.28845e-10
7.26902e-08
0.000100321
-2.01068e-08
7.27976e-08
0.000100321
-4.49388e-08
7.29114e-08
0.000100326
-7.18291e-08
7.30369e-08
0.000100328
-2.26857e-07
7.31443e-08
0.000100591
7.32063e-08
9.991e-05
2.23109e-07
4.57323e-08
9.96543e-05
7.09122e-08
4.58826e-08
0.000100325
4.37458e-08
4.59646e-08
0.000100066
1.87965e-08
4.60564e-08
0.000100064
-6.21827e-10
4.61905e-08
0.000100059
-2.00098e-08
4.63454e-08
0.000100059
-4.48481e-08
4.6509e-08
0.000100063
-7.17189e-08
4.66677e-08
0.000100065
-2.26566e-07
4.67662e-08
0.000100328
4.68933e-08
9.96475e-05
2.23268e-07
2.11163e-08
9.96519e-05
7.0959e-08
2.12403e-08
0.000100323
4.38387e-08
2.13389e-08
0.000100064
1.89264e-08
2.14661e-08
0.000100062
-4.71935e-10
2.16336e-08
0.000100057
-1.98513e-08
2.18233e-08
0.000100057
-4.46895e-08
2.2021e-08
0.000100061
-7.158e-08
2.22039e-08
0.000100063
-2.26502e-07
2.23285e-08
0.000100326
2.2515e-08
9.96457e-05
2.234e-07
1.82899e-09
9.96475e-05
7.10477e-08
1.94958e-09
0.000100319
4.39726e-08
2.04877e-09
0.00010006
1.90959e-08
2.19717e-09
0.000100057
-2.81158e-10
2.38701e-09
0.000100053
-1.96534e-08
2.60236e-09
0.000100053
-4.45017e-08
2.82779e-09
0.000100057
-7.1431e-08
3.03473e-09
0.000100059
-2.26367e-07
3.1926e-09
0.000100322
3.39089e-09
9.96419e-05
2.23512e-07
-1.7603e-08
9.96475e-05
7.11517e-08
-1.74949e-08
0.000100319
4.41264e-08
-1.74028e-08
0.00010006
1.92866e-08
-1.72437e-08
0.000100058
-6.58766e-11
-1.70444e-08
0.000100053
-1.94288e-08
-1.68171e-08
0.000100053
-4.42904e-08
-1.65782e-08
0.000100057
-7.12642e-08
-1.63603e-08
0.000100059
-2.26199e-07
-1.61771e-08
0.000100322
-1.59737e-08
9.96426e-05
2.23596e-07
-4.26632e-08
9.9652e-05
7.12632e-08
-4.26097e-08
0.000100324
4.42885e-08
-4.25234e-08
0.000100065
1.94853e-08
-4.23615e-08
0.000100062
1.59903e-10
-4.21698e-08
0.000100058
-1.91917e-08
-4.19529e-08
0.000100058
-4.40691e-08
-4.17269e-08
0.000100062
-7.10904e-08
-4.15268e-08
0.000100064
-2.25997e-07
-4.13364e-08
0.000100327
-4.11247e-08
9.96478e-05
2.23619e-07
-7.00855e-08
9.96546e-05
7.13878e-08
-7.00929e-08
0.000100326
4.445e-08
-6.99861e-08
0.000100067
1.96736e-08
-6.98453e-08
0.000100065
3.72296e-10
-6.96924e-08
0.00010006
-1.89705e-08
-6.95187e-08
0.00010006
-4.38687e-08
-6.93356e-08
0.000100065
-7.09357e-08
-6.91751e-08
0.000100067
-2.25778e-07
-6.90753e-08
0.00010033
-6.88619e-08
9.96509e-05
2.23865e-07
-2.23014e-07
9.99131e-05
7.14922e-08
-2.23182e-07
0.000100586
4.45486e-08
-2.22936e-07
0.000100326
1.98019e-08
-2.22915e-07
0.000100324
5.36022e-10
-2.22819e-07
0.000100319
-1.87809e-08
-2.22673e-07
0.000100319
-4.36772e-08
-2.22478e-07
0.000100324
-7.08406e-08
-2.22255e-07
0.000100326
-2.25845e-07
-2.22318e-07
0.000100589
-2.21937e-07
9.99093e-05
2.23694e-07
9.9242e-05
7.14583e-08
9.99133e-05
4.45648e-08
9.96547e-05
1.98767e-08
9.96522e-05
6.38608e-10
9.96478e-05
-1.86501e-08
9.96479e-05
-4.35106e-08
9.96526e-05
-7.06572e-08
9.96552e-05
-2.25485e-07
9.99173e-05
9.92398e-05
2.50252e-07
2.56449e-07
9.87333e-05
9.07744e-08
2.57211e-07
9.98116e-05
5.81987e-08
2.56685e-07
9.94271e-05
2.47113e-08
2.57118e-07
9.94246e-05
-3.32778e-09
2.5741e-07
9.94138e-05
-3.11229e-08
2.57722e-07
9.94126e-05
-6.38538e-08
2.58034e-07
9.94211e-05
-9.50382e-08
2.58114e-07
9.94214e-05
-2.58818e-07
2.59005e-07
9.98158e-05
2.59085e-07
9.87121e-05
2.51054e-07
9.47136e-08
9.98276e-05
9.13752e-08
9.52451e-08
0.00010091
5.86564e-08
9.5204e-08
0.000100524
2.51717e-08
9.52976e-08
0.000100522
-2.8749e-09
9.54851e-08
0.000100512
-3.07141e-08
9.56902e-08
0.000100512
-6.35581e-08
9.59005e-08
0.000100521
-9.50528e-08
9.61478e-08
0.000100522
-2.58745e-07
9.64094e-08
0.000100918
9.63621e-08
9.98146e-05
2.50496e-07
6.35119e-08
9.94361e-05
9.13392e-08
6.38495e-08
0.000100517
5.88069e-08
6.39851e-08
0.000100131
2.53406e-08
6.41541e-08
0.000100129
-2.6974e-09
6.44015e-08
0.000100119
-3.05383e-08
6.46746e-08
0.000100119
-6.34055e-08
6.49557e-08
0.000100128
-9.47876e-08
6.52426e-08
0.000100128
-2.57867e-07
6.53968e-08
0.000100523
6.56317e-08
9.94211e-05
2.50873e-07
3.08746e-08
9.94348e-05
9.14256e-08
3.11674e-08
0.000100516
5.89774e-08
3.13156e-08
0.00010013
2.55758e-08
3.15385e-08
0.000100129
-2.42578e-09
3.18297e-08
0.000100119
-3.02519e-08
3.21506e-08
0.000100118
-6.31204e-08
3.24814e-08
0.000100127
-9.45343e-08
3.27976e-08
0.000100128
-2.57817e-07
3.29952e-08
0.000100523
3.33185e-08
9.9421e-05
2.51083e-07
3.18853e-09
9.94252e-05
9.15962e-08
3.43783e-09
0.000100507
5.92181e-08
3.59248e-09
0.000100121
2.58704e-08
3.84517e-09
0.00010012
-2.10082e-09
4.1606e-09
0.000100109
-2.992e-08
4.51222e-09
0.000100109
-6.28108e-08
4.87945e-09
0.000100118
-9.4294e-08
5.22317e-09
0.000100119
-2.57552e-07
5.45812e-09
0.000100514
5.82219e-09
9.94127e-05
2.51293e-07
-2.47636e-08
9.94252e-05
9.17764e-08
-2.45782e-08
0.000100508
5.9476e-08
-2.44294e-08
0.000100122
2.61861e-08
-2.4165e-08
0.00010012
-1.74832e-09
-2.38469e-08
0.00010011
-2.9555e-08
-2.34862e-08
0.00010011
-6.24671e-08
-2.31019e-08
0.000100119
-9.40225e-08
-2.27496e-08
0.00010012
-2.57279e-07
-2.24821e-08
0.000100515
-2.2095e-08
9.9414e-05
2.51485e-07
-5.81983e-08
9.9435e-05
9.19542e-08
-5.81202e-08
0.000100518
5.97338e-08
-5.79944e-08
0.000100132
2.6504e-08
-5.77323e-08
0.00010013
-1.38727e-09
-5.74382e-08
0.00010012
-2.91736e-08
-5.70993e-08
0.00010012
-6.21034e-08
-5.67333e-08
0.00010013
-9.37256e-08
-5.64097e-08
0.000100131
-2.57005e-07
-5.61394e-08
0.000100525
-5.56916e-08
9.94251e-05
2.51453e-07
-9.07341e-08
9.94366e-05
9.21686e-08
-9.09498e-08
0.000100519
5.99962e-08
-9.07115e-08
0.000100133
2.6805e-08
-9.04791e-08
0.000100132
-1.05167e-09
-9.02521e-08
0.000100122
-2.88228e-08
-8.99831e-08
0.000100122
-6.17802e-08
-8.96814e-08
0.000100132
-9.35056e-08
-8.94546e-08
0.000100133
-2.56531e-07
-8.93285e-08
0.000100527
-8.87632e-08
9.94281e-05
2.52225e-07
-2.51263e-07
9.98225e-05
9.2405e-08
-2.51614e-07
0.000100907
6.01366e-08
-2.5086e-07
0.00010052
2.7e-08
-2.50909e-07
0.000100519
-8.0951e-10
-2.50727e-07
0.000100509
-2.85462e-08
-2.50502e-07
0.000100509
-6.15038e-08
-2.50246e-07
0.000100518
-9.33813e-08
-2.49775e-07
0.000100519
-2.57065e-07
-2.50307e-07
0.000100914
-2.49567e-07
9.98136e-05
2.51875e-07
9.87395e-05
9.21459e-08
9.98221e-05
6.01573e-08
9.94365e-05
2.7123e-08
9.9435e-05
-6.10166e-10
9.94254e-05
-2.82785e-08
9.94257e-05
-6.11359e-08
9.94358e-05
-9.28589e-08
9.94377e-05
-2.56358e-07
9.98311e-05
9.87341e-05
2.65907e-07
2.75832e-07
9.81926e-05
9.99568e-08
2.77123e-07
9.97015e-05
6.2579e-08
2.76176e-07
9.91894e-05
2.56075e-08
2.76978e-07
9.91857e-05
-6.76427e-09
2.77428e-07
9.91698e-05
-3.85821e-08
2.78006e-07
9.91675e-05
-7.39552e-08
2.78661e-07
9.91788e-05
-1.0867e-07
2.78803e-07
9.91783e-05
-2.80227e-07
2.80404e-07
9.9708e-05
2.80627e-07
9.81517e-05
2.6727e-07
1.0702e-07
9.97302e-05
1.01064e-07
1.08018e-07
0.000101246
6.33902e-08
1.07886e-07
0.000100731
2.64818e-08
1.08071e-07
0.000100729
-5.93878e-09
1.08413e-07
0.000100715
-3.78823e-08
1.08779e-07
0.000100714
-7.33948e-08
1.0914e-07
0.000100728
-1.08717e-07
1.0956e-07
0.000100728
-2.80018e-07
1.10051e-07
0.000101261
1.09958e-07
9.97059e-05
2.66251e-07
7.20169e-08
9.92059e-05
1.00935e-07
7.26292e-08
0.000100718
6.3599e-08
7.28137e-08
0.000100205
2.67162e-08
7.31132e-08
0.000100202
-5.65494e-09
7.35392e-08
0.000100187
-3.75733e-08
7.39999e-08
0.000100186
-7.31315e-08
7.44636e-08
0.000100199
-1.08224e-07
7.49323e-08
0.000100199
-2.78465e-07
7.51807e-08
0.000100729
7.56405e-08
9.91777e-05
2.66939e-07
3.66026e-08
9.92043e-05
1.011e-07
3.71832e-08
0.000100719
6.3902e-08
3.73765e-08
0.000100204
2.71241e-08
3.77511e-08
0.000100202
-5.18531e-09
3.82332e-08
0.000100187
-3.70853e-08
3.87577e-08
0.000100186
-7.26622e-08
3.9292e-08
0.000100199
-1.07805e-07
3.98024e-08
0.000100199
-2.78411e-07
4.01089e-08
0.00010073
4.06572e-08
9.91784e-05
2.67217e-07
4.88736e-09
9.91907e-05
1.01397e-07
5.3403e-09
0.000100706
6.4307e-08
5.57144e-09
0.000100191
2.7612e-08
5.98559e-09
0.000100189
-4.65252e-09
6.49108e-09
0.000100174
-3.65498e-08
7.05078e-09
0.000100174
-7.21753e-08
7.63512e-09
0.000100187
-1.07427e-07
8.18426e-09
0.000100187
-2.77895e-07
8.50489e-09
0.000100717
9.15834e-09
9.91672e-05
2.67571e-07
-2.7245e-08
9.91908e-05
1.01693e-07
-2.6958e-08
0.000100707
6.47225e-08
-2.67072e-08
0.000100192
2.81173e-08
-2.62828e-08
0.00010019
-4.09023e-09
-2.57872e-08
0.000100175
-3.59703e-08
-2.52219e-08
0.000100175
-7.16343e-08
-2.46131e-08
0.000100188
-1.06997e-07
-2.40488e-08
0.000100189
-2.77472e-07
-2.37073e-08
0.000100718
-2.29349e-08
9.91695e-05
2.67972e-07
-6.39009e-08
9.92047e-05
1.01971e-07
-6.37593e-08
0.000100722
6.51225e-08
-6.35508e-08
0.000100206
2.86131e-08
-6.31416e-08
0.000100205
-3.52235e-09
-6.26925e-08
0.00010019
-3.53653e-08
-6.2164e-08
0.00010019
-7.10532e-08
-6.15801e-08
0.000100203
-1.06521e-07
-6.10518e-08
0.000100204
-2.77084e-07
-6.06134e-08
0.000100734
-5.98732e-08
9.91857e-05
2.67878e-07
-1.00887e-07
9.92067e-05
1.02311e-07
-1.01316e-07
0.000100724
6.55325e-08
-1.00885e-07
0.000100208
2.9088e-08
-1.00522e-07
0.000100207
-2.99108e-09
-1.0018e-07
0.000100193
-3.48071e-08
-9.97612e-08
0.000100192
-7.05256e-08
-9.92788e-08
0.000100206
-1.06078e-07
-9.88306e-08
0.000100207
-2.76301e-07
-9.87996e-08
0.000100736
-9.76363e-08
9.91903e-05
2.69223e-07
-2.67956e-07
9.97212e-05
1.02741e-07
-2.68521e-07
0.000101242
6.57574e-08
-2.67197e-07
0.000100724
2.93995e-08
-2.67328e-07
0.000100723
-2.63887e-09
-2.66962e-07
0.000100708
-3.44249e-08
-2.66611e-07
0.000100708
-7.00609e-08
-2.66251e-07
0.000100722
-1.06038e-07
-2.6546e-07
0.000100723
-2.77204e-07
-2.66378e-07
0.000101254
-2.65139e-07
9.97043e-05
2.68662e-07
9.82035e-05
1.02267e-07
9.97206e-05
6.58209e-08
9.92064e-05
2.95945e-08
9.92045e-05
-2.26585e-09
9.91909e-05
-3.38597e-08
9.91913e-05
-6.94458e-08
9.92057e-05
-1.04948e-07
9.92084e-05
-2.76031e-07
9.97362e-05
9.81928e-05
2.76916e-07
2.9134e-07
9.76254e-05
1.06717e-07
2.93273e-07
9.95794e-05
6.43499e-08
2.91974e-07
9.89409e-05
2.46019e-08
2.93265e-07
9.89333e-05
-1.09629e-08
2.93945e-07
9.89126e-05
-4.56475e-08
2.94926e-07
9.89083e-05
-8.27875e-08
2.96138e-07
9.8921e-05
-1.21002e-07
2.96454e-07
9.89212e-05
-2.98772e-07
2.98821e-07
9.95878e-05
2.99641e-07
9.7554e-05
2.78981e-07
1.17596e-07
9.9626e-05
1.08419e-07
1.19119e-07
0.000101592
6.56527e-08
1.18923e-07
0.000100948
2.60978e-08
1.19261e-07
0.000100944
-9.55465e-09
1.19826e-07
0.000100926
-4.44427e-08
1.20436e-07
0.000100925
-8.1747e-08
1.21041e-07
0.000100941
-1.20841e-07
1.21723e-07
0.000100943
-2.97995e-07
1.22438e-07
0.000101616
1.22595e-07
9.95856e-05
2.77547e-07
7.87856e-08
9.89682e-05
1.0822e-07
7.97534e-08
0.000100928
6.59516e-08
8.00137e-08
0.000100287
2.64314e-08
8.05145e-08
0.000100282
-9.11196e-09
8.12025e-08
0.000100263
-4.39286e-08
8.19445e-08
0.000100261
-8.13256e-08
8.26868e-08
0.000100276
-1.20112e-07
8.34362e-08
0.000100277
-2.95667e-07
8.37845e-08
0.000100945
8.47191e-08
9.89207e-05
2.78632e-07
4.14634e-08
9.8964e-05
1.0852e-07
4.24476e-08
0.000100927
6.64599e-08
4.27049e-08
0.000100285
2.71018e-08
4.3305e-08
0.00010028
-8.34222e-09
4.40662e-08
0.000100261
-4.31316e-08
4.48916e-08
0.000100259
-8.05764e-08
4.57255e-08
0.000100275
-1.19459e-07
4.65322e-08
0.000100276
-2.9551e-07
4.69643e-08
0.000100944
4.79115e-08
9.89206e-05
2.78992e-07
6.93794e-09
9.89473e-05
1.08991e-07
7.67832e-09
0.000100912
6.7101e-08
8.01713e-09
0.000100269
2.7873e-08
8.66651e-09
0.000100264
-7.5025e-09
9.44737e-09
0.000100246
-4.22928e-08
1.03101e-08
0.000100244
-7.98178e-08
1.12065e-08
0.00010026
-1.18874e-07
1.20631e-08
0.000100262
-2.9462e-07
1.24901e-08
0.000100929
1.35872e-08
9.89079e-05
2.79546e-07
-2.81849e-08
9.89474e-05
1.09454e-07
-2.77516e-08
0.000100914
6.77436e-08
-2.73569e-08
0.00010027
2.86539e-08
-2.67031e-08
0.000100265
-6.63518e-09
-2.59503e-08
0.000100247
-4.14011e-08
-2.50898e-08
0.000100246
-7.8985e-08
-2.41542e-08
0.000100262
-1.18216e-07
-2.3254e-08
0.000100264
-2.93977e-07
-2.27544e-08
0.000100931
-2.15125e-08
9.89116e-05
2.80253e-07
-6.72709e-08
9.89645e-05
1.09882e-07
-6.70124e-08
0.000100932
6.83488e-08
-6.6694e-08
0.000100288
2.94062e-08
-6.60804e-08
0.000100284
-5.7711e-09
-6.54066e-08
0.000100266
-4.04721e-08
-6.46018e-08
0.000100265
-7.80679e-08
-6.36791e-08
0.000100281
-1.17417e-07
-6.27624e-08
0.000100284
-2.9354e-07
-6.21673e-08
0.00010095
-6.08244e-08
9.89324e-05
2.80113e-07
-1.08849e-07
9.89691e-05
1.10385e-07
-1.09429e-07
0.000100937
6.89643e-08
-1.08784e-07
0.000100293
3.01312e-08
-1.08252e-07
0.000100289
-4.95123e-09
-1.07733e-07
0.000100271
-3.95804e-08
-1.07082e-07
0.00010027
-7.71521e-08
-1.06277e-07
0.000100287
-1.16727e-07
-1.05566e-07
0.00010029
-2.92159e-07
-1.05226e-07
0.000100956
-1.03497e-07
9.89411e-05
2.82036e-07
-2.80216e-07
9.96115e-05
1.11022e-07
-2.81012e-07
0.000101585
6.92977e-08
-2.79129e-07
0.000100937
3.06052e-08
-2.79331e-07
0.000100933
-4.42808e-09
-2.78685e-07
0.000100915
-3.89928e-08
-2.78116e-07
0.000100915
-7.64897e-08
-2.77636e-07
0.000100931
-1.16363e-07
-2.76172e-07
0.000100934
-2.93401e-07
-2.77406e-07
0.000101603
-2.75582e-07
9.95828e-05
2.8125e-07
9.76426e-05
1.10378e-07
9.96111e-05
6.94523e-08
9.89688e-05
3.09116e-08
9.89643e-05
-3.78259e-09
9.89476e-05
-3.8023e-08
9.8948e-05
-7.52935e-08
9.8966e-05
-1.14709e-07
9.89719e-05
-2.91691e-07
9.96355e-05
9.76253e-05
2.82458e-07
3.02451e-07
9.70415e-05
1.10571e-07
3.05135e-07
9.94473e-05
6.44023e-08
3.03555e-07
9.86847e-05
2.22056e-08
3.05467e-07
9.86713e-05
-1.64335e-08
3.06526e-07
9.8646e-05
-5.37426e-08
3.08135e-07
9.86389e-05
-9.21012e-08
3.10167e-07
9.86505e-05
-1.32317e-07
3.10894e-07
9.86516e-05
-3.14287e-07
3.14186e-07
9.94567e-05
3.15973e-07
9.6924e-05
2.85378e-07
1.26244e-07
9.95179e-05
1.13004e-07
1.28377e-07
0.000101942
6.64005e-08
1.28163e-07
0.000101171
2.46071e-08
1.28749e-07
0.000101164
-1.41095e-08
1.29636e-07
0.000101143
-5.17014e-08
1.30612e-07
0.000101141
-9.01886e-08
1.31596e-07
0.00010116
-1.31664e-07
1.3263e-07
0.000101164
-3.12595e-07
1.33622e-07
0.000101978
1.34297e-07
9.94553e-05
2.83561e-07
8.5095e-08
9.87269e-05
1.12777e-07
8.65241e-08
0.000101142
6.68459e-08
8.69068e-08
0.000100375
2.51086e-08
8.7705e-08
0.000100366
-1.34262e-08
8.87628e-08
0.000100343
-5.09038e-08
8.99098e-08
0.00010034
-8.95571e-08
9.10508e-08
0.000100356
-1.30612e-07
9.21729e-08
0.00010036
-3.09421e-07
9.26044e-08
0.000101166
9.42967e-08
9.8652e-05
2.8512e-07
4.64306e-08
9.87186e-05
1.13289e-07
4.79425e-08
0.000101139
6.76586e-08
4.83053e-08
0.00010037
2.61599e-08
4.92244e-08
0.000100361
-1.22224e-08
5.03697e-08
0.000100339
-4.9672e-08
5.16099e-08
0.000100336
-8.84352e-08
5.28494e-08
0.000100353
-1.29662e-07
5.40396e-08
0.000100357
-3.09085e-07
5.45096e-08
0.000101163
5.60143e-08
9.86507e-05
2.85611e-07
9.35335e-09
9.86997e-05
1.13995e-07
1.04838e-08
0.000101122
6.86253e-08
1.09686e-08
0.000100353
2.73227e-08
1.19401e-08
0.000100344
-1.09589e-08
1.30909e-08
0.000100322
-4.84195e-08
1.43586e-08
0.00010032
-8.73373e-08
1.56723e-08
0.000100337
-1.28844e-07
1.69405e-08
0.000100342
-3.07818e-07
1.74033e-08
0.000101146
1.90052e-08
9.86379e-05
2.86439e-07
-2.85292e-08
9.86997e-05
1.14689e-07
-2.78782e-08
0.000101125
6.95766e-08
-2.73058e-08
0.000100354
2.8475e-08
-2.6345e-08
0.000100346
-9.68367e-09
-2.52499e-08
0.000100325
-4.71091e-08
-2.39865e-08
0.000100323
-8.61373e-08
-2.25928e-08
0.00010034
-1.27894e-07
-2.11795e-08
0.000100346
-3.07127e-07
-2.05641e-08
0.000101149
-1.85595e-08
9.86429e-05
2.87542e-07
-6.95815e-08
9.87188e-05
1.15326e-07
-6.91384e-08
0.000101147
7.04572e-08
-6.86834e-08
0.000100375
2.95669e-08
-6.78019e-08
0.000100367
-8.41937e-09
-6.68177e-08
0.000100346
-4.57271e-08
-6.56138e-08
0.000100345
-8.47372e-08
-6.41866e-08
0.000100363
-1.26733e-07
-6.26827e-08
0.000100369
-3.0657e-07
-6.14614e-08
0.000101173
-5.95022e-08
9.8667e-05
2.87414e-07
-1.14377e-07
9.87273e-05
1.16034e-07
-1.15074e-07
0.000101155
7.1343e-08
-1.14202e-07
0.000100384
3.06371e-08
-1.13452e-07
0.000100376
-7.1784e-09
-1.12672e-07
0.000100355
-4.43243e-08
-1.11666e-07
0.000100354
-8.3243e-08
-1.10409e-07
0.000100373
-1.25235e-07
-1.08873e-07
0.00010038
-3.04602e-07
-1.08303e-07
0.000101182
-1.05364e-07
9.86823e-05
2.8993e-07
-2.87547e-07
9.94955e-05
1.16894e-07
-2.88527e-07
0.000101933
7.18177e-08
-2.86059e-07
0.000101155
3.13325e-08
-2.86284e-07
0.000101148
-6.39076e-09
-2.85266e-07
0.000101127
-4.34038e-08
-2.84404e-07
0.000101125
-8.18385e-08
-2.83526e-07
0.000101144
-1.24586e-07
-2.81312e-07
0.000101149
-3.05511e-07
-2.82244e-07
0.000101958
-2.79035e-07
9.94503e-05
2.8896e-07
9.70666e-05
1.1612e-07
9.94959e-05
7.21087e-08
9.87273e-05
3.18e-08
9.8719e-05
-5.38911e-09
9.87001e-05
-4.17314e-08
9.87006e-05
-8.00868e-08
9.87211e-05
-1.21818e-07
9.87324e-05
-3.02535e-07
9.95336e-05
9.70436e-05
2.82661e-07
3.09597e-07
9.64503e-05
1.10889e-07
3.13159e-07
9.9307e-05
6.1772e-08
3.11396e-07
9.84237e-05
1.75241e-08
3.14087e-07
9.84029e-05
-2.3741e-08
3.15756e-07
9.83731e-05
-6.32102e-08
3.18314e-07
9.83616e-05
-1.02161e-07
3.21637e-07
9.83693e-05
-1.43082e-07
3.23228e-07
9.83708e-05
-3.2903e-07
3.27756e-07
9.93159e-05
3.31932e-07
9.6264e-05
2.86626e-07
1.32627e-07
9.94093e-05
1.14239e-07
1.35479e-07
0.000102293
6.47525e-08
1.35296e-07
0.000101398
2.12264e-08
1.36245e-07
0.000101387
-2.00113e-08
1.37593e-07
0.000101364
-5.9696e-08
1.39123e-07
0.000101362
-9.87017e-08
1.40728e-07
0.000101381
-1.41129e-07
1.42401e-07
0.000101388
-3.25066e-07
1.43895e-07
0.000102347
1.46199e-07
9.93166e-05
2.84475e-07
9.03856e-08
9.84857e-05
1.14025e-07
9.24203e-08
0.000101357
6.54095e-08
9.29772e-08
0.000100467
2.19926e-08
9.4197e-08
0.000100453
-1.89588e-08
9.57796e-08
0.000100428
-5.84415e-08
9.7518e-08
0.000100423
-9.76209e-08
9.92804e-08
0.000100438
-1.39458e-07
1.01026e-07
0.000100445
-3.2069e-07
1.01662e-07
0.00010139
1.05083e-07
9.83731e-05
2.86589e-07
5.11549e-08
9.84722e-05
1.14843e-07
5.3348e-08
0.00010135
6.66555e-08
5.3872e-08
0.000100458
2.35938e-08
5.52359e-08
0.000100444
-1.71192e-08
5.69152e-08
0.00010042
-5.65393e-08
5.87382e-08
0.000100415
-9.58438e-08
6.05643e-08
0.000100432
-1.3794e-07
6.2292e-08
0.000100439
-3.19815e-07
6.2914e-08
0.000101384
6.54107e-08
9.8371e-05
2.87298e-07
1.22025e-08
9.84523e-05
1.15869e-07
1.3858e-08
0.000101334
6.80697e-08
1.45417e-08
0.000100441
2.53042e-08
1.59528e-08
0.000100427
-1.52548e-08
1.76052e-08
0.000100403
-5.46884e-08
1.94204e-08
0.0001004
-9.41764e-08
2.12832e-08
0.000100417
-1.36562e-07
2.30798e-08
0.000100424
-3.18181e-07
2.36141e-08
0.000101368
2.59796e-08
9.83594e-05
2.88497e-07
-2.78016e-08
9.84522e-05
1.16876e-07
-2.68272e-08
0.000101338
6.94416e-08
-2.60287e-08
0.000100443
2.69626e-08
-2.46566e-08
0.00010043
-1.34269e-08
-2.31009e-08
0.000100407
-5.28383e-08
-2.13114e-08
0.000100404
-9.24496e-08
-1.93166e-08
0.000100421
-1.35157e-07
-1.72341e-08
0.000100429
-3.17623e-07
-1.62262e-08
0.000101373
-1.34582e-08
9.83646e-05
2.90099e-07
-7.0139e-08
9.84719e-05
1.17804e-07
-6.9441e-08
0.000101363
7.06938e-08
-6.88066e-08
0.000100466
2.85107e-08
-6.75702e-08
0.000100453
-1.16445e-08
-6.61756e-08
0.000100431
-5.08728e-08
-6.44443e-08
0.000100428
-9.04126e-08
-6.23288e-08
0.000100446
-1.33229e-07
-5.97682e-08
0.000100455
-3.17259e-07
-5.80269e-08
0.000101399
-5.46602e-08
9.83908e-05
2.90077e-07
-1.1706e-07
9.84849e-05
1.18778e-07
-1.17796e-07
0.000101375
7.19401e-08
-1.16659e-07
0.000100479
3.00372e-08
-1.15631e-07
0.000100467
-9.84606e-09
-1.14499e-07
0.000100445
-4.87641e-08
-1.13007e-07
0.000100443
-8.78744e-08
-1.10953e-07
0.000100462
-1.30952e-07
-1.08605e-07
0.000100472
-3.13916e-07
-1.06774e-07
0.000101415
-1.02161e-07
9.84149e-05
2.93227e-07
-2.90226e-07
9.93762e-05
1.19891e-07
-2.91364e-07
0.00010228
7.25945e-08
-2.88297e-07
0.000101375
3.10108e-08
-2.88474e-07
0.000101363
-8.68525e-09
-2.87002e-07
0.00010134
-4.71873e-08
-2.85648e-07
0.000101337
-8.5835e-08
-2.84334e-07
0.000101357
-1.29056e-07
-2.80307e-07
0.000101366
-3.13633e-07
-2.80057e-07
0.000102315
-2.73625e-07
9.93076e-05
2.92102e-07
9.64848e-05
1.19027e-07
9.93782e-05
7.30561e-08
9.84855e-05
3.16955e-08
9.84724e-05
-7.16903e-09
9.84527e-05
-4.47862e-08
9.84532e-05
-8.26311e-08
9.84756e-05
-1.24736e-07
9.84941e-05
-3.07526e-07
9.94362e-05
9.64614e-05
2.78864e-07
3.14516e-07
9.58581e-05
1.08245e-07
3.19108e-07
9.91599e-05
5.61647e-08
3.17334e-07
9.816e-05
9.81368e-09
3.21024e-07
9.81301e-05
-3.37158e-08
3.23669e-07
9.80951e-05
-7.47803e-08
3.27712e-07
9.80772e-05
-1.13882e-07
3.32998e-07
9.80775e-05
-1.54823e-07
3.36279e-07
9.80774e-05
-3.43762e-07
3.42432e-07
9.91641e-05
3.50364e-07
9.55703e-05
2.84114e-07
1.37787e-07
9.93031e-05
1.12754e-07
1.41491e-07
0.000102644
6.05308e-08
1.41424e-07
0.000101627
1.53913e-08
1.42908e-07
0.000101612
-2.77933e-08
1.44943e-07
0.000101588
-6.88333e-08
1.47331e-07
0.000101585
-1.07748e-07
1.49893e-07
0.000101605
-1.50445e-07
1.52538e-07
0.000101616
-3.36417e-07
1.54395e-07
0.000102722
1.58742e-07
9.91723e-05
2.81732e-07
9.49951e-08
9.82479e-05
1.12629e-07
9.78223e-08
0.000101571
6.15114e-08
9.86396e-08
0.000100563
1.65857e-08
1.00465e-07
0.000100542
-2.61529e-08
1.02805e-07
0.000100514
-6.68989e-08
1.05408e-07
0.000100507
-1.06017e-07
1.08085e-07
0.000100521
-1.485e-07
1.1058e-07
0.00010053
-3.30979e-07
1.11151e-07
0.000101617
1.16152e-07
9.80849e-05
2.84509e-07
5.56723e-08
9.82281e-05
1.13889e-07
5.87433e-08
0.000101561
6.33821e-08
5.95167e-08
0.000100549
1.89883e-08
6.15065e-08
0.000100529
-2.3382e-08
6.39278e-08
0.000100502
-6.39984e-08
6.65491e-08
0.000100496
-1.03426e-07
6.91095e-08
0.000100511
-1.46447e-07
7.13913e-08
0.000100522
-3.29963e-07
7.14856e-08
0.000101608
7.42195e-08
9.80828e-05
2.85574e-07
1.55766e-08
9.82078e-05
1.1536e-07
1.79385e-08
0.000101546
6.54226e-08
1.88995e-08
0.000100532
2.14636e-08
2.09102e-08
0.000100513
-2.06945e-08
2.32302e-08
0.000100487
-6.13769e-08
2.5737e-08
0.000100482
-1.01211e-07
2.82167e-08
0.000100498
-1.44922e-07
3.054e-08
0.000100509
-3.29005e-07
3.04184e-08
0.000101593
3.13333e-08
9.80729e-05
2.8728e-07
-2.58568e-08
9.82072e-05
1.16802e-07
-2.44119e-08
0.000101552
6.73687e-08
-2.33219e-08
0.000100536
2.37983e-08
-2.14044e-08
0.000100517
-1.81738e-08
-1.92578e-08
0.000100492
-5.89009e-08
-1.68065e-08
0.000100488
-9.90569e-08
-1.40871e-08
0.000100504
-1.43643e-07
-1.10555e-08
0.000100516
-3.30561e-07
-1.00711e-08
0.000101599
-8.21623e-09
9.8073e-05
2.89501e-07
-6.91504e-08
9.82265e-05
1.18123e-07
-6.80825e-08
0.000101578
6.91142e-08
-6.72096e-08
0.00010056
2.59274e-08
-6.55091e-08
0.000100541
-1.57523e-08
-6.3576e-08
0.000100517
-5.62337e-08
-6.11396e-08
0.000100514
-9.62124e-08
-5.80235e-08
0.000100531
-1.41257e-07
-5.40109e-08
0.000100543
-3.31406e-07
-5.03351e-08
0.000101629
-4.5147e-08
9.80954e-05
2.89719e-07
-1.17789e-07
9.82445e-05
1.19452e-07
-1.18482e-07
0.000101597
7.08333e-08
-1.17043e-07
0.000100579
2.80524e-08
-1.15643e-07
0.00010056
-1.32008e-08
-1.14018e-07
0.000100537
-5.3084e-08
-1.11792e-07
0.000100534
-9.23362e-08
-1.08716e-07
0.000100553
-1.36658e-07
-1.03981e-07
0.000100567
-3.25816e-07
-9.97448e-08
0.000101652
-8.90025e-08
9.81329e-05
2.93508e-07
-2.89926e-07
9.92555e-05
1.20859e-07
-2.91145e-07
0.000102626
7.17375e-08
-2.87469e-07
0.000101595
2.94194e-08
-2.87486e-07
0.000101578
-1.144e-08
-2.85436e-07
0.000101553
-5.06207e-08
-2.83485e-07
0.000101549
-8.81846e-08
-2.80884e-07
0.000101568
-1.32242e-07
-2.74408e-07
0.000101579
-3.18924e-07
-2.68617e-07
0.000102671
-2.52383e-07
9.9151e-05
2.92298e-07
9.5903e-05
1.19973e-07
9.92598e-05
7.24261e-08
9.82462e-05
3.04048e-08
9.82276e-05
-9.33557e-09
9.82077e-05
-4.67682e-08
9.82083e-05
-8.30574e-08
9.82313e-05
-1.22661e-07
9.82601e-05
-3.03144e-07
9.93471e-05
9.59074e-05
2.72049e-07
3.18543e-07
9.52687e-05
1.032e-07
3.24329e-07
9.90058e-05
4.76309e-08
3.2277e-07
9.78945e-05
-1.46126e-09
3.27727e-07
9.78535e-05
-4.74725e-08
3.3182e-07
9.78116e-05
-9.00838e-08
3.38049e-07
9.77843e-05
-1.29534e-07
3.46392e-07
9.77735e-05
-1.71805e-07
3.52606e-07
9.77698e-05
-3.6977e-07
3.61084e-07
9.90026e-05
3.74825e-07
9.48267e-05
2.78865e-07
1.42712e-07
9.92013e-05
1.09166e-07
1.47417e-07
0.000102992
5.38872e-08
1.47587e-07
0.00010186
6.73825e-09
1.49818e-07
0.000101839
-3.8278e-08
1.52845e-07
0.000101814
-8.02202e-08
1.56506e-07
0.000101811
-1.19041e-07
1.60679e-07
0.000101832
-1.64103e-07
1.65007e-07
0.000101851
-3.58345e-07
1.68036e-07
0.000103111
1.79161e-07
9.90101e-05
2.76394e-07
9.95994e-08
9.80158e-05
1.09236e-07
1.03439e-07
0.000101783
5.53386e-08
1.04635e-07
0.000100661
8.58828e-09
1.07302e-07
0.000100633
-3.57361e-08
1.1071e-07
0.000100602
-7.70751e-08
1.14597e-07
0.000100592
-1.16024e-07
1.18637e-07
0.000100603
-1.60104e-07
1.22501e-07
0.000100618
-3.47372e-07
1.23207e-07
0.000101849
1.3566e-07
9.77807e-05
2.79969e-07
6.03486e-08
9.79885e-05
1.11106e-07
6.45374e-08
0.00010177
5.80799e-08
6.5683e-08
0.000100643
1.21299e-08
6.85425e-08
0.000100615
-3.15756e-08
7.20021e-08
0.000100586
-7.26696e-08
7.57358e-08
0.000100577
-1.11821e-07
7.9266e-08
0.000100591
-1.56037e-07
8.20439e-08
0.000100606
-3.41158e-07
8.04786e-08
0.000101835
8.61368e-08
9.77902e-05
2.81577e-07
1.95311e-08
9.79681e-05
1.13195e-07
2.28343e-08
0.000101757
6.0991e-08
2.41841e-08
0.000100627
1.56824e-08
2.70215e-08
0.000100601
-2.77338e-08
3.02595e-08
0.000100573
-6.90437e-08
3.3687e-08
0.000100566
-1.09196e-07
3.68773e-08
0.000100581
-1.55131e-07
3.94868e-08
0.000100597
-3.40727e-07
3.74808e-08
0.00010182
4.00575e-08
9.77767e-05
2.83968e-07
-2.29654e-08
9.79666e-05
1.15234e-07
-2.08393e-08
0.000101765
6.37301e-08
-1.93629e-08
0.000100632
1.89466e-08
-1.66991e-08
0.000100606
-2.42908e-08
-1.37436e-08