/*--------------------------------*- C++ -*----------------------------------*\
  =========                 |
  \\      /  F ield         | OpenFOAM: The Open Source CFD Toolbox
   \\    /   O peration     | Website:  https://openfoam.org
    \\  /    A nd           | Version:  6
     \\/     M anipulation  |
\*---------------------------------------------------------------------------*/
FoamFile
{
    version     2.0;
    format      ascii;
    class       volVectorField;
    location    "700";
    object      U;
}
// * * * * * * * * * * * * * * * * * * * * * * * * * * * * * * * * * * * * * //

dimensions      [0 1 -1 0 0 0 0];

internalField   nonuniform List<vector> 
7000
(
(0.000598208 0.000606386 0.997866)
(0.000754506 0.000607716 0.999406)
(0.00021066 0.000607609 0.998941)
(7.84255e-05 0.000608003 0.998941)
(1.59498e-05 0.000608514 0.998943)
(-4.65474e-05 0.00060908 0.998942)
(-0.000105942 0.000609649 0.998937)
(-0.000233229 0.000610181 0.998936)
(-0.000774786 0.000611062 0.999403)
(-0.000608525 0.000610659 0.997854)
(0.000599522 0.000770269 0.999415)
(0.000755402 0.000771197 1.00096)
(0.000211039 0.000771666 1.00049)
(7.91518e-05 0.000772251 1.00049)
(1.69198e-05 0.000773105 1.0005)
(-4.54902e-05 0.000774087 1.00049)
(-0.000104829 0.000775105 1.00049)
(-0.000232036 0.000776113 1.00049)
(-0.000774022 0.000776949 1.00096)
(-0.000608907 0.000777669 0.99941)
(0.000599378 0.00022791 0.998946)
(0.000755832 0.000228268 1.00049)
(0.000211564 0.000228767 1.00002)
(7.97946e-05 0.000229352 1.00002)
(1.76817e-05 0.000230109 1.00003)
(-4.46811e-05 0.000230976 1.00002)
(-0.00010406 0.000231866 1.00002)
(-0.000231391 0.000232666 1.00002)
(-0.000773209 0.000233261 1.00049)
(-0.000608045 0.00023437 0.998939)
(0.000599687 9.97376e-05 0.998946)
(0.000756293 0.000100346 1.00049)
(0.000212108 0.000100882 1.00002)
(8.04993e-05 0.000101543 1.00002)
(1.85323e-05 0.00010238 1.00003)
(-4.37652e-05 0.000103325 1.00003)
(-0.000103186 0.000104274 1.00002)
(-0.000230653 0.000105103 1.00002)
(-0.000772333 0.000105716 1.00049)
(-0.000607582 0.000106664 0.998941)
(0.000600046 4.0079e-05 0.998949)
(0.000756907 4.0806e-05 1.00049)
(0.000212732 4.13708e-05 1.00003)
(8.12893e-05 4.20792e-05 1.00003)
(1.94618e-05 4.29542e-05 1.00003)
(-4.27908e-05 4.39143e-05 1.00003)
(-0.000102284 4.48511e-05 1.00003)
(-0.000229922 4.56409e-05 1.00002)
(-0.000771543 4.62137e-05 1.00049)
(-0.000607126 4.70457e-05 0.998945)
(0.000600388 -2.19763e-05 0.998949)
(0.000757532 -2.12851e-05 1.00049)
(0.000213369 -2.07562e-05 1.00003)
(8.20799e-05 -2.00745e-05 1.00003)
(2.03656e-05 -1.92578e-05 1.00003)
(-4.18696e-05 -1.83883e-05 1.00003)
(-0.00010146 -1.75661e-05 1.00003)
(-0.00022928 -1.69012e-05 1.00002)
(-0.000770843 -1.64235e-05 1.00049)
(-0.000606698 -1.57218e-05 0.998946)
(0.000600682 -8.34591e-05 0.998946)
(0.000758104 -8.27909e-05 1.00049)
(0.000213952 -8.23508e-05 1.00002)
(8.27884e-05 -8.1767e-05 1.00002)
(2.11493e-05 -8.1092e-05 1.00003)
(-4.10975e-05 -8.04016e-05 1.00003)
(-0.000100796 -7.97774e-05 1.00002)
(-0.000228788 -7.93093e-05 1.00002)
(-0.000770315 -7.89873e-05 1.00049)
(-0.00060635 -7.85541e-05 0.998944)
(0.000600924 -0.000214345 0.998945)
(0.000758642 -0.000213645 1.00049)
(0.00021442 -0.000213345 1.00002)
(8.3341e-05 -0.000212913 1.00002)
(2.17339e-05 -0.000212437 1.00003)
(-4.0551e-05 -0.000211978 1.00003)
(-0.000100364 -0.000211599 1.00002)
(-0.000228514 -0.000211367 1.00002)
(-0.000770075 -0.000211166 1.00049)
(-0.000606122 -0.000211085 0.998944)
(0.000601509 -0.000756596 0.999408)
(0.00075901 -0.000756509 1.00095)
(0.000214698 -0.000756172 1.00049)
(8.36888e-05 -0.00075573 1.00049)
(2.20958e-05 -0.000755334 1.00049)
(-4.02261e-05 -0.000754972 1.00049)
(-0.000100136 -0.000754705 1.00048)
(-0.00022834 -0.000754627 1.00048)
(-0.000769922 -0.000754516 1.00095)
(-0.000606391 -0.000753841 0.999406)
(0.000600703 -0.000598831 0.99787)
(0.000759058 -0.000599623 0.999414)
(0.000215322 -0.000599066 0.998948)
(8.42196e-05 -0.000598884 0.998949)
(2.25641e-05 -0.00059869 0.998951)
(-3.98173e-05 -0.000598497 0.998951)
(-9.98959e-05 -0.000598335 0.998948)
(-0.000228327 -0.000598226 0.998947)
(-0.00076923 -0.000598536 0.999412)
(-0.000605137 -0.00059729 0.997871)
(0.00146422 0.00148273 0.994337)
(0.00172453 0.00148938 0.999168)
(0.000435927 0.00148691 0.997305)
(0.000271904 0.00148811 0.997293)
(8.89294e-05 0.00148902 0.99728)
(-0.000108462 0.00148994 0.997277)
(-0.000289603 0.00149079 0.997283)
(-0.000449572 0.00149109 0.997288)
(-0.00175313 0.00149482 0.999179)
(-0.00148744 0.00149023 0.994282)
(0.001471 0.00175084 0.999213)
(0.00172832 0.00175432 1.00406)
(0.000436876 0.00175399 1.00219)
(0.000274027 0.00175503 1.00218)
(9.12096e-05 0.0017564 1.00217)
(-0.000106312 0.00175784 1.00217)
(-0.000287696 0.00175922 1.00218)
(-0.000447189 0.00176054 1.00219)
(-0.00175324 0.00176268 1.00408)
(-0.00149201 0.00176241 0.999182)
(0.00146845 0.000455181 0.997329)
(0.00172794 0.000455581 1.00217)
(0.000437728 0.000456378 1.0003)
(0.000274985 0.000457166 1.00029)
(9.23057e-05 0.000458308 1.00028)
(-0.00010524 0.000459608 1.00028)
(-0.0002867 0.000460956 1.00029)
(-0.000446526 0.000462269 1.0003)
(-0.00175114 0.000462965 1.00219)
(-0.00148833 0.000465053 0.997292)
(0.00146952 0.000296729 0.99732)
(0.00172882 0.000298069 1.00216)
(0.000438504 0.00029894 1.0003)
(0.000276086 0.000300029 1.00029)
(9.37319e-05 0.000301538 1.00028)
(-0.00010365 0.000303277 1.00027)
(-0.000285078 0.000305113 1.00028)
(-0.000445167 0.000306852 1.00029)
(-0.00174978 0.000308021 1.00218)
(-0.00148804 0.000309632 0.997285)
(0.00147021 0.000116746 0.997311)
(0.00172996 0.000118064 1.00216)
(0.000439623 0.000119067 1.00029)
(0.000277594 0.000120472 1.00028)
(9.55684e-05 0.000122297 1.00027)
(-0.000101654 0.000124369 1.00027)
(-0.000283117 0.000126534 1.00027)
(-0.000443548 0.000128528 1.00028)
(-0.00174821 0.000129984 1.00217)
(-0.00148715 0.000131866 0.997279)
(0.00147086 -8.02173e-05 0.997311)
(0.00173112 -7.91193e-05 1.00216)
(0.000440896 -7.81296e-05 1.00029)
(0.000279322 -7.65593e-05 1.00028)
(9.76362e-05 -7.45785e-05 1.00027)
(-9.94079e-05 -7.233e-05 1.00027)
(-0.000280917 -6.99757e-05 1.00028)
(-0.000441701 -6.78275e-05 1.00028)
(-0.00174644 -6.61114e-05 1.00217)
(-0.00148616 -6.40018e-05 0.997283)
(0.00147141 -0.000263689 0.997321)
(0.0017322 -0.000262837 1.00217)
(0.000442226 -0.000261898 1.0003)
(0.000281144 -0.00026027 1.00029)
(9.97947e-05 -0.000258295 1.00028)
(-9.7057e-05 -0.000256065 1.00028)
(-0.000278622 -0.000253742 1.00029)
(-0.000439736 -0.000251661 1.0003)
(-0.00174451 -0.000249815 1.00219)
(-0.0014851 -0.000247825 0.997296)
(0.00147141 -0.00042879 0.99733)
(0.00173321 -0.000427453 1.00218)
(0.000443551 -0.000426808 1.00031)
(0.000282917 -0.000425407 1.0003)
(0.000101832 -0.000423732 1.00029)
(-9.48657e-05 -0.000421803 1.00029)
(-0.000276525 -0.000419757 1.0003)
(-0.000437875 -0.000417871 1.00031)
(-0.00174284 -0.00041618 1.0022)
(-0.00148379 -0.000415264 0.997308)
(0.00147471 -0.00172244 0.999196)
(0.00173496 -0.00172399 1.00405)
(0.000444256 -0.00172225 1.00218)
(0.000284102 -0.0017212 1.00217)
(0.000103326 -0.00171991 1.00216)
(-9.30943e-05 -0.0017183 1.00216)
(-0.00027465 -0.00171646 1.00217)
(-0.000436198 -0.0017148 1.00217)
(-0.00174264 -0.00171458 1.00406)
(-0.00148606 -0.00171081 0.999172)
(0.00146924 -0.00146544 0.994355)
(0.00173326 -0.00147088 0.999199)
(0.000445279 -0.0014676 0.997333)
(0.000284603 -0.00146764 0.997323)
(0.000104166 -0.00146707 0.997314)
(-9.18393e-05 -0.00146632 0.997314)
(-0.000273257 -0.0014654 0.997324)
(-0.000435644 -0.00146412 0.997334)
(-0.00173909 -0.00146642 0.999219)
(-0.00147947 -0.0014597 0.994341)
(0.00198347 0.0020229 0.990123)
(0.00214287 0.00203679 0.998739)
(0.000434106 0.00203033 0.995478)
(0.000413534 0.00203352 0.995449)
(0.00011499 0.00203534 0.995382)
(-0.000182022 0.00203742 0.995375)
(-0.000475284 0.0020396 0.995427)
(-0.000479378 0.00203978 0.99544)
(-0.00221368 0.00204889 0.99877)
(-0.00203793 0.00203982 0.989986)
(0.00199761 0.00219832 0.998847)
(0.00215102 0.00220599 1.00749)
(0.000436694 0.00220336 1.00422)
(0.000418576 0.00220592 1.0042)
(0.000119685 0.00220866 1.00414)
(-0.000177716 0.00221157 1.00414)
(-0.000472146 0.00221446 1.00419)
(-0.000475457 0.00221674 1.00421)
(-0.00221403 0.00222276 1.00755)
(-0.00204703 0.00222231 0.998763)
(0.00199091 0.000477171 0.995537)
(0.00214823 0.000478827 1.00417)
(0.000438001 0.000480044 1.0009)
(0.000420046 0.000481316 1.00088)
(0.000121473 0.000483353 1.00081)
(-0.000175917 0.000485595 1.00081)
(-0.000470306 0.000487916 1.00087)
(-0.000474321 0.000490401 1.00088)
(-0.00220808 0.000491534 1.00422)
(-0.00203801 0.000494986 0.995439)
(0.00199376 0.000471898 0.995517)
(0.00215038 0.000475515 1.00416)
(0.000439243 0.000476815 1.00089)
(0.000422034 0.000478743 1.00086)
(0.000124062 0.000481448 1.0008)
(-0.000173071 0.000484477 1.0008)
(-0.000467329 0.000487629 1.00085)
(-0.000471815 0.000490758 1.00087)
(-0.00220599 0.000492708 1.0042)
(-0.00203802 0.000495097 0.995427)
(0.00199501 0.000179842 0.995457)
(0.00215252 0.00018268 1.0041)
(0.000441182 0.000184254 1.00083)
(0.000424699 0.000186694 1.00081)
(0.000127221 0.0001898 1.00074)
(-0.000169718 0.00019324 1.00074)
(-0.000464015 0.000196806 1.0008)
(-0.000469206 0.00020017 1.00082)
(-0.00220325 0.000202361 1.00415)
(-0.00203612 0.000205809 0.995377)
(0.00199634 -0.000116056 0.995458)
(0.00215463 -0.000113906 1.00411)
(0.000443267 -0.000112372 1.00083)
(0.000427595 -0.000109745 1.00081)
(0.00013062 -0.000106523 1.00075)
(-0.000166058 -0.000102898 1.00075)
(-0.000460403 -9.90752e-05 1.0008)
(-0.000466285 -9.55349e-05 1.00082)
(-0.00220029 -9.29362e-05 1.00415)
(-0.00203431 -8.90561e-05 0.995386)
(0.00199766 -0.000413955 0.995518)
(0.00215657 -0.000413033 1.00417)
(0.000445358 -0.00041149 1.00089)
(0.000430541 -0.00040876 1.00087)
(0.000134064 -0.000405625 1.00081)
(-0.000162279 -0.00040209 1.00081)
(-0.000456661 -0.000398336 1.00087)
(-0.000463104 -0.00039496 1.00089)
(-0.0021972 -0.000392409 1.00422)
(-0.0020327 -0.000387833 0.995455)
(0.00199702 -0.000433097 0.995541)
(0.00215791 -0.000431282 1.00419)
(0.000447609 -0.000430329 1.00092)
(0.000433451 -0.000427985 1.00089)
(0.000137281 -0.000425455 1.00083)
(-0.00015879 -0.000422497 1.00083)
(-0.000453291 -0.000419231 1.0009)
(-0.000460444 -0.000416508 1.00091)
(-0.00219395 -0.000413824 1.00424)
(-0.00202942 -0.000411579 0.995487)
(0.00200512 -0.00214832 0.998811)
(0.00216298 -0.00215204 1.00747)
(0.000448624 -0.00214709 1.00419)
(0.000435296 -0.00214582 1.00417)
(0.000139482 -0.00214379 1.00411)
(-0.000156119 -0.00214128 1.00411)
(-0.000450676 -0.00213843 1.00417)
(-0.000457743 -0.0021353 1.00419)
(-0.00219587 -0.00213726 1.00752)
(-0.00203602 -0.00212959 0.998755)
(0.00199381 -0.00199005 0.990165)
(0.00215908 -0.00200137 0.99881)
(0.000449937 -0.00199341 0.995541)
(0.000435622 -0.00199421 0.99552)
(0.000141073 -0.00199306 0.995461)
(-0.000153687 -0.0019918 0.995463)
(-0.000447117 -0.00199054 0.995526)
(-0.000456102 -0.00198742 0.995551)
(-0.00218849 -0.00199414 0.998872)
(-0.00202228 -0.00198017 0.990133)
(0.00231955 0.00238572 0.9849)
(0.00231643 0.00240805 0.997737)
(0.000366334 0.00239678 0.993209)
(0.000516026 0.00240307 0.993175)
(9.84461e-05 0.00240604 0.993042)
(-0.000233872 0.00241005 0.993026)
(-0.000641701 0.00241476 0.993128)
(-0.0004579 0.00241499 0.993132)
(-0.00244329 0.00243134 0.997792)
(-0.00241423 0.00241785 0.984613)
(0.00234238 0.00240937 0.997949)
(0.00232999 0.00242216 1.01084)
(0.000371669 0.00241653 1.00629)
(0.000525671 0.00242156 1.00627)
(0.000106922 0.00242621 1.00615)
(-0.000225986 0.00243155 1.00614)
(-0.000636482 0.00243714 1.00626)
(-0.000451474 0.00244093 1.00627)
(-0.00244269 0.00245254 1.01095)
(-0.00242778 0.00245301 0.997774)
(0.00233056 0.000442102 0.993329)
(0.00232394 0.000445947 1.00619)
(0.000373689 0.000447831 1.00165)
(0.000527655 0.000449832 1.00163)
(0.000109654 0.00045331 1.0015)
(-0.000223034 0.000457062 1.0015)
(-0.000633234 0.00046083 1.00161)
(-0.000449862 0.000465087 1.00161)
(-0.00243135 0.000466607 1.00628)
(-0.00241179 0.000472269 0.993126)
(0.00233613 0.000620837 0.99331)
(0.00232815 0.000628056 1.00619)
(0.000375623 0.000629731 1.00164)
(0.000531188 0.000633113 1.00162)
(0.000114162 0.000637743 1.00149)
(-0.000218175 0.000642823 1.00149)
(-0.000628235 0.000648008 1.0016)
(-0.000445617 0.00065312 1.00161)
(-0.00242807 0.00065629 1.00627)
(-0.00241201 0.000660277 0.993123)
(0.0023379 0.000214075 0.993194)
(0.00233148 0.000219225 1.00608)
(0.000378831 0.000221501 1.00153)
(0.000535687 0.000225583 1.00151)
(0.000119375 0.000230659 1.00138)
(-0.000212729 0.00023621 1.00138)
(-0.00062292 0.000241921 1.00149)
(-0.00044167 0.000247302 1.0015)
(-0.00242317 0.000250447 1.00617)
(-0.00240803 0.000256738 0.993023)
(0.00234029 -0.000116284 0.993195)
(0.00233503 -0.000112377 1.00609)
(0.000382125 -0.000110005 1.00154)
(0.000540371 -0.000105781 1.00151)
(0.000124804 -0.000100701 1.00139)
(-0.000206897 -9.49712e-05 1.00139)
(-0.00061715 -8.88769e-05 1.0015)
(-0.000437231 -8.31601e-05 1.00151)
(-0.00241839 -7.97123e-05 1.00618)
(-0.00240486 -7.25326e-05 0.993041)
(0.00234312 -0.000531383 0.993313)
(0.00233855 -0.000530313 1.00621)
(0.000385299 -0.000527682 1.00166)
(0.000544975 -0.000523346 1.00164)
(0.000130187 -0.000518486 1.00152)
(-0.000200904 -0.000512918 1.00151)
(-0.0006111 -0.000506886 1.00163)
(-0.000432356 -0.000501419 1.00164)
(-0.00241354 -0.000497687 1.0063)
(-0.00240229 -0.000488921 0.993177)
(0.00234158 -0.000376376 0.993336)
(0.00234032 -0.000374031 1.00623)
(0.000389018 -0.000372755 1.00168)
(0.000549561 -0.000368917 1.00166)
(0.000135244 -0.000365137 1.00154)
(-0.000195315 -0.000360601 1.00154)
(-0.000605659 -0.000355488 1.00166)
(-0.000427906 -0.000350902 1.00167)
(-0.00240755 -0.000346939 1.00633)
(-0.00239635 -0.000342081 0.993218)
(0.00235568 -0.00233231 0.997882)
(0.00234984 -0.00233803 1.0108)
(0.000390356 -0.00232869 1.00624)
(0.000552578 -0.00232713 1.00622)
(0.00013853 -0.00232365 1.0061)
(-0.000191502 -0.00231976 1.0061)
(-0.000601594 -0.00231544 1.00621)
(-0.000423825 -0.0023097 1.00623)
(-0.00241242 -0.00231483 1.0109)
(-0.00240762 -0.00230157 0.997761)
(0.00233811 -0.00233249 0.984981)
(0.00234396 -0.00235012 0.997876)
(0.000392099 -0.00233622 0.993333)
(0.000552826 -0.00233809 0.993312)
(0.000141582 -0.00233565 0.993196)
(-0.000186839 -0.00233359 0.993199)
(-0.00059457 -0.00233183 0.993322)
(-0.000419922 -0.00232627 0.993349)
(-0.00239964 -0.00233794 0.997996)
(-0.00238547 -0.0023153 0.984907)
(0.00256778 0.00266695 0.979172)
(0.00241269 0.00269856 0.996455)
(0.000313066 0.00268245 0.990695)
(0.000594421 0.00269295 0.990643)
(4.83682e-05 0.00269746 0.990456)
(-0.000267302 0.00270443 0.990426)
(-0.000799383 0.00271337 0.990554)
(-0.000461566 0.00271434 0.99055)
(-0.00261151 0.0027392 0.996532)
(-0.00271645 0.00272426 0.978643)
(0.00260035 0.00255094 0.996818)
(0.00243261 0.00256951 1.01419)
(0.000322289 0.00256122 1.00839)
(0.000610608 0.0025698 1.00837)
(6.25053e-05 0.00257708 1.0082)
(-0.000253487 0.00258611 1.00819)
(-0.000790052 0.00259623 1.00834)
(-0.000450791 0.00260271 1.00835)
(-0.00260577 0.00262057 1.01438)
(-0.00273163 0.00262642 0.996508)
(0.00258321 0.000428322 0.990906)
(0.00242349 0.000435098 1.00823)
(0.000325605 0.000438211 1.00245)
(0.000613268 0.00044135 1.00242)
(6.66216e-05 0.000447031 1.00224)
(-0.000248769 0.00045306 1.00223)
(-0.000784548 0.000458996 1.00238)
(-0.000448949 0.000466017 1.00238)
(-0.00258815 0.00046742 1.00837)
(-0.00270683 0.000477648 0.990543)
(0.00259237 0.000755837 0.99088)
(0.00243054 0.000767863 1.00823)
(0.000328622 0.000769996 1.00244)
(0.000619243 0.000775657 1.00241)
(7.40279e-05 0.000783133 1.00224)
(-0.000240852 0.000791281 1.00222)
(-0.0007765 0.000799518 1.00237)
(-0.000442191 0.000807629 1.00238)
(-0.00258256 0.000812394 1.00837)
(-0.00270654 0.00082005 0.990547)
(0.00259463 0.000225537 0.990723)
(0.00243533 0.000233813 1.00809)
(0.000333722 0.000237064 1.00229)
(0.000626422 0.000243552 1.00226)
(8.22536e-05 0.00025149 1.00209)
(-0.000232302 0.000260145 1.00208)
(-0.000768168 0.000268994 1.00223)
(-0.000436408 0.000277446 1.00224)
(-0.00257412 0.000281735 1.00822)
(-0.00269906 0.000292849 0.990418)
(0.00259851 -8.67741e-05 0.990724)
(0.0024409 -8.02496e-05 1.0081)
(0.000338755 -7.6683e-05 1.0023)
(0.000633701 -7.01429e-05 1.00227)
(9.06396e-05 -6.2364e-05 1.0021)
(-0.000223321 -5.35816e-05 1.0021)
(-0.00075922 -4.42189e-05 1.00225)
(-0.000429829 -3.51887e-05 1.00226)
(-0.00256664 -3.02302e-05 1.00824)
(-0.00269355 -1.87878e-05 0.990446)
(0.00260372 -0.000627974 0.990885)
(0.00244686 -0.000626416 1.00827)
(0.000343422 -0.000622159 1.00247)
(0.000640695 -0.000615609 1.00244)
(9.88191e-05 -0.000608246 1.00228)
(-0.000214144 -0.00059972 1.00227)
(-0.000749743 -0.000590256 1.00243)
(-0.00042192 -0.000580968 1.00244)
(-0.00255964 -0.00057596 1.00842)
(-0.00269029 -0.000560846 0.990635)
(0.00260114 -0.00033653 0.990914)
(0.00244929 -0.000333251 1.0083)
(0.000349223 -0.000331777 1.0025)
(0.000647602 -0.000325824 1.00247)
(0.000106565 -0.000320293 1.00231)
(-0.000205349 -0.000313386 1.00231)
(-0.000740464 -0.000304997 1.00246)
(-0.000415027 -0.000297764 1.00248)
(-0.00254933 -0.000290289 1.00846)
(-0.00267961 -0.000281075 0.990698)
(0.00262181 -0.00244132 0.996705)
(0.00246355 -0.00244853 1.01414)
(0.000350729 -0.00243458 1.0083)
(0.000652337 -0.00243252 1.00828)
(0.000111458 -0.00242674 1.00812)
(-0.000199467 -0.00242064 1.00811)
(-0.000734681 -0.00241425 1.00827)
(-0.000407209 -0.00240404 1.00828)
(-0.00255508 -0.00241018 1.01429)
(-0.00269605 -0.00239178 0.996486)
(0.00259788 -0.00258869 0.979308)
(0.00245615 -0.00261273 0.996698)
(0.000353208 -0.0025924 0.990911)
(0.000652799 -0.00259551 0.990882)
(0.000116933 -0.00259098 0.990725)
(-0.000191814 -0.0025876 0.990729)
(-0.000721768 -0.00258561 0.990897)
(-0.000398967 -0.00257538 0.990936)
(-0.00253727 -0.00259237 0.996895)
(-0.00266552 -0.00256105 0.979176)
(0.0027491 0.00288933 0.973329)
(0.00245621 0.00293093 0.995131)
(0.000268486 0.00291033 0.988126)
(0.000646479 0.00292625 0.988029)
(-3.05071e-05 0.00293315 0.987798)
(-0.000296991 0.00294471 0.987744)
(-0.000954785 0.00296008 0.987873)
(-0.00049244 0.00296332 0.987876)
(-0.00275151 0.00299869 0.995222)
(-0.00296927 0.00298437 0.972432)
(0.00279245 0.00265068 0.995699)
(0.00248378 0.00267587 1.01765)
(0.000283268 0.00266567 1.01057)
(0.000671805 0.0026791 1.01053)
(-7.79887e-06 0.00269036 1.01033)
(-0.000273676 0.00270507 1.01031)
(-0.000937973 0.00272211 1.01049)
(-0.000473948 0.00273322 1.01051)
(-0.00273665 0.00275881 1.01794)
(-0.00298394 0.00277415 0.995203)
(0.00277003 0.000433352 0.988463)
(0.00247205 0.000444052 1.01034)
(0.000288512 0.000448986 1.0033)
(0.000675561 0.000453967 1.00323)
(-1.51704e-06 0.000462896 1.00302)
(-0.000266396 0.000472278 1.003)
(-0.000929312 0.000481324 1.00316)
(-0.000471933 0.000491973 1.00318)
(-0.00271109 0.000492973 1.01053)
(-0.00294912 0.000510588 0.987874)
(0.0027836 0.000878901 0.988408)
(0.00248283 0.000897068 1.01032)
(0.000293264 0.000899925 1.00327)
(0.000685161 0.000908938 1.0032)
(1.00394e-05 0.000920372 1.003)
(-0.000254061 0.000932859 1.00298)
(-0.000917139 0.000945379 1.00314)
(-0.000462037 0.000957403 1.00316)
(-0.00270219 0.000963533 1.01052)
(-0.00294703 0.00097674 0.987871)
(0.00278651 0.000223954 0.988225)
(0.0024896 0.000236342 1.01016)
(0.000301053 0.000241007 1.0031)
(0.00069602 0.000250812 1.00304)
(2.24097e-05 0.000262638 1.00283)
(-0.000241248 0.000275513 1.00281)
(-0.000904717 0.00028861 1.00298)
(-0.000454532 0.000301185 1.00301)
(-0.00268957 0.000305798 1.01036)
(-0.00293466 0.000323233 0.987737)
(0.00279242 -3.70248e-05 0.988227)
(0.00249792 -2.68239e-05 1.01018)
(0.000308461 -2.17267e-05 1.00311)
(0.00070682 -1.20188e-05 1.00305)
(3.47578e-05 -6.29176e-07 1.00285)
(-0.000228049 1.22617e-05 1.00284)
(-0.000891512 2.60813e-05 1.00301)
(-0.000445594 3.98707e-05 1.00304)
(-0.00267942 4.56086e-05 1.01038)
(-0.00292703 6.31369e-05 0.987779)
(0.00280089 -0.000705516 0.988412)
(0.0025072 -0.000702893 1.01039)
(0.000315061 -0.000696485 1.00331)
(0.000717026 -0.000687052 1.00326)
(4.66957e-05 -0.000676267 1.00306)
(-0.00021451 -0.000663571 1.00305)
(-0.00087705 -0.000649112 1.00322)
(-0.000434038 -0.000634154 1.00326)
(-0.00266956 -0.000625838 1.0106)
(-0.00292229 -0.000602322 0.988008)
(0.00279745 -0.000310806 0.988471)
(0.00251079 -0.00030621 1.01044)
(0.000323568 -0.000304547 1.00337)
(0.000727017 -0.00029581 1.00332)
(5.83132e-05 -0.000287846 1.00312)
(-0.000200905 -0.00027735 1.00311)
(-0.000862075 -0.000264173 1.0033)
(-0.000421215 -0.000250442 1.00334)
(-0.00265196 -0.000236805 1.01067)
(-0.00290654 -0.000220065 0.988121)
(0.00282503 -0.00250293 0.995521)
(0.00252987 -0.00251098 1.01757)
(0.000325266 -0.00249231 1.01044)
(0.000734163 -0.00248934 1.01039)
(6.56022e-05 -0.00248035 1.0102)
(-0.000191965 -0.00247117 1.01019)
(-0.000851266 -0.00246093 1.01037)
(-0.000406619 -0.00244319 1.0104)
(-0.00265598 -0.00244829 1.01779)
(-0.00292532 -0.00241867 0.995169)
(0.00279505 -0.00278144 0.973537)
(0.00252162 -0.0028116 0.99552)
(0.000328798 -0.00278448 0.988469)
(0.000735258 -0.00278878 0.988411)
(7.43069e-05 -0.00278139 0.988229)
(-0.000179428 -0.00277638 0.988234)
(-0.00083066 -0.00277298 0.988431)
(-0.000391584 -0.00275797 0.988509)
(-0.00262761 -0.00277829 0.995825)
(-0.00288343 -0.00273478 0.973346)
(0.0028684 0.00305988 0.967457)
(0.00244503 0.00311212 0.99378)
(0.000215166 0.00308767 0.985543)
(0.000665636 0.0031103 0.985377)
(-0.000137259 0.00312107 0.985103)
(-0.000335666 0.00313952 0.985014)
(-0.00111386 0.00316485 0.985118)
(-0.00054259 0.00317356 0.985133)
(-0.00287914 0.00322266 0.99388)
(-0.00319838 0.00321899 0.966009)
(0.00292367 0.00270978 0.994624)
(0.00248199 0.00274269 1.02117)
(0.000237864 0.00273147 1.01283)
(0.000703593 0.0027513 1.01274)
(-0.00010175 0.00276861 1.01252)
(-0.000297033 0.00279191 1.0125)
(-0.00108321 0.00281998 1.01269)
(-0.000510358 0.00284005 1.01275)
(-0.00284208 0.00287684 1.02161)
(-0.00320078 0.00291692 0.993875)
(0.00289619 0.000442996 0.98605)
(0.00246819 0.000458989 1.01249)
(0.00024559 0.000466262 1.0042)
(0.000709103 0.00047408 1.00408)
(-9.21007e-05 0.00048769 1.00384)
(-0.000285792 0.000502074 1.0038)
(-0.00106926 0.000516136 1.00397)
(-0.000506424 0.000532897 1.00402)
(-0.00280393 0.000534582 1.01277)
(-0.00315135 0.00056889 0.985144)
(0.00291494 0.000988229 0.985946)
(0.00248363 0.00101415 1.01244)
(0.000252999 0.00101817 1.00413)
(0.000723911 0.00103193 1.00402)
(-7.45911e-05 0.00104889 1.00379)
(-0.000266781 0.0010676 1.00375)
(-0.00105051 0.00108662 1.00392)
(-0.000491508 0.00110467 1.00397)
(-0.00278682 0.00111377 1.01272)
(-0.00314347 0.00113995 0.98512)
(0.00291896 0.000216176 0.98575)
(0.00249325 0.000234002 1.01227)
(0.000264504 0.000240717 1.00395)
(0.000739828 0.000255048 1.00384)
(-5.6414e-05 0.000272219 1.00362)
(-0.000247838 0.000290941 1.00359)
(-0.00103212 0.000309956 1.00376)
(-0.000480563 0.000328147 1.00382)
(-0.00276686 0.000334139 1.01255)
(-0.00312232 0.000362208 0.984989)
(0.00292764 2.74544e-05 0.985749)
(0.00250529 4.27075e-05 1.0123)
(0.000275148 4.9771e-05 1.00398)
(0.00075542 6.38163e-05 1.00387)
(-3.86896e-05 8.00896e-05 1.00365)
(-0.000228991 9.84401e-05 1.00362)
(-0.00101339 0.000118131 1.0038)
(-0.00046849 0.000137868 1.00386)
(-0.00275317 0.000146172 1.01258)
(-0.00311032 0.00017141 0.985033)
(0.00294032 -0.000760887 0.985947)
(0.00251894 -0.000756328 1.01254)
(0.000284334 -0.000747131 1.0042)
(0.000769991 -0.000733874 1.00409)
(-2.17843e-05 -0.000718465 1.00388)
(-0.000209747 -0.000700253 1.00386)
(-0.000992601 -0.000679228 1.00404)
(-0.00045094 -0.000655161 1.00411)
(-0.00273944 -0.000642841 1.01283)
(-0.00310446 -0.000605977 0.985282)
(0.00293654 -0.000283889 0.986051)
(0.00252452 -0.000277505 1.01264)
(0.000296314 -0.000275383 1.0043)
(0.000784055 -0.000263111 1.0042)
(-4.94322e-06 -0.000251927 1.00399)
(-0.00018975 -0.00023661 1.00397)
(-0.000968256 -0.000215722 1.00417)
(-0.000430063 -0.000193317 1.00425)
(-0.00271148 -0.000168536 1.01295)
(-0.00307934 -0.000137496 0.985478)
(0.00297139 -0.00251718 0.994354)
(0.00254873 -0.00252533 1.02106)
(0.000298443 -0.00250177 1.01264)
(0.00079429 -0.00249727 1.01255)
(5.45868e-06 -0.00248426 1.01232)
(-0.000175299 -0.00247055 1.01231)
(-0.000951214 -0.00245494 1.0125)
(-0.000403474 -0.00242505 1.01257)
(-0.0027064 -0.0024209 1.02135)
(-0.00309912 -0.00237295 0.99381)
(0.00293587 -0.00291698 0.967752)
(0.00254026 -0.00295278 0.994365)
(0.00030319 -0.00291865 0.986053)
(0.000796451 -0.00292382 0.985949)
(1.88124e-05 -0.00291294 0.985753)
(-0.000157146 -0.00290532 0.985759)
(-0.00091761 -0.00290108 0.985976)
(-0.000373058 -0.00287607 0.98612)
(-0.00265997 -0.00289728 0.994832)
(-0.00304086 -0.00283656 0.967534)
(0.00293556 0.00319125 0.961549)
(0.00238949 0.00325485 0.992359)
(0.000148366 0.0032277 0.982928)
(0.000647899 0.00325868 0.982678)
(-0.000274899 0.00327569 0.982356)
(-0.000396005 0.00330478 0.982215)
(-0.00128698 0.00334499 0.982266)
(-0.00061725 0.00336503 0.982281)
(-0.0030137 0.00343159 0.992439)
(-0.00339479 0.00345324 0.959269)
(0.00300413 0.00274317 0.99356)
(0.0024382 0.00278522 1.02469)
(0.00018218 0.00277444 1.01512)
(0.00070337 0.00280286 1.01499)
(-0.000219949 0.00282949 1.01475)
(-0.000333158 0.00286614 1.01473)
(-0.00123193 0.00291106 1.01492)
(-0.000561692 0.00294675 1.01502)
(-0.00293864 0.00299697 1.02534)
(-0.00337989 0.00307151 0.992458)
(0.00297222 0.00045769 0.983661)
(0.00242329 0.000480704 1.01464)
(0.000193257 0.000491102 1.00514)
(0.000711889 0.000503368 1.00496)
(-0.000204926 0.000523826 1.0047)
(-0.000315793 0.0005458 1.00464)
(-0.00121045 0.000567555 1.00479)
(-0.000556436 0.000592208 1.00487)
(-0.0028906 0.000592167 1.01504)
(-0.00331404 0.000641974 0.982321)
(0.00299698 0.00108689 0.983497)
(0.00244463 0.00112256 1.01456)
(0.000204776 0.00112857 1.00503)
(0.000734186 0.00114905 1.00486)
(-0.000178776 0.00117383 1.0046)
(-0.000286931 0.00120139 1.00455)
(-0.0011827 0.00122938 1.00471)
(-0.000536808 0.00125443 1.0048)
(-0.0028644 0.00126245 1.01497)
(-0.00330323 0.00129986 0.982309)
(0.00300295 0.000207724 0.983295)
(0.00245846 0.000232808 1.0144)
(0.000221448 0.000242533 1.00486)
(0.000757122 0.000263096 1.00469)
(-0.000152556 0.000287573 1.00444)
(-0.000259894 0.000314043 1.0044)
(-0.00115732 0.000340144 1.00457)
(-0.000525843 0.000364214 1.00466)
(-0.0028409 0.000364402 1.01481)
(-0.00328118 0.000388519 0.982198)
(0.0030154 0.000102959 0.983291)
(0.0024756 0.000125056 1.01445)
(0.000236531 0.000134713 1.00489)
(0.000779175 0.000154643 1.00472)
(-0.000127841 0.000177284 1.00448)
(-0.000234294 0.000202499 1.00445)
(-0.00113269 0.000228942 1.00462)
(-0.000514626 0.000256037 1.00472)
(-0.00283528 0.000260985 1.01486)
(-0.00327577 0.00027344 0.982249)
(0.00303337 -0.000795509 0.98349)
(0.00249484 -0.000787685 1.01471)
(0.000249198 -0.000774947 1.00512)
(0.000799456 -0.00075665 1.00496)
(-0.000104689 -0.000735209 1.00473)
(-0.000208152 -0.000709871 1.0047)
(-0.00110367 -0.000679988 1.00488)
(-0.000492061 -0.000643548 1.00499)
(-0.00282443 -0.000622028 1.01514)
(-0.00327392 -0.000579031 0.982528)
(0.00303014 -0.000254877 0.983644)
(0.00250365 -0.000245966 1.01486)
(0.000265567 -0.000242963 1.00528)
(0.000818868 -0.000226176 1.00513)
(-8.08719e-05 -0.000210556 1.0049)
(-0.000179035 -0.000188188 1.00488)
(-0.00106631 -0.000156797 1.00507)
(-0.000453955 -0.000115246 1.00519)
(-0.00277458 -6.65172e-05 1.01534)
(-0.00323673 5.93249e-06 0.982839)
(0.00307246 -0.00249778 0.993167)
(0.00253323 -0.00250508 1.02454)
(0.000268605 -0.00247647 1.01485)
(0.000833245 -0.00246941 1.01471)
(-6.56376e-05 -0.00245118 1.01446)
(-0.000156853 -0.00243148 1.01444)
(-0.0010337 -0.00240564 1.01463)
(-0.000401882 -0.00235339 1.01473)
(-0.00272879 -0.00231391 1.02496)
(-0.00322985 -0.00219615 0.992394)
(0.00303215 -0.00300728 0.961944)
(0.00252542 -0.00304801 0.993197)
(0.000274984 -0.00300674 0.983655)
(0.000837339 -0.00301216 0.983497)
(-4.67833e-05 -0.00299701 0.983296)
(-0.00012878 -0.0029866 0.983302)
(-0.000980891 -0.00297766 0.98353)
(-0.000332853 -0.00294103 0.983763)
(-0.00261728 -0.00294247 0.993918)
(-0.00312902 -0.00283924 0.961816)
(0.00296082 0.00329633 0.955632)
(0.00230197 0.00337203 0.990852)
(6.80054e-05 0.00334385 0.980281)
(0.000590586 0.00338508 0.97993)
(-0.000448918 0.00341158 0.979549)
(-0.000493905 0.00345625 0.979331)
(-0.00149393 0.00351904 0.979291)
(-0.000738408 0.00355856 0.979285)
(-0.0032246 0.00364935 0.990865)
(-0.00370857 0.00369662 0.952222)
(0.00304433 0.00276733 0.992515)
(0.0023653 0.00282016 1.02819)
(0.000116774 0.0028118 1.01743)
(0.000669794 0.00285144 1.01725)
(-0.000365731 0.00289182 1.017)
(-0.000393589 0.00294815 1.01697)
(-0.00139857 0.00301984 1.01717)
(-0.000645794 0.00308222 1.01733)
(-0.00309883 0.00315462 1.02915)
(-0.00368403 0.00329709 0.991084)
(0.00300896 0.000482125 0.981307)
(0.00235062 0.000514119 1.01678)
(0.000132279 0.000528651 1.00611)
(0.000683073 0.000547438 1.00587)
(-0.000342641 0.000577604 1.00558)
(-0.000366163 0.000610935 1.00549)
(-0.00136368 0.000645313 1.00562)
(-0.000632675 0.00068453 1.00574)
(-0.00300938 0.000688694 1.01732)
(-0.00354503 0.000817655 0.979469)
(0.0030407 0.00117982 0.981074)
(0.00237938 0.0012276 1.01667)
(0.000149796 0.0012368 1.00595)
(0.000715788 0.00126656 1.00571)
(-0.000304001 0.00130231 1.00544)
(-0.000322659 0.00134261 1.00536)
(-0.00132103 0.00138331 1.00551)
(-0.000601089 0.0014185 1.00565)
(-0.002946 0.00142174 1.0172)
(-0.00346045 0.00151182 0.979406)
(0.00304984 0.00020309 0.98087)
(0.00239933 0.000237794 1.01652)
(0.000173544 0.000251838 1.00579)
(0.000748496 0.000281002 1.00556)
(-0.000266507 0.000315644 1.00529)
(-0.000284628 0.00035268 1.00523)
(-0.00128762 0.000387593 1.00539)
(-0.000596157 0.000415994 1.00553)
(-0.00293028 0.000397095 1.01704)
(-0.00340322 0.00044171 0.979296)
(0.00306735 0.000186073 0.980861)
(0.00242338 0.000217355 1.01659)
(0.000194774 0.000230546 1.00583)
(0.000779426 0.000258583 1.00561)
(-0.000232371 0.000289917 1.00535)