/*--------------------------------*- C++ -*----------------------------------*\
  =========                 |
  \\      /  F ield         | OpenFOAM: The Open Source CFD Toolbox
   \\    /   O peration     | Website:  https://openfoam.org
    \\  /    A nd           | Version:  6
     \\/     M anipulation  |
\*---------------------------------------------------------------------------*/
FoamFile
{
    version     2.0;
    format      ascii;
    class       volScalarField;
    location    "0.084";
    object      p;
}
// * * * * * * * * * * * * * * * * * * * * * * * * * * * * * * * * * * * * * //

dimensions      [0 2 -2 0 0 0 0];

internalField   nonuniform List<scalar> 
48800
(
-4.29225e-08
1.10075e-05
3.39044e-05
5.4611e-05
7.61199e-05
8.95537e-05
9.44475e-05
9.18283e-05
8.20673e-05
6.81278e-05
5.33585e-05
4.08664e-05
3.38565e-05
3.49632e-05
4.40389e-05
6.15021e-05
8.62175e-05
0.00010889
0.000132076
0.000142503
-9.0351e-06
-4.39235e-08
4.85081e-05
5.62395e-05
8.23406e-05
9.57689e-05
9.71142e-05
9.43661e-05
8.33293e-05
6.79222e-05
5.21829e-05
3.821e-05
2.99185e-05
3.08587e-05
3.62757e-05
5.3638e-05
8.26496e-05
9.27381e-05
0.000141688
0.000149861
-3.08459e-05
-4.23605e-06
4.95589e-05
5.14213e-05
8.58498e-05
9.90426e-05
9.83069e-05
9.609e-05
8.4197e-05
6.77401e-05
5.13415e-05
3.62937e-05
2.71077e-05
2.85246e-05
3.18436e-05
4.9143e-05
8.65162e-05
9.10023e-05
0.000144896
0.000170287
-6.28952e-05
-3.02482e-05
3.28207e-05
4.55471e-05
8.45629e-05
9.77207e-05
9.83767e-05
9.71256e-05
8.46681e-05
6.76625e-05
5.09403e-05
3.53523e-05
2.56215e-05
2.80392e-05
3.28095e-05
5.02519e-05
9.23707e-05
0.000107788
0.000170816
0.000201866
-9.68354e-05
-5.38214e-05
2.03051e-05
3.66357e-05
7.80923e-05
9.42946e-05
9.70876e-05
9.67111e-05
8.44597e-05
6.75907e-05
5.09954e-05
3.55758e-05
2.61155e-05
2.95084e-05
3.6544e-05
5.71981e-05
0.00010191
0.000121026
0.000195039
0.000236268
-0.000129767
-7.79362e-05
3.37697e-06
2.43895e-05
7.08229e-05
9.05863e-05
9.51464e-05
9.5831e-05
8.42156e-05
6.76659e-05
5.12676e-05
3.62111e-05
2.7476e-05
3.2064e-05
4.10285e-05
6.54152e-05
0.000115254
0.00013918
0.000220401
0.000270356
-0.000158626
-0.000100484
-1.29492e-05
1.3309e-05
6.38681e-05
8.63057e-05
9.2637e-05
9.46513e-05
8.38566e-05
6.77718e-05
5.17384e-05
3.71942e-05
2.93753e-05
3.54328e-05
4.63365e-05
7.35719e-05
0.000127693
0.000156994
0.000244496
0.000300709
-0.000181427
-0.000118243
-2.58615e-05
4.18664e-06
5.76302e-05
8.2305e-05
9.03352e-05
9.35476e-05
8.34841e-05
6.78766e-05
5.22654e-05
3.82425e-05
3.12407e-05
3.86197e-05
5.13707e-05
8.1001e-05
0.000138152
0.000171355
0.000263758
0.000324983
-0.00019718
-0.000130722
-3.52117e-05
-2.60157e-06
5.29623e-05
7.93622e-05
8.8649e-05
9.27069e-05
8.31862e-05
6.7966e-05
5.27072e-05
3.9105e-05
3.27109e-05
4.10272e-05
5.51448e-05
8.66163e-05
0.000145996
0.000181844
0.000277414
0.000341896
-0.000205207
-0.00013719
-4.01309e-05
-6.17069e-06
5.05281e-05
7.78233e-05
8.77441e-05
9.22374e-05
8.30153e-05
6.80157e-05
5.29569e-05
3.95937e-05
3.35339e-05
4.23352e-05
5.71451e-05
8.95733e-05
0.000150145
0.000187388
0.000284525
0.000350559
-0.000205203
-0.000137183
-4.01261e-05
-6.16713e-06
5.05313e-05
7.78263e-05
8.77469e-05
9.224e-05
8.30178e-05
6.80185e-05
5.29604e-05
3.9598e-05
3.35382e-05
4.23385e-05
5.71477e-05
8.95758e-05
0.000150148
0.000187389
0.000284526
0.00035056
-0.000197168
-0.000130705
-3.52006e-05
-2.59386e-06
5.29697e-05
7.93699e-05
8.86566e-05
9.27139e-05
8.31928e-05
6.79732e-05
5.27158e-05
3.91145e-05
3.272e-05
4.10361e-05
5.51543e-05
8.66248e-05
0.000146001
0.000181847
0.000277417
0.000341901
-0.000181407
-0.000118229
-2.58524e-05
4.1963e-06
5.76424e-05
8.23183e-05
9.03481e-05
9.356e-05
8.34964e-05
6.78898e-05
5.22793e-05
3.8256e-05
3.12559e-05
3.86389e-05
5.13888e-05
8.10113e-05
0.000138157
0.000171364
0.000263777
0.000324992
-0.000158609
-0.000100501
-1.29562e-05
1.33196e-05
6.38876e-05
8.63248e-05
9.26534e-05
9.46674e-05
8.38737e-05
6.77893e-05
5.17548e-05
3.72118e-05
2.93998e-05
3.54587e-05
4.63491e-05
7.35726e-05
0.0001277
0.000157024
0.000244554
0.000300727
-0.000129767
-7.79928e-05
3.35039e-06
2.43989e-05
7.08468e-05
9.06101e-05
9.5166e-05
9.58496e-05
8.42355e-05
6.76852e-05
5.12859e-05
3.62348e-05
2.75062e-05
3.20858e-05
4.10367e-05
6.54227e-05
0.000115278
0.000139247
0.000220499
0.000270385
-9.68298e-05
-5.38418e-05
2.03042e-05
3.66473e-05
7.81118e-05
9.4319e-05
9.711e-05
9.67306e-05
8.44789e-05
6.76096e-05
5.10166e-05
3.56042e-05
2.61438e-05
2.9533e-05
3.65748e-05
5.72265e-05
0.000101941
0.00012107
0.000195106
0.000236288
-6.28529e-05
-3.01443e-05
3.28882e-05
4.55758e-05
8.45765e-05
9.77413e-05
9.83999e-05
9.7142e-05
8.46809e-05
6.76785e-05
5.09652e-05
3.53834e-05
2.56524e-05
2.80769e-05
3.28518e-05
5.02832e-05
9.23609e-05
0.000107758
0.000170771
0.000201857
-3.07799e-05
-4.10627e-06
4.96412e-05
5.14723e-05
8.58854e-05
9.90785e-05
9.83372e-05
9.6105e-05
8.42035e-05
6.77529e-05
5.1369e-05
3.63338e-05
2.71508e-05
2.85571e-05
3.18636e-05
4.91454e-05
8.65064e-05
9.09669e-05
0.00014483
0.000170265
-9.04035e-06
-1.51769e-07
4.84257e-05
5.62593e-05
8.24302e-05
9.58694e-05
9.71923e-05
9.44115e-05
8.33528e-05
6.79442e-05
5.22166e-05
3.82534e-05
2.99444e-05
3.08255e-05
3.61853e-05
5.35662e-05
8.26762e-05
9.28812e-05
0.000141886
0.000149918
-2.38605e-07
1.07479e-05
3.37591e-05
5.45865e-05
7.61768e-05
8.96351e-05
9.45174e-05
9.1876e-05
8.20971e-05
6.81492e-05
5.33777e-05
4.08807e-05
3.38488e-05
3.49098e-05
4.39488e-05
6.14422e-05
8.62554e-05
0.000109066
0.000132384
0.000142682
-0.0201232
-0.0201005
-0.0200427
-0.0199669
-0.0198782
-0.019792
-0.0197131
-0.0196427
-0.019581
-0.0195242
-0.0194672
-0.0194052
-0.019334
-0.019251
-0.0191579
-0.0190584
-0.0189594
-0.018878
-0.0188203
-0.0188009
-0.0201329
-0.0201043
-0.0200153
-0.0199504
-0.0198576
-0.0197734
-0.0197008
-0.0196337
-0.0195767
-0.0195247
-0.0194721
-0.0194152
-0.0193488
-0.0192692
-0.0191827
-0.0190851
-0.0189819
-0.0189105
-0.0188216
-0.0187974
-0.0201767
-0.0201187
-0.0200156
-0.0199516
-0.0198482
-0.0197639
-0.0196943
-0.0196284
-0.0195742
-0.0195256
-0.019476
-0.0194225
-0.0193591
-0.0192807
-0.0191971
-0.019099
-0.0189848
-0.0189139
-0.0188116
-0.0187598
-0.0202501
-0.0201729
-0.0200496
-0.0199674
-0.0198545
-0.0197673
-0.0196948
-0.0196275
-0.0195741
-0.0195266
-0.0194781
-0.0194256
-0.0193629
-0.0192829
-0.0191961
-0.0190947
-0.0189707
-0.0188814
-0.0187595
-0.0186898
-0.0203361
-0.020235
-0.0200887
-0.0199943
-0.0198727
-0.0197781
-0.0197006
-0.0196306
-0.019576
-0.0195278
-0.0194786
-0.0194252
-0.019361
-0.019278
-0.0191858
-0.0190763
-0.0189431
-0.0188414
-0.0186969
-0.0186043
-0.0204242
-0.0203015
-0.0201365
-0.0200287
-0.0198955
-0.0197922
-0.0197094
-0.0196358
-0.0195787
-0.0195287
-0.019478
-0.0194227
-0.0193557
-0.0192686
-0.0191704
-0.0190518
-0.0189063
-0.0187908
-0.0186278
-0.0185144
-0.0205048
-0.020365
-0.0201836
-0.0200626
-0.0199188
-0.019808
-0.0197196
-0.0196419
-0.0195818
-0.0195295
-0.0194766
-0.0194189
-0.0193485
-0.0192568
-0.0191525
-0.0190256
-0.0188691
-0.0187401
-0.0185607
-0.0184304
-0.0205708
-0.0204174
-0.020223
-0.0200917
-0.0199398
-0.0198224
-0.0197291
-0.0196475
-0.0195847
-0.01953
-0.019475
-0.0194149
-0.0193414
-0.0192454
-0.0191355
-0.0190016
-0.0188364
-0.0186967
-0.0185043
-0.0183608
-0.0206174
-0.0204549
-0.0202518
-0.0201134
-0.0199554
-0.0198333
-0.0197362
-0.0196519
-0.0195868
-0.0195304
-0.0194737
-0.0194116
-0.0193357
-0.0192366
-0.0191226
-0.0189834
-0.0188119
-0.0186648
-0.0184636
-0.0183111
-0.0206415
-0.0204745
-0.020267
-0.0201248
-0.0199637
-0.0198391
-0.0197401
-0.0196542
-0.019588
-0.0195306
-0.0194729
-0.0194097
-0.0193325
-0.0192318
-0.0191156
-0.0189737
-0.0187989
-0.0186479
-0.0184423
-0.0182853
-0.0206415
-0.0204745
-0.020267
-0.0201248
-0.0199637
-0.0198391
-0.01974
-0.0196542
-0.019588
-0.0195306
-0.0194729
-0.0194097
-0.0193325
-0.0192318
-0.0191156
-0.0189737
-0.0187989
-0.0186479
-0.0184423
-0.0182853
-0.0206174
-0.0204549
-0.0202518
-0.0201134
-0.0199554
-0.0198333
-0.0197362
-0.0196519
-0.0195868
-0.0195304
-0.0194737
-0.0194116
-0.0193357
-0.0192366
-0.0191226
-0.0189834
-0.0188119
-0.0186648
-0.0184636
-0.0183111
-0.0205708
-0.0204174
-0.020223
-0.0200917
-0.0199398
-0.0198224
-0.0197291
-0.0196475
-0.0195846
-0.01953
-0.019475
-0.0194148
-0.0193413
-0.0192454
-0.0191355
-0.0190016
-0.0188364
-0.0186967
-0.0185043
-0.0183608
-0.0205048
-0.020365
-0.0201836
-0.0200626
-0.0199188
-0.0198079
-0.0197196
-0.0196419
-0.0195818
-0.0195294
-0.0194766
-0.0194189
-0.0193485
-0.0192568
-0.0191525
-0.0190256
-0.0188691
-0.01874
-0.0185606
-0.0184304
-0.0204242
-0.0203016
-0.0201366
-0.0200287
-0.0198954
-0.0197922
-0.0197094
-0.0196358
-0.0195787
-0.0195287
-0.019478
-0.0194227
-0.0193557
-0.0192686
-0.0191704
-0.0190518
-0.0189063
-0.0187908
-0.0186277
-0.0185144
-0.0203361
-0.020235
-0.0200887
-0.0199943
-0.0198727
-0.0197781
-0.0197006
-0.0196306
-0.019576
-0.0195277
-0.0194786
-0.0194252
-0.019361
-0.019278
-0.0191857
-0.0190763
-0.0189431
-0.0188414
-0.0186969
-0.0186043
-0.0202501
-0.0201728
-0.0200495
-0.0199674
-0.0198545
-0.0197673
-0.0196948
-0.0196275
-0.0195741
-0.0195266
-0.0194781
-0.0194256
-0.0193629
-0.0192829
-0.0191961
-0.0190947
-0.0189707
-0.0188814
-0.0187595
-0.0186899
-0.0201766
-0.0201185
-0.0200155
-0.0199516
-0.0198482
-0.0197639
-0.0196943
-0.0196283
-0.0195742
-0.0195256
-0.019476
-0.0194225
-0.0193591
-0.0192807
-0.0191971
-0.019099
-0.0189849
-0.018914
-0.0188117
-0.0187598
-0.0201329
-0.0201044
-0.0200154
-0.0199504
-0.0198575
-0.0197733
-0.0197007
-0.0196337
-0.0195767
-0.0195247
-0.0194721
-0.0194152
-0.0193488
-0.0192693
-0.0191828
-0.0190852
-0.0189818
-0.0189104
-0.0188215
-0.0187974
-0.0201233
-0.0201008
-0.0200428
-0.0199669
-0.0198782
-0.019792
-0.0197131
-0.0196427
-0.019581
-0.0195241
-0.0194672
-0.0194052
-0.0193341
-0.019251
-0.019158
-0.0190585
-0.0189594
-0.0188779
-0.01882
-0.0188007
-0.0402416
-0.0402047
-0.040108
-0.0399738
-0.039816
-0.0396568
-0.0395057
-0.0393659
-0.0392378
-0.0391159
-0.0389932
-0.0388622
-0.0387168
-0.0385539
-0.0383769
-0.0381931
-0.038016
-0.0378711
-0.0377743
-0.0377432
-0.0402547
-0.0402014
-0.040067
-0.0399414
-0.03978
-0.0396249
-0.0394832
-0.0393502
-0.0392303
-0.039117
-0.0390024
-0.0388802
-0.0387434
-0.0385877
-0.0384204
-0.0382406
-0.0380594
-0.0379217
-0.037787
-0.0377416
-0.0403256
-0.0402285
-0.0400696
-0.0399392
-0.0397645
-0.039609
-0.0394711
-0.039341
-0.0392262
-0.0391187
-0.0390097
-0.0388934
-0.0387619
-0.0386091
-0.0384456
-0.0382646
-0.0380696
-0.0379262
-0.0377678
-0.0376815
-0.0404472
-0.0403153
-0.0401233
-0.0399661
-0.0397765
-0.0396147
-0.0394723
-0.0393403
-0.0392265
-0.0391208
-0.0390135
-0.0388989
-0.0387681
-0.038613
-0.0384444
-0.0382564
-0.0380455
-0.0378749
-0.0376844
-0.0375657
-0.0405924
-0.0404209
-0.0401921
-0.040013
-0.0398076
-0.0396335
-0.0394829
-0.0393463
-0.0392301
-0.039123
-0.0390144
-0.0388981
-0.0387645
-0.0386042
-0.0384264
-0.038225
-0.0379972
-0.0378041
-0.0375775
-0.0374208
-0.0407422
-0.0405347
-0.0402742
-0.0400718
-0.0398471
-0.0396589
-0.0394989
-0.0393559
-0.0392353
-0.0391248
-0.0390133
-0.0388933
-0.0387547
-0.038587
-0.0383987
-0.038182
-0.0379339
-0.0377168
-0.0374585
-0.0372669
-0.0408802
-0.0406433
-0.0403549
-0.0401304
-0.0398882
-0.0396868
-0.0395173
-0.039367
-0.039241
-0.0391263
-0.0390108
-0.0388862
-0.0387415
-0.0385657
-0.0383667
-0.0381356
-0.0378688
-0.0376288
-0.0373427
-0.0371222
-0.0409938
-0.0407338
-0.0404234
-0.0401814
-0.039925
-0.0397125
-0.0395342
-0.0393774
-0.0392463
-0.0391274
-0.0390078
-0.0388787
-0.0387284
-0.0385451
-0.0383364
-0.0380931
-0.0378112
-0.0375529
-0.0372446
-0.0370014
-0.0410744
-0.0407987
-0.0404733
-0.040219
-0.0399525
-0.0397318
-0.0395471
-0.0393853
-0.0392504
-0.0391281
-0.0390053
-0.0388727
-0.038718
-0.0385292
-0.0383133
-0.0380609
-0.0377681
-0.0374971
-0.0371736
-0.0369151
-0.041116
-0.0408326
-0.0404996
-0.040239
-0.0399671
-0.0397421
-0.0395541
-0.0393896
-0.0392526
-0.0391284
-0.0390039
-0.0388693
-0.0387123
-0.0385205
-0.0383008
-0.0380437
-0.0377452
-0.0374675
-0.0371364
-0.0368702
-0.041116
-0.0408326
-0.0404996
-0.040239
-0.0399671
-0.0397421
-0.0395541
-0.0393896
-0.0392526
-0.0391284
-0.0390039
-0.0388693
-0.0387123
-0.0385205
-0.0383008
-0.0380437
-0.0377452
-0.0374675
-0.0371364
-0.0368702
-0.0410744
-0.0407987
-0.0404733
-0.040219
-0.0399525
-0.0397318
-0.0395471
-0.0393853
-0.0392504
-0.0391281
-0.0390053
-0.0388727
-0.038718
-0.0385292
-0.0383133
-0.0380609
-0.0377681
-0.0374971
-0.0371736
-0.0369151
-0.0409938
-0.0407338
-0.0404234
-0.0401814
-0.039925
-0.0397125
-0.0395343
-0.0393774
-0.0392463
-0.0391274
-0.0390078
-0.0388788
-0.0387284
-0.0385451
-0.0383364
-0.0380931
-0.0378112
-0.0375529
-0.0372446
-0.0370014
-0.0408802
-0.0406433
-0.0403549
-0.0401304
-0.0398882
-0.0396868
-0.0395173
-0.039367
-0.039241
-0.0391263
-0.0390108
-0.0388862
-0.0387415
-0.0385657
-0.0383667
-0.0381356
-0.0378688
-0.0376288
-0.0373426
-0.0371222
-0.0407422
-0.0405348
-0.0402742
-0.0400718
-0.0398471
-0.0396589
-0.0394989
-0.0393559
-0.0392353
-0.0391248
-0.0390133
-0.0388933
-0.0387547
-0.038587
-0.0383987
-0.038182
-0.0379338
-0.0377167
-0.0374584
-0.0372669
-0.0405924
-0.0404209
-0.0401922
-0.040013
-0.0398076
-0.0396335
-0.0394829
-0.0393463
-0.0392301
-0.039123
-0.0390144
-0.0388981
-0.0387645
-0.0386042
-0.0384264
-0.038225
-0.0379972
-0.0378041
-0.0375774
-0.0374208
-0.0404472
-0.0403152
-0.0401232
-0.0399661
-0.0397765
-0.0396147
-0.0394723
-0.0393403
-0.0392265
-0.0391208
-0.0390135
-0.0388989
-0.0387681
-0.038613
-0.0384444
-0.0382564
-0.0380455
-0.037875
-0.0376844
-0.0375657
-0.0403255
-0.0402284
-0.0400695
-0.0399392
-0.0397645
-0.039609
-0.0394711
-0.039341
-0.0392262
-0.0391187
-0.0390097
-0.0388934
-0.0387619
-0.0386091
-0.0384456
-0.0382646
-0.0380696
-0.0379262
-0.0377679
-0.0376815
-0.0402548
-0.0402015
-0.0400671
-0.0399414
-0.0397799
-0.0396249
-0.0394831
-0.0393502
-0.0392303
-0.039117
-0.0390024
-0.0388802
-0.0387434
-0.0385877
-0.0384205
-0.0382407
-0.0380594
-0.0379216
-0.0377869
-0.0377415
-0.0402418
-0.040205
-0.0401082
-0.0399738
-0.0398159
-0.0396568
-0.0395056
-0.0393659
-0.0392377
-0.0391159
-0.0389931
-0.0388622
-0.0387168
-0.0385539
-0.038377
-0.0381932
-0.038016
-0.0378709
-0.0377741
-0.0377431
-0.0603567
-0.060301
-0.0601588
-0.05996
-0.0597292
-0.0594963
-0.0592754
-0.0590718
-0.058885
-0.0587074
-0.0585282
-0.0583365
-0.058123
-0.0578832
-0.0576216
-0.0573493
-0.0570868
-0.0568696
-0.0567259
-0.0566786
-0.0603777
-0.0602911
-0.0601027
-0.0599098
-0.0596759
-0.0594496
-0.0592416
-0.0590487
-0.0588743
-0.0587094
-0.0585426
-0.0583639
-0.0581634
-0.0579351
-0.0576869
-0.0574211
-0.0571547
-0.0569412
-0.0567505
-0.0566751
-0.0604845
-0.0603355
-0.060109
-0.0599042
-0.059654
-0.0594265
-0.0592234
-0.0590353
-0.0588685
-0.0587122
-0.0585539
-0.058384
-0.0581914
-0.057968
-0.0577245
-0.0574566
-0.0571726
-0.0569457
-0.0567176
-0.0565835
-0.060666
-0.0604624
-0.0601868
-0.0599448
-0.0596728
-0.0594352
-0.0592255
-0.0590348
-0.0588692
-0.0587154
-0.0585596
-0.058392
-0.0582002
-0.0579737
-0.0577226
-0.0574431
-0.0571357
-0.0568706
-0.0565942
-0.0564085
-0.0608827
-0.0606201
-0.0602909
-0.0600152
-0.0597189
-0.0594631
-0.0592415
-0.0590439
-0.0588746
-0.0587185
-0.0585608
-0.0583906
-0.0581944
-0.0579597
-0.0576951
-0.0573956
-0.0570621
-0.0567618
-0.0564323
-0.0561895
-0.0611059
-0.0607897
-0.0604129
-0.0601023
-0.0597778
-0.0595013
-0.0592657
-0.0590585
-0.0588824
-0.0587212
-0.0585588
-0.058383
-0.058179
-0.0579332
-0.0576527
-0.0573302
-0.0569665
-0.0566298
-0.0562524
-0.0559573
-0.0613114
-0.0609509
-0.0605327
-0.0601894
-0.0598391
-0.0595431
-0.0592931
-0.0590751
-0.058891
-0.0587233
-0.0585547
-0.0583719
-0.0581587
-0.0579006
-0.0576037
-0.0572597
-0.0568681
-0.0564971
-0.0560778
-0.0557391
-0.0614806
-0.0610856
-0.0606346
-0.0602652
-0.0598939
-0.0595813
-0.0593185
-0.0590907
-0.0588989
-0.0587248
-0.05855
-0.0583602
-0.0581385
-0.0578692
-0.0575577
-0.0571952
-0.0567807
-0.0563823
-0.0559298
-0.0555569
-0.0616004
-0.0611821
-0.0607087
-0.0603212
-0.0599348
-0.0596101
-0.0593377
-0.0591026
-0.0589049
-0.0587257
-0.0585461
-0.0583508
-0.0581225
-0.0578447
-0.0575225
-0.0571464
-0.0567156
-0.0562979
-0.0558227
-0.0554267
-0.0616623
-0.0612325
-0.0607477
-0.0603508
-0.0599566
-0.0596254
-0.0593481
-0.059109
-0.0589082
-0.0587262
-0.0585438
-0.0583456
-0.0581137
-0.0578315
-0.0575035
-0.0571203
-0.0566809
-0.0562533
-0.0557665
-0.055359
-0.0616623
-0.0612325
-0.0607477
-0.0603508
-0.0599566
-0.0596254
-0.0593481
-0.059109
-0.0589082
-0.0587262
-0.0585438
-0.0583456
-0.0581137
-0.0578315
-0.0575035
-0.0571203
-0.0566809
-0.0562533
-0.0557665
-0.055359
-0.0616004
-0.0611821
-0.0607087
-0.0603212
-0.0599348
-0.0596101
-0.0593377
-0.0591026
-0.0589049
-0.0587257
-0.0585461
-0.0583508
-0.0581225
-0.0578448
-0.0575225
-0.0571464
-0.0567156
-0.0562979
-0.0558227
-0.0554267
-0.0614806
-0.0610856
-0.0606346
-0.0602652
-0.0598939
-0.0595813
-0.0593185
-0.0590907
-0.0588989
-0.0587248
-0.05855
-0.0583602
-0.0581385
-0.0578692
-0.0575577
-0.0571952
-0.0567807
-0.0563823
-0.0559298
-0.0555569
-0.0613114
-0.060951
-0.0605327
-0.0601894
-0.0598391
-0.0595431
-0.0592931
-0.0590751
-0.058891
-0.0587233
-0.0585547
-0.0583719
-0.0581587
-0.0579006
-0.0576037
-0.0572597
-0.0568681
-0.0564971
-0.0560778
-0.0557391
-0.0611059
-0.0607898
-0.060413
-0.0601023
-0.0597778
-0.0595013
-0.0592657
-0.0590585
-0.0588824
-0.0587212
-0.0585588
-0.058383
-0.058179
-0.0579332
-0.0576527
-0.0573302
-0.0569665
-0.0566297
-0.0562524
-0.0559573
-0.0608827
-0.0606201
-0.0602909
-0.0600152
-0.0597189
-0.0594631
-0.0592415
-0.0590439
-0.0588746
-0.0587185
-0.0585608
-0.0583906
-0.0581944
-0.0579597
-0.0576951
-0.0573955
-0.0570621
-0.0567618
-0.0564323
-0.0561896
-0.060666
-0.0604624
-0.0601867
-0.0599448
-0.0596728
-0.0594352
-0.0592255
-0.0590348
-0.0588692
-0.0587154
-0.0585596
-0.058392
-0.0582002
-0.0579736
-0.0577226
-0.0574431
-0.0571358
-0.0568707
-0.0565943
-0.0564086
-0.0604844
-0.0603354
-0.060109
-0.0599042
-0.059654
-0.0594265
-0.0592234
-0.0590353
-0.0588685
-0.0587122
-0.0585538
-0.058384
-0.0581914
-0.057968
-0.0577245
-0.0574566
-0.0571726
-0.0569457
-0.0567177
-0.0565835
-0.0603777
-0.0602913
-0.0601028
-0.0599098
-0.0596758
-0.0594496
-0.0592416
-0.0590487
-0.0588742
-0.0587094
-0.0585425
-0.0583639
-0.0581634
-0.0579352
-0.057687
-0.0574212
-0.0571546
-0.0569411
-0.0567503
-0.0566751
-0.0603569
-0.0603013
-0.0601589
-0.05996
-0.0597291
-0.0594962
-0.0592754
-0.0590718
-0.058885
-0.0587074
-0.0585282
-0.0583365
-0.058123
-0.0578833
-0.0576217
-0.0573493
-0.0570867
-0.0568695
-0.0567256
-0.0566784
-0.0804648
-0.0803835
-0.080186
-0.0799141
-0.079605
-0.0792975
-0.0790109
-0.0787519
-0.0785184
-0.0782989
-0.0780774
-0.0778375
-0.0775652
-0.0772533
-0.0769063
-0.0765391
-0.0761806
-0.0758783
-0.0756756
-0.0756054
-0.0805002
-0.0803681
-0.0801129
-0.0798433
-0.0795317
-0.0792338
-0.0789643
-0.0787205
-0.0785041
-0.0783021
-0.078098
-0.0778763
-0.0776223
-0.0773271
-0.0769981
-0.0766406
-0.0762784
-0.0759752
-0.0757129
-0.0755946
-0.080656
-0.0804363
-0.0801253
-0.0798347
-0.0795027
-0.0792027
-0.0789391
-0.0787024
-0.0784964
-0.0783063
-0.0781141
-0.0779045
-0.0776615
-0.0773737
-0.0770504
-0.0766896
-0.0763049
-0.075978
-0.0756599
-0.0754576
-0.0809147
-0.0806143
-0.0802333
-0.0798925
-0.0795302
-0.0792151
-0.0789424
-0.0787023
-0.0784977
-0.0783108
-0.0781219
-0.0779153
-0.0776731
-0.0773808
-0.0770469
-0.0766685
-0.0762509
-0.0758713
-0.0754833
-0.0752036
-0.0812209
-0.0808366
-0.0803809
-0.0799915
-0.0795945
-0.0792541
-0.0789648
-0.078715
-0.0785051
-0.0783149
-0.0781233
-0.0779129
-0.0776641
-0.0773602
-0.0770071
-0.0766003
-0.0761445
-0.0757136
-0.0752503
-0.0748883
-0.0815344
-0.0810744
-0.0805513
-0.0801124
-0.0796764
-0.0793073
-0.0789984
-0.0787351
-0.0785157
-0.0783183
-0.07812
-0.0779015
-0.0776416
-0.0773218
-0.0769459
-0.0765068
-0.0760083
-0.0755249
-0.0749929
-0.074556
-0.081822
-0.0812993
-0.0807178
-0.0802335
-0.0797615
-0.0793653
-0.0790363
-0.078758
-0.0785274
-0.0783208
-0.0781137
-0.0778852
-0.0776124
-0.0772751
-0.076876
-0.0764061
-0.0758681
-0.0753361
-0.0747444
-0.0742451
-0.0820582
-0.081487
-0.0808596
-0.0803388
-0.0798375
-0.0794182
-0.0790714
-0.0787794
-0.0785381
-0.0783225
-0.0781066
-0.0778683
-0.0775833
-0.0772301
-0.0768104
-0.0763143
-0.0757438
-0.0751728
-0.0745339
-0.0739861
-0.0822252
-0.0816213
-0.0809625
-0.0804163
-0.0798941
-0.0794579
-0.0790979
-0.0787957
-0.0785462
-0.0783235
-0.0781007
-0.0778547
-0.0775604
-0.0771953
-0.0767603
-0.076245
-0.0756513
-0.075053
-0.0743818
-0.0738014
-0.0823115
-0.0816912
-0.0810166
-0.0804573
-0.0799242
-0.0794791
-0.0791122
-0.0788045
-0.0785506
-0.078324
-0.0780974
-0.0778472
-0.0775478
-0.0771763
-0.0767333
-0.0762079
-0.0756021
-0.0749898
-0.0743022
-0.0737054
-0.0823115
-0.0816912
-0.0810166
-0.0804573
-0.0799242
-0.0794791
-0.0791122
-0.0788045
-0.0785506
-0.078324
-0.0780974
-0.0778472
-0.0775478
-0.0771763
-0.0767333
-0.076208
-0.0756021
-0.0749898
-0.0743022
-0.0737054
-0.0822252
-0.0816213
-0.0809625
-0.0804163
-0.0798941
-0.0794579
-0.0790979
-0.0787957
-0.0785463
-0.0783235
-0.0781007
-0.0778547
-0.0775604
-0.0771953
-0.0767603
-0.076245
-0.0756513
-0.075053
-0.0743818
-0.0738014
-0.0820582
-0.081487
-0.0808596
-0.0803388
-0.0798375
-0.0794182
-0.0790714
-0.0787794
-0.0785381
-0.0783225
-0.0781066
-0.0778683
-0.0775833
-0.0772301
-0.0768104
-0.0763143
-0.0757438
-0.0751728
-0.0745339
-0.0739862
-0.081822
-0.0812994
-0.0807179
-0.0802335
-0.0797615
-0.0793653
-0.0790364
-0.078758
-0.0785274
-0.0783208
-0.0781137
-0.0778852
-0.0776124
-0.0772751
-0.076876
-0.0764061
-0.0758681
-0.0753361
-0.0747443
-0.0742451
-0.0815344
-0.0810745
-0.0805513
-0.0801124
-0.0796764
-0.0793073
-0.0789985
-0.0787351
-0.0785157
-0.0783183
-0.07812
-0.0779015
-0.0776416
-0.0773218
-0.076946
-0.0765068
-0.0760083
-0.0755249
-0.0749929
-0.074556
-0.0812209
-0.0808367
-0.0803809
-0.0799915
-0.0795945
-0.0792541
-0.0789648
-0.078715
-0.0785051
-0.0783149
-0.0781233
-0.0779129
-0.0776641
-0.0773602
-0.0770071
-0.0766003
-0.0761445
-0.0757136
-0.0752502
-0.0748883
-0.0809147
-0.0806142
-0.0802333
-0.0798925
-0.0795303
-0.0792151
-0.0789424
-0.0787023
-0.0784978
-0.0783108
-0.0781219
-0.0779153
-0.0776731
-0.0773808
-0.0770469
-0.0766685
-0.0762509
-0.0758713
-0.0754834
-0.0752036
-0.080656
-0.0804362
-0.0801253
-0.0798347
-0.0795027
-0.0792027
-0.0789391
-0.0787024
-0.0784965
-0.0783063
-0.0781141
-0.0779045
-0.0776615
-0.0773737
-0.0770504
-0.0766896
-0.0763049
-0.075978
-0.0756599
-0.0754577
-0.0805003
-0.0803683
-0.0801131
-0.0798433
-0.0795316
-0.0792338
-0.0789642
-0.0787205
-0.0785041
-0.0783021
-0.078098
-0.0778763
-0.0776223
-0.0773271
-0.0769982
-0.0766407
-0.0762784
-0.0759751
-0.0757128
-0.0755946
-0.080465
-0.0803838
-0.0801862
-0.0799142
-0.0796049
-0.0792975
-0.0790109
-0.0787519
-0.0785184
-0.0782989
-0.0780774
-0.0778375
-0.0775652
-0.0772534
-0.0769064
-0.0765392
-0.0761805
-0.0758782
-0.0756753
-0.0756052
-0.100555
-0.100439
-0.100173
-0.099817
-0.0994232
-0.0990412
-0.0986956
-0.098394
-0.0981314
-0.0978904
-0.0976475
-0.0973782
-0.0970616
-0.0966855
-0.0962532
-0.0957837
-0.095315
-0.09491
-0.0946316
-0.0945289
-0.100614
-0.100419
-0.100081
-0.099722
-0.0993264
-0.0989575
-0.0986339
-0.098353
-0.0981132
-0.0978955
-0.097676
-0.0974312
-0.0971393
-0.0967864
-0.096378
-0.0959221
-0.09545
-0.0950379
-0.0946825
-0.0945028
-0.100836
-0.10052
-0.100102
-0.0997108
-0.0992895
-0.0989173
-0.0986008
-0.0983295
-0.0981036
-0.0979015
-0.0976979
-0.0974693
-0.0971922
-0.0968494
-0.0964481
-0.0959871
-0.0954861
-0.0950365
-0.0945998
-0.0943009
-0.101195
-0.100764
-0.100249
-0.0997904
-0.0993282
-0.0989345
-0.0986057
-0.0983299
-0.0981054
-0.0979074
-0.0977081
-0.0974831
-0.0972066
-0.0968578
-0.0964416
-0.0959553
-0.0954086
-0.0948871
-0.0943515
-0.0939396
-0.101615
-0.101068
-0.10045
-0.0999248
-0.0994148
-0.0989869
-0.0986358
-0.0983469
-0.098115
-0.0979124
-0.0977093
-0.0974789
-0.0971931
-0.0968281
-0.0963855
-0.0958598
-0.0952594
-0.0946653
-0.0940246
-0.0934968
-0.102042
-0.101391
-0.10068
-0.100087
-0.0995247
-0.0990583
-0.0986807
-0.0983734
-0.0981287
-0.0979162
-0.0977038
-0.0974623
-0.0971613
-0.0967742
-0.0963001
-0.0957299
-0.0950706
-0.0944031
-0.0936665
-0.093034
-0.102431
-0.101694
-0.100904
-0.100249
-0.0996385
-0.0991355
-0.0987309
-0.0984036
-0.0981437
-0.0979188
-0.0976945
-0.0974392
-0.0971204
-0.0967093
-0.0962031
-0.0955906
-0.0948767
-0.0941422
-0.0933228
-0.0926035
-0.10275
-0.101946
-0.101094
-0.10039
-0.0997398
-0.0992057
-0.0987772
-0.0984316
-0.0981575
-0.0979204
-0.0976842
-0.0974156
-0.09708
-0.0966472
-0.0961127
-0.095464
-0.0947054
-0.0939171
-0.0930324
-0.0922463
-0.102974
-0.102127
-0.101232
-0.100494
-0.0998151
-0.0992584
-0.0988123
-0.098453
-0.0981679
-0.0979212
-0.0976756
-0.0973966
-0.0970483
-0.0965992
-0.0960437
-0.0953687
-0.0945782
-0.0937523
-0.0928232
-0.0919921
-0.10309
-0.10222
-0.101304
-0.100548
-0.099855
-0.0992866
-0.0988312
-0.0984645
-0.0981734
-0.0979216
-0.0976708
-0.0973861
-0.0970309
-0.0965731
-0.0960066
-0.0953179
-0.0945107
-0.0936655
-0.0927139
-0.0918603
-0.10309
-0.10222
-0.101304
-0.100548
-0.099855
-0.0992866
-0.0988312
-0.0984645
-0.0981734
-0.0979216
-0.0976708
-0.0973861
-0.0970309
-0.0965731
-0.0960066
-0.0953179
-0.0945107
-0.0936655
-0.0927139
-0.0918603
-0.102974
-0.102127
-0.101232
-0.100494
-0.0998151
-0.0992584
-0.0988123
-0.098453
-0.0981679
-0.0979212
-0.0976756
-0.0973966
-0.0970483
-0.0965992
-0.0960438
-0.0953688
-0.0945782
-0.0937523
-0.0928232
-0.0919921
-0.10275
-0.101946
-0.101094
-0.10039
-0.0997398
-0.0992058
-0.0987773
-0.0984316
-0.0981575
-0.0979204
-0.0976842
-0.0974156
-0.09708
-0.0966473
-0.0961127
-0.095464
-0.0947054
-0.0939171
-0.0930324
-0.0922463
-0.102431
-0.101694
-0.100904
-0.100249
-0.0996385
-0.0991355
-0.0987309
-0.0984036
-0.0981437
-0.0979188
-0.0976945
-0.0974392
-0.0971204
-0.0967093
-0.0962031
-0.0955906
-0.0948767
-0.0941422
-0.0933227
-0.0926035
-0.102042
-0.101391
-0.100681
-0.100087
-0.0995247
-0.0990583
-0.0986807
-0.0983734
-0.0981287
-0.0979162
-0.0977038
-0.0974624
-0.0971613
-0.0967742
-0.0963001
-0.09573
-0.0950706
-0.0944031
-0.0936665
-0.093034
-0.101615
-0.101068
-0.10045
-0.0999249
-0.0994148
-0.0989869
-0.0986358
-0.0983469
-0.098115
-0.0979124
-0.0977093
-0.0974789
-0.0971932
-0.0968282
-0.0963855
-0.0958598
-0.0952594
-0.0946653
-0.0940246
-0.0934968
-0.101195
-0.100764
-0.100249
-0.0997904
-0.0993283
-0.0989345
-0.0986057
-0.0983299
-0.0981055
-0.0979074
-0.0977081
-0.0974831
-0.0972066
-0.0968578
-0.0964416
-0.0959553
-0.0954087
-0.0948872
-0.0943515
-0.0939396
-0.100836
-0.10052
-0.100102
-0.0997108
-0.0992895
-0.0989173
-0.0986008
-0.0983295
-0.0981036
-0.0979016
-0.0976979
-0.0974693
-0.0971922
-0.0968494
-0.0964481
-0.0959872
-0.0954861
-0.0950366
-0.0945999
-0.0943009
-0.100614
-0.10042
-0.100081
-0.099722
-0.0993263
-0.0989575
-0.0986338
-0.098353
-0.0981132
-0.0978955
-0.097676
-0.0974312
-0.0971394
-0.0967864
-0.0963781
-0.0959222
-0.09545
-0.0950378
-0.0946824
-0.0945027
-0.100555
-0.100439
-0.100173
-0.0998171
-0.0994231
-0.0990411
-0.0986955
-0.098394
-0.0981314
-0.0978904
-0.0976475
-0.0973782
-0.0970616
-0.0966856
-0.0962533
-0.0957837
-0.0953149
-0.0949098
-0.0946314
-0.0945287
-0.120605
-0.120443
-0.120092
-0.119639
-0.119154
-0.118699
-0.118305
-0.117981
-0.117715
-0.117482
-0.117248
-0.116977
-0.116638
-0.116211
-0.115697
-0.115116
-0.11452
-0.113989
-0.113613
-0.113464
-0.1207
-0.120421
-0.119977
-0.119515
-0.119029
-0.118592
-0.118226
-0.117928
-0.117692
-0.11749
-0.117286
-0.117048
-0.116742
-0.116346
-0.115863
-0.115301
-0.114702
-0.114156
-0.113678
-0.113411
-0.121013
-0.120566
-0.120012
-0.119502
-0.118983
-0.118541
-0.118184
-0.117899
-0.11768
-0.117498
-0.117315
-0.117098
-0.116811
-0.116429
-0.115954
-0.115385
-0.114748
-0.114146
-0.113552
-0.113117
-0.121502
-0.120895
-0.120208
-0.119609
-0.119036
-0.118564
-0.118191
-0.1179
-0.117683
-0.117505
-0.117328
-0.117115
-0.116828
-0.116438
-0.115943
-0.115338
-0.114639
-0.113939
-0.113207
-0.11261
-0.122067
-0.121302
-0.120478
-0.119788
-0.11915
-0.118633
-0.11823
-0.117922
-0.117695
-0.117511
-0.117329
-0.117108
-0.116808
-0.116396
-0.115865
-0.115206
-0.114433
-0.113632
-0.112755
-0.111997
-0.122636
-0.121731
-0.120782
-0.120001
-0.119294
-0.118727
-0.118288
-0.117956
-0.117712
-0.117515
-0.11732
-0.117084
-0.116764
-0.116322
-0.115747
-0.115029
-0.114175
-0.113274
-0.112265
-0.111363
-0.123151
-0.122131
-0.121076
-0.120214
-0.119443
-0.118827
-0.118353
-0.117994
-0.11773
-0.117517
-0.117306
-0.117052
-0.116708
-0.116233
-0.115616
-0.11484
-0.113912
-0.112919
-0.111797
-0.110777
-0.123572
-0.122463
-0.121325
-0.120398
-0.119575
-0.118918
-0.118413
-0.11803
-0.117747
-0.117518
-0.117291
-0.117019
-0.116653
-0.116149
-0.115493
-0.114668
-0.11368
-0.112614
-0.111404
-0.110293
-0.123868
-0.1227
-0.121505
-0.120533
-0.119672
-0.118986
-0.118458
-0.118057
-0.11776
-0.117518
-0.117279
-0.116993
-0.11661
-0.116084
-0.1154
-0.11454
-0.113508
-0.112392
-0.111121
-0.109949
-0.12402
-0.122822
-0.121599
-0.120604
-0.119724
-0.119022
-0.118482
-0.118072
-0.117767
-0.117518
-0.117273
-0.116979
-0.116586
-0.116049
-0.11535
-0.114471
-0.113417
-0.112275
-0.110974
-0.109771
-0.12402
-0.122822
-0.121599
-0.120604
-0.119724
-0.119022
-0.118482
-0.118072
-0.117767
-0.117518
-0.117273
-0.116979
-0.116586
-0.116049
-0.11535
-0.114471
-0.113417
-0.112275
-0.110974
-0.109771
-0.123868
-0.1227
-0.121505
-0.120533
-0.119672
-0.118986
-0.118458
-0.118057
-0.11776
-0.117518
-0.117279
-0.116993
-0.11661
-0.116084
-0.1154
-0.11454
-0.113508
-0.112392
-0.111121
-0.109949
-0.123572
-0.122463
-0.121325
-0.120398
-0.119575
-0.118918
-0.118413
-0.11803
-0.117747
-0.117518
-0.117291
-0.117019
-0.116653
-0.116149
-0.115493
-0.114668
-0.11368
-0.112614
-0.111404
-0.110293
-0.123151
-0.122131
-0.121076
-0.120214
-0.119443
-0.118827
-0.118353
-0.117994
-0.11773
-0.117517
-0.117306
-0.117052
-0.116708
-0.116233
-0.115616
-0.11484
-0.113912
-0.112919
-0.111797
-0.110777
-0.122636
-0.121731