/*--------------------------------*- C++ -*----------------------------------*\
  =========                 |
  \\      /  F ield         | OpenFOAM: The Open Source CFD Toolbox
   \\    /   O peration     | Website:  https://openfoam.org
    \\  /    A nd           | Version:  6
     \\/     M anipulation  |
\*---------------------------------------------------------------------------*/
FoamFile
{
    version     2.0;
    format      ascii;
    class       surfaceScalarField;
    location    "0.084";
    object      phi;
}
// * * * * * * * * * * * * * * * * * * * * * * * * * * * * * * * * * * * * * //

dimensions      [0 3 -1 0 0 0 0];

internalField   nonuniform List<scalar> 
140400
(
8.1914e-14
8.30637e-13
1.1383e-06
8.91895e-13
1.35329e-12
2.51958e-06
2.77233e-12
1.17586e-12
3.49476e-06
5.30139e-12
1.09386e-12
4.2301e-06
8.37204e-12
7.7708e-13
4.79742e-06
1.15639e-11
5.33493e-13
5.23462e-06
1.44726e-11
3.62415e-13
5.56439e-06
1.68002e-11
1.9754e-13
5.80123e-06
1.82682e-11
8.45065e-14
5.95447e-06
1.8709e-11
-3.26349e-15
6.02975e-06
1.80778e-11
-9.12058e-14
6.02974e-06
1.64374e-11
-1.84086e-13
5.95443e-06
1.39753e-11
-3.06821e-13
5.80117e-06
1.0989e-11
-4.83494e-13
5.56431e-06
7.79039e-12
-6.64758e-13
5.23452e-06
4.78844e-12
-9.13244e-13
4.7973e-06
2.39091e-12
-1.22033e-12
4.22995e-06
6.78132e-13
-1.27792e-12
3.49462e-06
1.48867e-14
-1.40487e-12
2.51946e-06
-8.25618e-13
1.13823e-06
9.32451e-13
1.96986e-12
2.51958e-06
4.24014e-12
3.44562e-12
6.17421e-06
9.81239e-12
3.46778e-12
8.9335e-06
1.73088e-11
3.05535e-12
1.10677e-05
2.58509e-11
2.35699e-12
1.27318e-05
3.45311e-11
1.69911e-12
1.40207e-05
4.24284e-11
1.13954e-12
1.49955e-05
4.86817e-11
6.63028e-13
1.56967e-05
5.26287e-11
2.91289e-13
1.61508e-05
5.38501e-11
-1.97201e-14
1.6374e-05
5.22113e-11
-3.20122e-13
1.63739e-05
4.7884e-11
-6.46581e-13
1.61507e-05
4.13278e-11
-1.0466e-12
1.56966e-05
3.32464e-11
-1.5581e-12
1.49953e-05
2.4533e-11
-2.15031e-12
1.40204e-05
1.6121e-11
-2.8253e-12
1.27315e-05
8.90404e-12
-3.50389e-12
1.10673e-05
3.6987e-12
-3.84182e-12
8.93318e-06
7.44891e-13
-3.67686e-12
6.17394e-06
-2.02533e-12
2.51946e-06
1.88839e-12
2.92731e-12
3.49477e-06
7.77266e-12
5.30287e-12
8.93352e-06
1.71281e-11
5.64207e-12
1.32067e-05
2.91403e-11
5.08052e-12
1.65847e-05
4.25638e-11
4.06558e-12
1.92507e-05
5.60404e-11
3.00815e-12
2.13303e-05
6.82012e-11
2.04756e-12
2.29097e-05
7.77974e-11
1.22143e-12
2.40486e-05
8.38568e-11
5.43148e-13
2.47874e-05
8.57639e-11
-4.4916e-14
2.51508e-05
8.33184e-11
-6.14375e-13
2.51508e-05
7.67643e-11
-1.23037e-12
2.47873e-05
6.67661e-11
-1.95936e-12
2.40485e-05
5.43492e-11
-2.84809e-12
2.29094e-05
4.08083e-11
-3.86623e-12
2.13299e-05
2.75366e-11
-4.95204e-12
1.92503e-05
1.58817e-11
-5.93259e-12
1.65842e-05
7.0173e-12
-6.36718e-12
1.32063e-05
1.62227e-12
-5.78892e-12
8.93317e-06
-3.09102e-12
3.49461e-06
2.83968e-12
3.45396e-12
4.23012e-06
1.10515e-11
6.52373e-12
1.10677e-05
2.37958e-11
7.17417e-12
1.65847e-05
3.98382e-11
6.58901e-12
2.10228e-05
5.75425e-11
5.4005e-12
2.45657e-05
7.51638e-11
4.07045e-12
2.73493e-05
9.09695e-11
2.81084e-12
2.94736e-05
1.03405e-10
1.70313e-12
3.10103e-05
1.1126e-10
7.60433e-13
3.20088e-05
1.13765e-10
-7.60325e-14
3.25005e-05
1.10667e-10
-8.89666e-13
3.25005e-05
1.02261e-10
-1.76489e-12
3.20087e-05
8.93692e-11
-2.77773e-12
3.101e-05
7.32604e-11
-3.9716e-12
2.94733e-05
5.5546e-11
-5.3092e-12
2.73489e-05
3.79946e-11
-6.67561e-12
2.45652e-05
2.23485e-11
-7.81669e-12
2.10223e-05
1.01683e-11
-8.23148e-12
1.65842e-05
2.52808e-12
-7.26034e-12
1.10673e-05
-3.72999e-12
4.22993e-06
3.5995e-12
3.56675e-12
4.79746e-06
1.38284e-11
6.93057e-12
1.27319e-05
2.94948e-11
7.8032e-12
1.92508e-05
4.89834e-11
7.29253e-12
2.45657e-05
7.0323e-11
6.0851e-12
2.88491e-05
9.14389e-11
4.65289e-12
3.22372e-05
1.10303e-10
3.25078e-12
3.48347e-05
1.25116e-10
1.9896e-12
3.67193e-05
1.34475e-10
8.88677e-13
3.79465e-05
1.37489e-10
-1.04638e-13
3.85514e-05
1.33863e-10
-1.07534e-12
3.85514e-05
1.23931e-10
-2.11404e-12
3.79464e-05
1.08634e-10
-3.29689e-12
3.67191e-05
8.94367e-11
-4.65818e-12
3.48343e-05
6.82029e-11
-6.14975e-12
3.22368e-05
4.70079e-11
-7.62194e-12
2.88486e-05
2.79318e-11
-8.77351e-12
2.45651e-05
1.28697e-11
-9.08752e-12
1.92503e-05
3.26073e-12
-7.84259e-12
1.27314e-05
-3.92407e-12
4.79725e-06
4.1997e-12
3.30458e-12
5.23468e-06
1.6053e-11
6.55304e-12
1.40208e-05
3.40953e-11
7.50998e-12
2.13304e-05
5.64041e-11
7.11822e-12
2.73494e-05
8.07257e-11
6.01714e-12
3.22373e-05
1.04705e-10
4.65074e-12
3.61252e-05
1.26071e-10
3.27856e-12
3.91179e-05
1.42824e-10
2.02025e-12
4.12954e-05
1.5341e-10
9.01155e-13
4.27158e-05
1.56845e-10
-1.21513e-13
4.34168e-05
1.52798e-10
-1.12504e-12
4.34167e-05
1.41633e-10
-2.19405e-12
4.27157e-05
1.24381e-10
-3.3966e-12
4.12952e-05
1.02662e-10
-4.75636e-12
3.91175e-05
7.85448e-11
-6.21842e-12
3.61248e-05
5.43563e-11
-7.62384e-12
3.22367e-05
3.24644e-11
-8.66715e-12
2.73488e-05
1.50478e-11
-8.85831e-12
2.13298e-05
3.84363e-12
-7.51957e-12
1.40203e-05
-3.69099e-12
5.23445e-06
4.64847e-12
2.73581e-12
5.56446e-06
1.77352e-11
5.51299e-12
1.49957e-05
3.76138e-11
6.39853e-12
2.29098e-05
6.2127e-11
6.12697e-12
2.94738e-05
8.87862e-11
5.22724e-12
3.48348e-05
1.15012e-10
4.07269e-12
3.91179e-05
1.38339e-10
2.89006e-12
4.24256e-05
1.56614e-10
1.78887e-12
4.4838e-05
1.68164e-10
7.961e-13
4.64141e-05
1.71931e-10
-1.19755e-13
4.71925e-05
1.67557e-10
-1.0214e-12
4.71925e-05
1.55429e-10
-1.97852e-12
4.64139e-05
1.36649e-10
-3.04546e-12
4.48377e-05
1.12954e-10
-4.23647e-12
4.24252e-05
8.65741e-11
-5.49818e-12
3.91174e-05
6.00368e-11
-6.68634e-12
3.48342e-05
3.594e-11
-7.53362e-12
2.94731e-05
1.66991e-11
-7.62522e-12
2.29092e-05
4.28045e-12
-6.39632e-12
1.49951e-05
-3.09228e-12
5.56423e-06
4.95659e-12
1.94474e-12
5.80132e-06
1.89267e-11
3.96092e-12
1.56969e-05
4.01374e-11
4.63641e-12
2.40489e-05
6.6261e-11
4.47076e-12
3.10105e-05
9.46337e-11
3.83857e-12
3.67195e-05
1.22511e-10
3.00721e-12
4.12955e-05
1.47283e-10
2.14325e-12
4.48381e-05
1.66679e-10
1.33001e-12
4.74264e-05
1.78939e-10
5.90039e-13
4.91194e-05
1.82951e-10
-9.7054e-14
4.99562e-05
1.78338e-10
-7.7501e-13
4.99562e-05
1.65502e-10
-1.49292e-12
4.91193e-05
1.45596e-10
-2.28818e-12
4.74261e-05
1.20446e-10
-3.16819e-12
4.48377e-05
9.24035e-11
-4.09066e-12
4.1295e-05
6.41435e-11
-4.94633e-12
3.67189e-05
3.84347e-11
-5.53834e-12
3.10098e-05
1.78692e-11
-5.56798e-12
2.40482e-05
4.58e-12
-4.63307e-12
1.56963e-05
-2.21716e-12
5.80107e-06
5.14991e-12
1.00814e-12
5.95457e-06
1.96848e-11
2.06552e-12
1.6151e-05
4.17561e-11
2.42967e-12
2.47877e-05
6.89276e-11
2.35239e-12
3.20091e-05
9.84209e-11
2.02698e-12
3.79467e-05
1.27381e-10
1.59256e-12
4.2716e-05
1.53102e-10
1.13721e-12
4.64142e-05
1.73235e-10
7.05883e-13
4.91195e-05
1.85962e-10
3.11313e-13
5.08905e-05
1.90135e-10
-5.64325e-14
5.17662e-05
1.85365e-10
-4.19736e-13
5.17662e-05
1.72063e-10
-8.0385e-13
5.08903e-05
1.51418e-10
-1.22774e-12
4.91192e-05
1.25313e-10
-1.69436e-12
4.64138e-05
9.61793e-11
-2.18041e-12
4.27155e-05
6.67925e-11
-2.62709e-12
3.79461e-05
4.00346e-11
-2.93017e-12
3.20084e-05
1.86131e-11
-2.9337e-12
2.4787e-05
4.76757e-12
-2.4294e-12
1.61504e-05
-1.15588e-12
5.95431e-06
5.24305e-12
-3.6663e-16
6.02987e-06
2.00519e-11
-7.92678e-16
1.63742e-05
4.25444e-11
-1.21399e-15
2.51511e-05
7.02315e-11
-1.82456e-15
3.25008e-05
1.00278e-10
-2.56151e-15
3.85517e-05
1.29774e-10
-3.30666e-15
4.3417e-05
1.55965e-10
-3.98854e-15
4.71927e-05
1.76462e-10
-4.57873e-15
4.99563e-05
1.89421e-10
-5.06648e-15
5.17663e-05
1.93674e-10
-5.45152e-15
5.26615e-05
1.88826e-10
-5.73768e-15
5.26614e-05
1.75294e-10
-5.92447e-15
5.17661e-05
1.54283e-10
-5.9988e-15
4.9956e-05
1.27704e-10
-5.92573e-15
4.71923e-05
9.80307e-11
-5.67694e-15
4.34165e-05
6.80875e-11
-5.26007e-15
3.85511e-05
4.08132e-11
-4.68387e-15
3.25001e-05
1.8973e-11
-3.87841e-15
2.51504e-05
4.85776e-12
-2.68478e-15
1.63736e-05
-1.01906e-15
6.0296e-06
5.24303e-12
-1.00874e-12
6.02987e-06
2.00519e-11
-2.06674e-12
1.63742e-05
4.25443e-11
-2.43179e-12
2.51511e-05
7.02314e-11
-2.35586e-12
3.25008e-05
1.00278e-10
-2.03199e-12
3.85517e-05
1.29774e-10
-1.59908e-12
4.3417e-05
1.55965e-10
-1.14506e-12
4.71927e-05
1.76462e-10
-7.14886e-13
4.99563e-05
1.89421e-10
-3.21266e-13
5.17663e-05
1.93674e-10
4.57365e-14
5.26615e-05
1.88826e-10
4.08496e-13
5.26614e-05
1.75294e-10
7.9226e-13
5.17661e-05
1.54283e-10
1.21601e-12
4.99561e-05
1.27705e-10
1.68277e-12
4.71923e-05
9.80308e-11
2.1693e-12
4.34165e-05
6.80875e-11
2.61677e-12
3.85511e-05
4.08132e-11
2.92089e-12
3.25001e-05
1.89729e-11
2.92589e-12
2.51504e-05
4.8577e-12
2.4239e-12
1.63736e-05
1.1538e-12
6.0296e-06
5.14983e-12
-1.94496e-12
5.95457e-06
1.96845e-11
-3.96141e-12
1.6151e-05
4.17558e-11
-4.63798e-12
2.47877e-05
6.89273e-11
-4.47395e-12
3.20091e-05
9.84209e-11
-3.84336e-12
3.79467e-05
1.27381e-10
-3.01343e-12
4.2716e-05
1.53103e-10
-2.15071e-12
4.64142e-05
1.73235e-10
-1.33855e-12
4.91195e-05
1.85962e-10
-5.99456e-13
5.08905e-05
1.90136e-10
8.69686e-14
5.17662e-05
1.85366e-10
7.64453e-13
5.17662e-05
1.72064e-10
1.48206e-12
5.08903e-05
1.51419e-10
2.27719e-12
4.91192e-05
1.25314e-10
3.15734e-12
4.64138e-05
9.61797e-11
4.08031e-12
4.27155e-05
6.67926e-11
4.93671e-12
3.79461e-05
4.00343e-11
5.52954e-12
3.20084e-05
1.86127e-11
5.56029e-12
2.4787e-05
4.7674e-12
4.62744e-12
1.61504e-05
2.21501e-12
5.95431e-06
4.95644e-12
-2.73567e-12
5.80132e-06
1.89262e-11
-5.51322e-12
1.56969e-05
4.01366e-11
-6.40014e-12
2.40489e-05
6.62605e-11
-6.13015e-12
3.10105e-05
9.46337e-11
-5.23177e-12
3.67195e-05
1.22511e-10
-4.07842e-12
4.12955e-05
1.47284e-10
-2.89689e-12
4.48381e-05
1.6668e-10
-1.79667e-12
4.74264e-05
1.7894e-10
-8.04656e-13
4.91194e-05
1.82952e-10
1.10647e-13
4.99562e-05
1.7834e-10
1.01191e-12
4.99562e-05
1.65503e-10
1.96876e-12
4.91193e-05
1.45598e-10
3.03557e-12
4.74261e-05
1.20448e-10
4.22676e-12
4.48377e-05
9.24043e-11
5.48902e-12
4.1295e-05
6.41435e-11
6.67793e-12
3.67189e-05
3.8434e-11
7.52595e-12
3.10098e-05
1.78684e-11
7.6184e-12
2.40482e-05
4.57976e-12
6.39119e-12
1.56963e-05
3.09028e-12
5.80107e-06
4.64836e-12
-3.30469e-12
5.56446e-06
1.77342e-11
-6.55446e-12
1.49957e-05
3.76125e-11
-7.51267e-12
2.29098e-05
6.21261e-11
-7.1217e-12
2.94738e-05
8.87861e-11
-6.02134e-12
3.48348e-05
1.15013e-10
-4.65588e-12
3.91179e-05
1.38341e-10
-3.28465e-12
4.24256e-05
1.56616e-10
-2.02713e-12
4.4838e-05
1.68166e-10
-9.08612e-13
4.64141e-05
1.71933e-10
1.13651e-13
4.71925e-05
1.6756e-10
1.11689e-12
4.71925e-05
1.55431e-10
2.18568e-12
4.64139e-05
1.36651e-10
3.38819e-12
4.48378e-05
1.12956e-10
4.74814e-12
4.24252e-05
8.6575e-11
6.21064e-12
3.91174e-05
6.00364e-11
7.61686e-12
3.48342e-05
3.59387e-11
8.66131e-12
2.94731e-05
1.66978e-11
8.85362e-12
2.29092e-05
4.28036e-12
7.51636e-12
1.49951e-05
3.68977e-12
5.56423e-06
4.19975e-12
-3.56807e-12
5.23468e-06
1.60516e-11
-6.934e-12
1.40208e-05
3.40933e-11
-7.80706e-12
2.13304e-05
5.64026e-11
-7.29603e-12
2.73495e-05
8.07253e-11
-6.08886e-12
3.22373e-05
1.04706e-10
-4.6575e-12
3.61252e-05
1.26072e-10
-3.25621e-12
3.91179e-05
1.42826e-10
-1.99556e-12
4.12954e-05
1.53413e-10
-8.94962e-13
4.27158e-05
1.56847e-10
9.81321e-14
4.34168e-05
1.52801e-10
1.06867e-12
4.34167e-05
1.41635e-10
2.10733e-12
4.27157e-05
1.24384e-10
3.29035e-12
4.12952e-05
1.02664e-10
4.65184e-12
3.91175e-05
7.85453e-11
6.1436e-12
3.61248e-05
5.43553e-11
7.61659e-12
3.22367e-05
3.24624e-11
8.76982e-12
2.73488e-05
1.50462e-11
9.08579e-12
2.13298e-05
3.84383e-12
7.84211e-12
1.40203e-05
3.92413e-12
5.23446e-06
3.5992e-12
-3.45569e-12
4.79746e-06
1.38264e-11
-6.52683e-12
1.27319e-05
2.9492e-11
-7.17678e-12
1.92508e-05
4.89812e-11
-6.59127e-12
2.45657e-05
7.03222e-11
-5.40364e-12
2.88491e-05
9.14399e-11
-4.07478e-12
3.22372e-05
1.10305e-10
-2.8159e-12
3.48347e-05
1.25118e-10
-1.70841e-12
3.67194e-05
1.34477e-10
-7.65688e-13
3.79465e-05
1.37492e-10
7.08317e-14
3.85515e-05
1.33866e-10
8.84543e-13
3.85514e-05
1.23935e-10
1.76005e-12
3.79464e-05
1.08637e-10
2.77343e-12
3.67191e-05
8.94385e-11
3.96783e-12
3.48343e-05
6.82029e-11
5.30562e-12
3.22368e-05
4.70059e-11
6.67212e-12
2.88486e-05
2.79292e-11
7.81421e-12
2.45651e-05
1.28678e-11
8.23047e-12
1.92503e-05
3.26067e-12
7.26045e-12
1.27314e-05
3.73037e-12
4.79726e-06
2.83803e-12
-2.92659e-12
4.23012e-06
1.10486e-11
-5.30077e-12
1.10677e-05
2.37921e-11
-5.64005e-12
1.65847e-05
3.98352e-11
-5.08024e-12
2.10228e-05
5.75414e-11
-4.06796e-12
2.45657e-05
7.51648e-11
-3.01242e-12
2.73494e-05
9.09721e-11
-2.05248e-12
2.94736e-05
1.03408e-10
-1.22624e-12
3.10103e-05
1.11263e-10
-5.47567e-13
3.20088e-05
1.13769e-10
4.0926e-14
3.25005e-05
1.1067e-10
6.10847e-13
3.25005e-05
1.02265e-10
1.22751e-12
3.20087e-05
8.93727e-11
1.95756e-12
3.10101e-05
7.32622e-11
2.84751e-12
2.94733e-05
5.5545e-11
3.86589e-12
2.7349e-05
3.79913e-11
4.95041e-12
2.45652e-05
2.23447e-11
5.92901e-12
2.10223e-05
1.01657e-11
6.36286e-12
1.65842e-05
2.52687e-12
5.78503e-12
1.10673e-05
3.08935e-12
4.22993e-06
1.88571e-12
-1.96504e-12
3.49477e-06
7.7681e-12
-3.43631e-12
8.93352e-06
1.71228e-11
-3.46001e-12
1.32067e-05
2.91359e-11
-3.05239e-12
1.65847e-05
4.25622e-11
-2.35857e-12
1.92507e-05
5.60416e-11
-1.70319e-12
2.13303e-05
6.8204e-11
-1.14424e-12
2.29097e-05
7.78006e-11
-6.6738e-13
2.40487e-05
8.38598e-11
-2.94942e-13
2.47874e-05
8.57668e-11
1.68247e-14
2.51508e-05
8.33218e-11
3.18058e-13
2.51508e-05
7.67684e-11
6.45612e-13
2.47873e-05
6.67701e-11
1.04718e-12
2.40485e-05
5.43512e-11
1.56043e-12
2.29094e-05
4.08065e-11
2.15314e-12
2.13299e-05
2.7531e-11
2.82544e-12
1.92503e-05
1.58755e-11
3.49917e-12
1.65842e-05
7.01284e-12
3.83266e-12
1.32063e-05
1.62007e-12
3.66649e-12
8.93317e-06
2.02012e-12
3.49461e-06
9.31219e-13
-8.2486e-13
2.51958e-06
4.2337e-12
-1.34508e-12
6.17421e-06
9.80458e-12
-1.16925e-12
8.9335e-06
1.73025e-11
-1.09081e-12
1.10677e-05
2.58483e-11
-7.77194e-13
1.27318e-05
3.4532e-11
-5.35471e-13
1.40207e-05
4.24311e-11
-3.64972e-13
1.49955e-05
4.86847e-11
-1.99986e-13
1.56967e-05
5.26314e-11
-8.65141e-14
1.61508e-05
5.38526e-11
1.87338e-15
1.6374e-05
5.22144e-11
9.06175e-14
1.63739e-05
4.78881e-11
1.84532e-13
1.61507e-05
4.13321e-11
3.0838e-13
1.56966e-05
3.32484e-11
4.85928e-13
1.49953e-05
2.45299e-11
6.67089e-13
1.40205e-05
1.61128e-11
9.13547e-13
1.27315e-05
8.89437e-12
1.2169e-12
1.10673e-05
3.69138e-12
1.27093e-12
8.93318e-06
7.43819e-13
1.39654e-12
6.17394e-06
8.20095e-13
2.51946e-06
8.17824e-14
1.1383e-06
8.86388e-13
2.51958e-06
2.76553e-12
3.49476e-06
5.29611e-12
4.2301e-06
8.3697e-12
4.79743e-06
1.15641e-11
5.23463e-06
1.4474e-11
5.56439e-06
1.68018e-11
5.80123e-06
1.82696e-11
5.95447e-06
1.87103e-11
6.02975e-06
1.80795e-11
6.02974e-06
1.644e-11
5.95444e-06
1.3978e-11
5.80117e-06
1.09901e-11
5.56431e-06
7.78773e-12
5.23452e-06
4.7819e-12
4.7973e-06
2.3827e-12
4.22995e-06
6.71776e-13
3.49462e-06
1.49685e-14
2.51946e-06
1.13823e-06
-5.22291e-13
1.85666e-12
1.1383e-06
-1.49675e-13
3.31563e-12
2.51958e-06
2.17197e-12
3.35376e-12
3.49476e-06
6.17856e-12
3.11398e-12
4.23009e-06
1.1563e-11
2.47686e-12
4.79742e-06
1.75072e-11
1.86377e-12
5.23462e-06
2.31332e-11
1.32903e-12
5.56438e-06
2.76882e-11
8.26256e-13
5.80122e-06
3.0528e-11
4.01467e-13
5.95446e-06
3.12584e-11
1.82846e-14
6.02975e-06
2.97766e-11
-3.62956e-13
6.02974e-06
2.62666e-11
-7.61686e-13
5.95444e-06
2.12031e-11
-1.21446e-12
5.80118e-06
1.53024e-11
-1.74986e-12
5.56432e-06
9.36644e-12
-2.30978e-12
5.23453e-06
4.2809e-12
-2.925e-12
4.7973e-06
8.06503e-13
-3.51696e-12
4.22996e-06
-8.79894e-13
-3.64998e-12
3.49462e-06
-7.2858e-13
-3.42703e-12
2.51946e-06
-1.79179e-12
1.13824e-06
3.65044e-13
4.86587e-12
2.51958e-06
4.3997e-12
9.09504e-12
6.1742e-06
1.31582e-11
9.90741e-12
8.93349e-06
2.63805e-11
9.19533e-12
1.10676e-05
4.2559e-11
7.65101e-12
1.27318e-05
5.97281e-11
5.92715e-12
1.40207e-05
7.5741e-11
4.25728e-12
1.49955e-05
8.85614e-11
2.70343e-12
1.56967e-05
9.65775e-11
1.30457e-12
1.61508e-05
9.87751e-11
-8.99369e-18
1.6374e-05
9.48587e-11
-1.29288e-12
1.63739e-05
8.53003e-11
-2.6452e-12
1.61507e-05
7.129e-11
-4.1285e-12
1.56966e-05
5.46015e-11
-5.78e-12
1.49953e-05
3.73875e-11
-7.52496e-12
1.40205e-05
2.18233e-11
-9.25278e-12
1.27315e-05
9.77175e-12
-1.06684e-11
1.10674e-05
2.46428e-12
-1.10677e-11
8.9332e-06
-2.67041e-13
-9.74381e-12
6.17395e-06
-4.96182e-12
2.51946e-06
2.00635e-12
7.69476e-12
3.49477e-06
1.08792e-11
1.47799e-11
8.9335e-06
2.71882e-11
1.66528e-11
1.32067e-05
4.98967e-11
1.57709e-11
1.65846e-05
7.66488e-11
1.34322e-11
1.92507e-05
1.04433e-10
1.05882e-11
2.13302e-05
1.30021e-10
7.68973e-12
2.29096e-05
1.50396e-10
4.92627e-12
2.40486e-05
1.63159e-10
2.35984e-12
2.47874e-05
1.66794e-10
-7.97115e-14
2.51508e-05
1.60849e-10
-2.5061e-12
2.51508e-05
1.46001e-10
-5.03063e-12
2.47873e-05
1.23994e-10
-7.74625e-12
2.40485e-05
9.74453e-11
-1.06807e-11
2.29094e-05
6.95374e-11
-1.37077e-11
2.133e-05
4.35578e-11
-1.65531e-11
1.92504e-05
2.24045e-11
-1.8667e-11
1.65842e-05
8.08873e-12
-1.90143e-11
1.32063e-05
1.07125e-12
-1.62717e-11
8.93318e-06
-8.13406e-12
3.49461e-06
3.91928e-12
9.5782e-12
4.23011e-06
1.78132e-11
1.89246e-11
1.10677e-05
4.16485e-11
2.18088e-11
1.65847e-05
7.35604e-11
2.09967e-11
2.10228e-05
1.10297e-10
1.81777e-11
2.45656e-05
1.47906e-10
1.4513e-11
2.73493e-05
1.82235e-10
1.06373e-11
2.94736e-05
2.09457e-10
6.85262e-12
3.10102e-05
2.26532e-10
3.25666e-12
3.20088e-05
2.31536e-10
-2.08421e-13
3.25005e-05
2.23877e-10
-3.66648e-12
3.25005e-05
2.04391e-10
-7.24822e-12
3.20087e-05
1.75259e-10
-1.10482e-11
3.10101e-05
1.39771e-10
-1.50648e-11
2.94734e-05
1.01961e-10
-1.91116e-11
2.7349e-05
6.60713e-11
-2.27719e-11
2.45652e-05
3.59485e-11
-2.52821e-11
2.10223e-05
1.44608e-11
-2.53696e-11
1.65842e-05
2.78889e-12
-2.12965e-11
1.10673e-05
-1.04012e-11
4.22993e-06
5.67141e-12
1.03007e-11
4.79746e-06
2.42899e-11
2.0783e-11
1.27318e-05
5.51099e-11
2.43605e-11
1.92508e-05
9.54458e-11
2.37733e-11
2.45657e-05
1.41216e-10
2.08391e-11
2.88491e-05
1.87624e-10
1.68032e-11
3.22372e-05
2.29728e-10
1.24046e-11
3.48346e-05
2.6302e-10
8.01975e-12
3.67193e-05
2.83925e-10
3.78159e-12
3.79465e-05
2.90179e-10
-3.44797e-13
3.85514e-05
2.81076e-10
-4.47496e-12
3.85514e-05
2.57571e-10
-8.73684e-12
3.79464e-05
2.22194e-10
-1.32111e-11
3.67192e-05
1.78794e-10
-1.78627e-11
3.48344e-05
1.32117e-10
-2.24547e-11
3.22369e-05
8.72221e-11
-2.64783e-11
2.88487e-05
4.88153e-11
-2.90485e-11
2.45652e-05
2.0571e-11
-2.87898e-11
1.92503e-05
4.41459e-12
-2.38109e-11
1.27314e-05
-1.14214e-11
4.79726e-06
7.17068e-12
9.84942e-12
5.23467e-06
2.98736e-11
2.01887e-11
1.40208e-05
6.67491e-11
2.39732e-11
2.13303e-05
1.14387e-10
2.36465e-11
2.73494e-05
1.67968e-10
2.09221e-11
3.22372e-05
2.21957e-10
1.69973e-11
3.61252e-05
2.70739e-10
1.26168e-11
3.91178e-05
3.09234e-10
8.17618e-12
4.12954e-05
3.33427e-10
3.82776e-12
4.27158e-05
3.40772e-10
-4.39948e-13
4.34168e-05
3.3047e-10
-4.72189e-12
4.34167e-05
3.03567e-10
-9.12711e-12
4.27157e-05
2.62876e-10
-1.37145e-11
4.12952e-05
2.12701e-10
-1.84234e-11
3.91176e-05
1.58384e-10
-2.29954e-11
3.61248e-05
1.05684e-10
-2.69006e-11
3.22368e-05
6.00598e-11
-2.92473e-11
2.73489e-05
2.59088e-11
-2.87028e-11
2.13298e-05
5.82841e-12
-2.34651e-11
1.40203e-05
-1.10989e-11
5.23446e-06
8.36462e-12
8.35667e-12
5.56446e-06
3.43637e-11
1.73373e-11
1.49956e-05
7.61723e-11
2.07838e-11
2.29098e-05
1.29787e-10
2.06625e-11
2.94737e-05
1.89765e-10
1.84069e-11
3.48347e-05
2.49958e-10
1.50378e-11
3.91179e-05
3.04201e-10
1.12073e-11
4.24255e-05
3.46948e-10
7.27373e-12
4.4838e-05
3.73828e-10
3.38439e-12
4.64141e-05
3.82075e-10
-4.5564e-13
4.71925e-05
3.7081e-10
-4.31559e-12
4.71925e-05
3.4115e-10
-8.27758e-12
4.6414e-05
2.96134e-10
-1.23783e-11
4.48378e-05
2.4043e-10
-1.65481e-11
4.24253e-05
1.79861e-10
-2.05447e-11
3.91175e-05
1.20761e-10
-2.38908e-11
3.48342e-05
6.92113e-11
-2.5803e-11
2.94732e-05
3.02268e-11
-2.51379e-11
2.29092e-05
6.96166e-12
-2.03747e-11
1.49952e-05
-9.53235e-12
5.56423e-06
9.23817e-12
6.04297e-12
5.80131e-06
3.77059e-11
1.26407e-11
1.56968e-05
8.32403e-11
1.52522e-11
2.40488e-05
1.41389e-10
1.52458e-11
3.10104e-05
2.06228e-10
1.36457e-11
3.67195e-05
2.71141e-10
1.11911e-11
4.12955e-05
3.29539e-10
8.36312e-12
4.4838e-05
3.75522e-10
5.43256e-12
4.74263e-05
4.04451e-10
2.51548e-12
4.91194e-05
4.13388e-10
-3.76547e-13
4.99562e-05
4.01395e-10
-3.2873e-12
4.99562e-05
3.69644e-10
-6.2702e-12
4.91193e-05
3.21342e-10
-9.34455e-12
4.74262e-05
2.61432e-10
-1.24501e-11
4.48377e-05
1.96108e-10
-1.53997e-11
4.12951e-05
1.3214e-10
-1.78334e-11
3.6719e-05
7.609e-11
-1.91719e-11
3.10098e-05
3.34478e-11
-1.85827e-11
2.40482e-05
7.79162e-12
-1.49724e-11
1.56964e-05
-6.95232e-12
5.80107e-06
9.80886e-12
3.16483e-12
5.95456e-06
3.99108e-11
6.65154e-12
1.6151e-05
8.7929e-11
8.05626e-12
2.47876e-05
1.49113e-10
8.07859e-12
3.2009e-05
2.17216e-10
7.25056e-12
3.79467e-05
2.85302e-10
5.95941e-12
4.27159e-05
3.46497e-10
4.46007e-12
4.64141e-05
3.94658e-10
2.89797e-12
4.91194e-05
4.24965e-10
1.33697e-12
5.08905e-05
4.34368e-10
-2.1436e-13
5.17662e-05
4.21886e-10
-1.77688e-12
5.17662e-05
3.8873e-10
-3.37659e-12
5.08904e-05
3.38218e-10
-5.02117e-12
4.91193e-05
2.7548e-10
-6.676e-12
4.64139e-05
2.06957e-10
-8.23914e-12
4.27155e-05
1.39721e-10
-9.51752e-12
3.79461e-05
8.06553e-11
-1.02036e-11
3.20084e-05
3.55728e-11
-9.86002e-12
2.4787e-05
8.33329e-12
-7.91651e-12
1.61505e-05
-3.65992e-12
5.95432e-06
1.00903e-11
-1.16687e-16
6.02986e-06
4.10038e-11
-1.8282e-16
1.63742e-05
9.02615e-11
-3.39873e-16
2.51511e-05
1.52965e-10
-7.60202e-16
3.25008e-05
2.22705e-10
-1.35396e-15
3.85516e-05
2.92386e-10
-1.99142e-15
4.34169e-05
3.54985e-10
-2.59525e-15
4.71926e-05
4.04241e-10
-3.13132e-15
4.99563e-05
4.35241e-10
-3.58382e-15
5.17662e-05
4.44877e-10
-3.94868e-15
5.26615e-05
4.3215e-10
-4.22748e-15
5.26614e-05
3.98288e-10
-4.42004e-15
5.17661e-05
3.46666e-10
-4.51708e-15
4.99561e-05
2.82506e-10
-4.49361e-15
4.71923e-05
2.12378e-10
-4.33384e-15
4.34165e-05
1.43501e-10
-4.05187e-15
3.85511e-05
8.2926e-11
-3.66004e-15
3.25002e-05
3.66257e-11
-3.08729e-15
2.51505e-05
8.60007e-12
-2.17152e-15
1.63737e-05
-8.258e-16
6.02961e-06
1.00903e-11
-3.16494e-12
6.02986e-06
4.10037e-11
-6.6516e-12
1.63742e-05
9.02613e-11
-8.05671e-12
2.51511e-05
1.52965e-10
-8.08001e-12
3.25008e-05
2.22705e-10
-7.25325e-12
3.85516e-05
2.92386e-10
-5.96337e-12
4.34169e-05
3.54985e-10
-4.46521e-12
4.71926e-05
4.04241e-10
-2.90416e-12
4.99563e-05
4.35241e-10
-1.34404e-12
5.17662e-05
4.44878e-10
2.06586e-13
5.26615e-05
4.32151e-10
1.76858e-12
5.26614e-05
3.98289e-10
3.36792e-12
5.17661e-05
3.46666e-10
5.01233e-12
4.99561e-05
2.82507e-10
6.6672e-12
4.71923e-05
2.12378e-10
8.23065e-12
4.34165e-05
1.43501e-10
9.50956e-12
3.85511e-05
8.29259e-11
1.01964e-11
3.25002e-05
3.66256e-11
9.85378e-12
2.51505e-05
8.60004e-12
7.91204e-12
1.63737e-05
3.65823e-12
6.02961e-06
9.80885e-12
-6.04277e-12
5.95456e-06
3.99106e-11
-1.26402e-11
1.6151e-05
8.79287e-11
-1.52523e-11
2.47876e-05
1.49112e-10
-1.52471e-11
3.2009e-05
2.17216e-10
-1.36483e-11
3.79467e-05
2.85303e-10
-1.1195e-11
4.27159e-05
3.46497e-10
-8.3681e-12
4.64141e-05
3.94659e-10
-5.43851e-12
4.91194e-05
4.24966e-10
-2.52225e-12
5.08905e-05
4.34368e-10
3.69145e-13
5.17662e-05
4.21887e-10
3.27944e-12
5.17662e-05
3.88731e-10
6.26204e-12
5.08904e-05
3.38219e-10
9.33621e-12
4.91193e-05
2.7548e-10
1.24418e-11
4.64139e-05
2.06958e-10
1.53918e-11
4.27155e-05
1.39721e-10
1.7826e-11
3.79462e-05
8.06549e-11
1.91649e-11
3.20084e-05
3.55725e-11
1.85765e-11
2.4787e-05
8.33317e-12
1.49678e-11
1.61505e-05
6.95057e-12
5.95432e-06
9.23813e-12
-8.35622e-12
5.80131e-06
3.77054e-11
-1.73368e-11
1.56969e-05
8.32397e-11
-2.07843e-11
2.40488e-05
1.41388e-10
-2.06642e-11
3.10104e-05
2.06228e-10
-1.84096e-11
3.67195e-05
2.71142e-10
-1.50415e-11
4.12955e-05
3.2954e-10
-1.1212e-11
4.4838e-05
3.75524e-10
-7.2793e-12
4.74263e-05
4.04452e-10
-3.39066e-12
4.91194e-05
4.1339e-10
4.48862e-13
4.99562e-05
4.01396e-10
4.30845e-12
4.99562e-05
3.69646e-10
8.27015e-12
4.91193e-05
3.21344e-10
1.23708e-11
4.74262e-05
2.61434e-10
1.65406e-11
4.48377e-05
1.96109e-10
2.05377e-11
4.12951e-05
1.3214e-10
2.38843e-11
3.6719e-05
7.60893e-11
2.5797e-11
3.10098e-05
3.3447e-11
2.51324e-11
2.40482e-05
7.79144e-12
2.03706e-11
1.56964e-05
9.53076e-12
5.80107e-06
8.3646e-12
-9.84938e-12
5.56446e-06
3.43627e-11
-2.01896e-11
1.49956e-05
7.61711e-11
-2.3975e-11
2.29098e-05
1.29786e-10
-2.36488e-11
2.94737e-05
1.89765e-10
-2.09248e-11
3.48347e-05
2.49959e-10
-1.70008e-11
3.91179e-05
3.04202e-10
-1.26211e-11
4.24256e-05
3.46949e-10
-8.18123e-12
4.4838e-05
3.7383e-10
-3.83335e-12
4.64141e-05
3.82078e-10
4.33992e-13
4.71925e-05
3.70812e-10
4.71566e-12
4.71925e-05
3.41152e-10
9.12067e-12
4.6414e-05
2.96136e-10
1.3708e-11
4.48378e-05
2.40431e-10
1.84171e-11
4.24253e-05
1.79862e-10
2.29893e-11
3.91175e-05
1.20761e-10
2.68952e-11
3.48342e-05
6.921e-11
2.92429e-11
2.94732e-05
3.02255e-11
2.86993e-11
2.29092e-05
6.96159e-12
2.34628e-11
1.49952e-05
1.10981e-11
5.56423e-06
7.17071e-12
-1.03019e-11
5.23467e-06
2.98723e-11
-2.0786e-11
1.40208e-05
6.67473e-11
-2.43636e-11
2.13304e-05
1.14386e-10
-2.37758e-11
2.73494e-05
1.67968e-10
-2.08417e-11
3.22372e-05
2.21958e-10
-1.68066e-11
3.61252e-05
2.70741e-10
-1.24087e-11
3.91178e-05
3.09237e-10
-8.02432e-12
4.12954e-05
3.33429e-10
-3.78644e-12
4.27158e-05
3.40775e-10
3.39753e-13
4.34168e-05
3.30473e-10
4.46978e-12
4.34167e-05
3.0357e-10
8.73164e-12
4.27157e-05
2.62878e-10
1.32061e-11
4.12952e-05
2.12703e-10
1.78578e-11
3.91176e-05
1.58384e-10
2.24499e-11
3.61248e-05
1.05684e-10
2.64743e-11
3.22368e-05
6.00579e-11
2.9046e-11
2.73489e-05
2.59073e-11
2.8789e-11
2.13298e-05
5.82852e-12
2.3811e-11
1.40203e-05
1.14217e-11
5.23446e-06
5.67105e-12
-9.57977e-12
4.79746e-06
2.42881e-11
-1.89272e-11
1.27318e-05
5.51074e-11
-2.18107e-11
1.92508e-05
9.54438e-11
-2.09983e-11
2.45657e-05
1.41216e-10
-1.818e-11
2.88491e-05
1.87625e-10
-1.45164e-11
3.22372e-05
2.2973e-10
-1.06414e-11
3.48346e-05
2.63023e-10
-6.8569e-12
3.67193e-05
2.83928e-10
-3.26089e-12
3.79465e-05
2.90182e-10
2.04268e-13
3.85514e-05
2.8108e-10
3.66245e-12
3.85514e-05
2.57575e-10
7.24449e-12
3.79464e-05
2.22197e-10
1.10449e-11
3.67192e-05
1.78796e-10
1.50621e-11
3.48344e-05
1.32117e-10
1.9109e-11
3.22369e-05
8.72203e-11
2.27693e-11
2.88487e-05
4.88129e-11
2.52804e-11
2.45652e-05
2.05692e-11
2.53692e-11
1.92503e-05
4.41439e-12
2.1297e-11
1.27314e-05
1.04017e-11
4.79726e-06
3.91766e-12
-7.694e-12
4.23011e-06
1.78105e-11
-1.47775e-11
1.10677e-05
4.1645e-11
-1.66503e-11
1.65847e-05
7.35575e-11
-1.57702e-11
2.10228e-05
1.10296e-10
-1.3434e-11
2.45656e-05
1.47907e-10
-1.05918e-11
2.73493e-05
1.82237e-10
-7.694e-12
2.94736e-05
2.0946e-10
-4.93044e-12
3.10102e-05
2.26536e-10
-2.3636e-12
3.20088e-05
2.31539e-10
7.63992e-14
3.25005e-05
2.23881e-10
2.50328e-12
3.25005e-05
2.04396e-10
5.02849e-12
3.20087e-05
1.75262e-10
7.74517e-12
3.10101e-05
1.39773e-10
1.06808e-11
2.94734e-05
1.01961e-10
1.37079e-11
2.7349e-05
6.60682e-11
1.6552e-11
2.45652e-05
3.59448e-11
1.86639e-11
2.10224e-05
1.44583e-11
1.90104e-11
1.65842e-05
2.78759e-12
1.62681e-11
1.10673e-05
8.13246e-12
4.22994e-06
2.00375e-12
-4.86099e-12
3.49477e-06
1.08747e-11
-9.08552e-12
8.9335e-06
2.71831e-11
-9.89955e-12
1.32067e-05
4.98925e-11
-9.19223e-12
1.65846e-05
7.66472e-11
-7.65233e-12
1.92507e-05
1.04434e-10
-5.93091e-12
2.13302e-05
1.30024e-10
-4.26167e-12
2.29096e-05
1.504e-10
-2.70748e-12
2.40486e-05
1.63162e-10
-1.3079e-12
2.47874e-05
1.66797e-10
-2.54228e-15
2.51508e-05
1.60852e-10
1.29119e-12
2.51508e-05
1.46005e-10
2.64465e-12
2.47873e-05
1.23998e-10
4.12951e-12
2.40485e-05
9.74473e-11
5.78272e-12
2.29094e-05
6.95357e-11
7.52804e-12
2.133e-05
4.35525e-11
9.25304e-12
1.92504e-05
2.23986e-11
1.06638e-11
1.65842e-05
8.08439e-12
1.10586e-11
1.32063e-05
1.06895e-12
9.7337e-12
8.93318e-06
4.95671e-12
3.49461e-06
3.63497e-13
-1.85107e-12
2.51958e-06
4.39329e-12
-3.30709e-12
6.1742e-06
1.31506e-11
-3.34712e-12
8.93349e-06
2.63744e-11
-3.11097e-12
1.10676e-05
4.25564e-11
-2.47709e-12
1.27318e-05
5.97289e-11
-1.86587e-12
1.40207e-05
7.57436e-11
-1.33165e-12
1.49955e-05
8.85644e-11
-8.287e-13
1.56967e-05
9.65803e-11
-4.03426e-13
1.61508e-05
9.87778e-11
-1.96111e-14
1.6374e-05
9.48621e-11
3.62408e-13
1.6374e-05
8.53047e-11
7.62135e-13
1.61507e-05
7.12944e-11
1.21601e-12
1.56966e-05
5.46035e-11
1.75233e-12
1.49953e-05
3.73844e-11
2.31222e-12
1.40205e-05
2.18154e-11
2.92542e-12
1.27315e-05
9.76233e-12
3.51354e-12
1.10674e-05
2.45726e-12
3.64282e-12
8.9332e-06
-2.68316e-13
3.41848e-12
6.17395e-06
1.7863e-12
2.51946e-06
-5.22226e-13
1.1383e-06
-1.55073e-13
2.51958e-06
2.16532e-12
3.49476e-06
6.1734e-12
4.23009e-06
1.15607e-11
4.79742e-06
1.75073e-11
5.23462e-06
2.31345e-11
5.56439e-06
2.76898e-11
5.80122e-06
3.05295e-11
5.95447e-06
3.12598e-11
6.02975e-06
2.97785e-11
6.02974e-06
2.62693e-11
5.95444e-06
2.12058e-11
5.80118e-06
1.53033e-11
5.56432e-06
9.36364e-12
5.23453e-06
4.27441e-12
4.79731e-06
7.98415e-13
4.22996e-06
-8.85981e-13
3.49463e-06
-7.28431e-13
2.51946e-06
1.13824e-06
-1.06997e-12
3.06415e-12
1.1383e-06
-8.7228e-13
5.54345e-12
2.51957e-06
2.3599e-12
5.77871e-12
3.49475e-06
8.4656e-12
5.3349e-12
4.23008e-06
1.68664e-11
4.3268e-12
4.7974e-06
2.62706e-11
3.29856e-12
5.2346e-06
3.52545e-11
2.3622e-12
5.56437e-06
4.25472e-11
1.49083e-12
5.80121e-06
4.70881e-11
7.28902e-13
5.95446e-06
4.82219e-11
2.7577e-14
6.02975e-06
4.57734e-11
-6.70007e-13
6.02974e-06
4.00543e-11
-1.401e-12
5.95444e-06
3.18572e-11
-2.21634e-12
5.80119e-06
2.23705e-11
-3.15105e-12
5.56433e-06
1.2959e-11
-4.13882e-12
5.23454e-06
5.07042e-12
-5.17642e-12
4.79732e-06
-9.50372e-14
-6.10895e-12
4.22997e-06
-2.19039e-12
-6.3584e-12
3.49463e-06
-1.44176e-12
-5.78205e-12
2.51947e-06
-2.96352e-12
1.13824e-06
8.77292e-14
8.17145e-12
2.51958e-06
5.72554e-12
1.54202e-11
6.17418e-06
1.905e-11
1.70201e-11
8.93346e-06
3.97388e-11
1.59065e-11
1.10676e-05
6.54756e-11
1.33862e-11
1.27317e-05
9.30487e-11
1.04701e-11
1.40206e-05
1.18904e-10
7.57928e-12
1.49955e-05
1.39668e-10
4.85426e-12
1.56966e-05
1.5265e-10
2.34715e-12
1.61508e-05
1.56151e-10
-2.61503e-14
1.6374e-05
1.49673e-10
-2.38851e-12
1.6374e-05
1.34005e-10
-4.85344e-12
1.61507e-05
1.11142e-10
-7.52316e-12
1.56966e-05
8.40597e-11
-1.04384e-11
1.49954e-05
5.63527e-11
-1.34799e-11
1.40205e-05
3.16514e-11
-1.64154e-11
1.27315e-05