/*--------------------------------*- C++ -*----------------------------------*\
  =========                 |
  \\      /  F ield         | OpenFOAM: The Open Source CFD Toolbox
   \\    /   O peration     | Website:  https://openfoam.org
    \\  /    A nd           | Version:  6
     \\/     M anipulation  |
\*---------------------------------------------------------------------------*/
FoamFile
{
    version     2.0;
    format      ascii;
    class       surfaceScalarField;
    location    "0.08";
    object      phi;
}
// * * * * * * * * * * * * * * * * * * * * * * * * * * * * * * * * * * * * * //

dimensions      [0 3 -1 0 0 0 0];

internalField   nonuniform List<scalar> 
162000
(
2.03316e-11
8.27912e-11
1.30832e-06
1.30372e-10
1.25875e-10
2.89491e-06
3.36606e-10
1.16312e-10
4.01429e-06
6.19606e-10
9.29729e-11
4.8578e-06
9.46429e-10
6.66535e-11
5.50823e-06
1.28041e-09
4.35664e-11
6.00922e-06
1.58473e-09
2.56271e-11
6.38699e-06
1.82696e-09
1.23204e-11
6.65822e-06
1.98135e-09
2.7049e-12
6.83362e-06
2.03088e-09
-4.80501e-12
6.91963e-06
1.96909e-09
-1.20923e-11
6.91921e-06
1.80111e-09
-2.10236e-11
6.8323e-06
1.54391e-09
-3.33751e-11
6.65578e-06
1.22522e-09
-5.04517e-11
6.38314e-06
8.81335e-10
-7.26288e-11
6.00374e-06
5.53509e-10
-9.94244e-11
5.50101e-06
2.81197e-10
-1.27345e-10
4.84915e-06
9.52584e-11
-1.48076e-10
4.00496e-06
7.13269e-12
-1.4847e-10
2.88645e-06
-9.02026e-11
1.30351e-06
1.27538e-10
1.84243e-10
2.89516e-06
4.9988e-10
3.05954e-10
7.0925e-06
1.11621e-09
3.02546e-10
1.02598e-05
1.91371e-09
2.52323e-10
1.27082e-05
2.80831e-09
1.88498e-10
1.46165e-05
3.70879e-09
1.28233e-10
1.6094e-05
4.5238e-09
7.81999e-11
1.72112e-05
5.1718e-09
3.91683e-11
1.80146e-05
5.58746e-09
9.15617e-12
1.85348e-05
5.72722e-09
-1.57404e-11
1.87902e-05
5.5739e-09
-4.03316e-11
1.87894e-05
5.13934e-09
-6.95181e-11
1.85323e-05
4.46509e-09
-1.07702e-10
1.80098e-05
3.61981e-09
-1.57806e-10
1.72033e-05
2.69357e-09
-2.19973e-10
1.60824e-05
1.78867e-09
-2.90416e-10
1.4601e-05
1.00467e-09
-3.58038e-10
1.26896e-05
4.24446e-10
-4.0005e-10
1.02399e-05
9.70657e-11
-3.77618e-10
7.07501e-06
-2.11579e-10
2.88619e-06
2.40526e-10
2.6303e-10
4.0152e-06
8.75359e-10
4.62979e-10
1.0261e-05
1.87538e-09
4.79105e-10
1.51659e-05
3.13272e-09
4.13593e-10
1.90413e-05
4.51934e-09
3.18555e-10
2.20989e-05
5.90158e-09
2.22801e-10
2.4483e-05
7.14616e-09
1.39312e-10
2.62935e-05
8.13434e-09
7.1386e-11
2.7599e-05
8.77064e-09
1.68036e-11
2.84457e-05
8.99087e-09
-3.02111e-11
2.88619e-05
8.769e-09
-7.71702e-11
2.8861e-05
8.12108e-09
-1.31831e-10
2.84429e-05
7.1063e-09
-2.00877e-10
2.75933e-05
5.82336e-09
-2.88178e-10
2.62838e-05
4.4025e-09
-3.92534e-10
2.44683e-05
2.99307e-09
-5.05276e-10
2.20789e-05
1.74256e-09
-6.05903e-10
1.90169e-05
7.80917e-10
-6.56419e-10
1.51398e-05
2.00929e-10
-5.95643e-10
1.02384e-05
-3.17199e-10
4.00393e-06
3.40807e-10
3.04869e-10
4.85971e-06
1.20845e-09
5.59344e-10
1.27114e-05
2.54515e-09
5.9838e-10
1.90437e-05
4.20051e-09
5.30264e-10
2.41355e-05
6.00718e-09
4.17961e-10
2.81988e-05
7.79584e-09
2.98359e-10
3.13905e-05
9.40008e-09
1.89871e-10
3.38259e-05
1.06722e-08
9.86049e-11
3.55875e-05
1.14933e-08
2.28089e-11
3.67322e-05
1.17833e-08
-4.42295e-11
3.72958e-05
1.15089e-08
-1.11716e-10
3.7295e-05
1.06887e-08
-1.89251e-10
3.67295e-05
9.39478e-09
-2.84802e-10
3.55816e-05
7.7483e-09
-4.023e-10
3.38155e-05
5.91051e-09
-5.38659e-10
3.13741e-05
4.06818e-09
-6.80393e-10
2.8176e-05
2.40943e-09
-7.99046e-10
2.41075e-05
1.1072e-09
-8.45742e-10
1.90135e-05
2.97037e-10
-7.45615e-10
1.26852e-05
-3.82845e-10
4.84676e-06
4.21589e-10
3.08816e-10
5.51133e-06
1.48225e-09
5.84559e-10
1.46222e-05
3.10025e-09
6.4109e-10
2.21042e-05
5.08811e-09
5.7982e-10
2.82019e-05
7.24409e-09
4.65205e-10
3.31144e-05
9.36897e-09
3.37254e-10
3.69994e-05
1.12695e-08
2.17422e-10
3.99774e-05
1.27748e-08
1.13819e-10
4.21382e-05
1.37481e-08
2.55322e-11
4.35455e-05
1.40966e-08
-5.41094e-11
4.4239e-05
1.37812e-08
-1.34754e-10
4.42382e-05
1.28222e-08
-2.26537e-10
4.35429e-05
1.1301e-08
-3.37585e-10
4.21326e-05
9.35631e-09
-4.71199e-10
3.99668e-05
7.1737e-09
-6.22559e-10
3.69821e-05
4.97031e-09
-7.74989e-10
3.30899e-05
2.96858e-09
-8.95606e-10
2.81711e-05
1.37924e-09
-9.30926e-10
2.20709e-05
3.75751e-10
-8.03065e-10
1.45931e-05
-4.01046e-10
5.49695e-06
4.83127e-10
2.81352e-10
6.01356e-06
1.69552e-09
5.45133e-10
1.61022e-05
3.53798e-09
6.09114e-10
2.44914e-05
5.79286e-09
5.5951e-10
3.13967e-05
8.22982e-09
4.5499e-10
3.70026e-05
1.06249e-08
3.33724e-10
4.14607e-05
1.27631e-08
2.17196e-10
4.48921e-05
1.44554e-08
1.14222e-10
4.73889e-05
1.55505e-08
2.47093e-11
4.90179e-05
1.59461e-08
-5.72399e-11
4.98216e-05
1.55985e-08
-1.40587e-10
4.9821e-05
1.45292e-08
-2.34793e-10
4.90155e-05
1.28266e-08
-3.47211e-10
4.73834e-05
1.06429e-08
-4.80216e-10
4.48811e-05
8.18297e-09
-6.27997e-10
4.14427e-05
5.68875e-09
-7.73048e-10
3.69765e-05
3.41098e-09
-8.82445e-10
3.13638e-05
1.59187e-09
-9.04661e-10
2.44554e-05
4.35849e-10
-7.67709e-10
1.60705e-05
-3.75468e-10
5.99785e-06
5.27734e-10
2.30003e-10
6.39245e-06
1.85352e-09
4.53286e-10
1.72216e-05
3.86658e-09
5.13416e-10
2.63046e-05
6.32628e-09
4.77014e-10
3.3835e-05
8.97978e-09
3.9178e-10
3.99834e-05
1.15835e-08
2.89837e-10
4.48949e-05
1.39051e-08
1.89906e-10
4.86874e-05
1.57414e-08
1.00113e-10
5.14538e-05
1.69304e-08
2.08959e-11
5.32613e-05
1.73623e-08
-5.24168e-11
5.41539e-05
1.69899e-08
-1.27221e-10
5.41534e-05
1.58354e-08
-2.11352e-10
5.3259e-05
1.39927e-08
-3.10736e-10
5.14481e-05
1.16243e-08
-4.26854e-10
4.86763e-05
8.95025e-09
-5.53976e-10
4.4876e-05
6.23186e-09
-6.76263e-10
3.99559e-05
3.74241e-09
-7.64946e-10
3.37999e-05
1.74882e-09
-7.76249e-10
2.62661e-05
4.791e-10
-6.50886e-10
1.71877e-05
-3.13505e-10
6.37555e-06
5.5817e-10
1.61941e-10
6.66461e-06
1.96359e-09
3.22885e-10
1.80269e-05
4.09831e-09
3.69121e-10
2.76124e-05
6.70546e-09
3.45651e-10
3.55987e-05
9.51567e-09
2.85839e-10
4.21464e-05
1.22707e-08
2.12705e-10
4.73935e-05
1.47255e-08
1.3999e-10
5.14555e-05
1.66665e-08
7.38849e-11
5.44235e-05
1.79236e-08
1.49648e-11
5.63651e-05
1.83816e-08
-3.99696e-11
5.73249e-05
1.79909e-08
-9.61465e-11
5.73244e-05
1.67741e-08
-1.59114e-10
5.6363e-05
1.48294e-08
-2.32982e-10
5.44179e-05
1.23266e-08
-3.1854e-10
5.1444e-05
9.49711e-09
-4.11235e-10
4.7374e-05
6.61654e-09
-4.99126e-10
4.21176e-05
3.97495e-09
-5.61028e-10
3.55619e-05
1.85732e-09
-5.65329e-10
2.75717e-05
5.08237e-10
-4.70161e-10
1.79911e-05
-2.241e-10
6.64671e-06
5.76944e-10
8.34591e-11
6.84074e-06
2.03264e-09
1.67537e-10
1.85485e-05
4.24516e-09
1.92567e-10
2.84606e-05
6.94727e-09
1.81154e-10
3.6745e-05
9.85892e-09
1.50407e-10
4.35547e-05
1.27122e-08
1.12305e-10
4.90235e-05
1.52535e-08
7.4102e-11
5.32639e-05
1.72625e-08
3.91298e-11
5.63661e-05
1.85637e-08
7.7701e-12
5.83971e-05
1.90386e-08
-2.15954e-11
5.94016e-05
1.86358e-08
-5.16639e-11
5.94011e-05
1.73784e-08
-8.53009e-11
5.8395e-05
1.53671e-08
-1.24601e-10
5.63604e-05
1.27768e-08
-1.69887e-10
5.32521e-05
9.84629e-09
-2.18646e-10
4.90032e-05
6.86082e-09
-2.64482e-10
4.3525e-05
4.12144e-09
-2.96184e-10
3.67069e-05
1.92481e-09
-2.97229e-10
2.84185e-05
5.2596e-10
-2.46014e-10
1.85113e-05
-1.16548e-10
6.82214e-06
5.85865e-10
3.875e-15
6.92726e-06
2.0658e-09
9.125e-15
1.88049e-05
4.31614e-09
1.3e-14
2.88779e-05
7.06469e-09
1.4125e-14
3.73095e-05
1.00261e-08
1.3375e-14
4.4249e-05
1.29276e-08
1.1625e-14
4.98279e-05
1.55115e-08
9.875e-15
5.41571e-05
1.75539e-08
8.15e-15
5.73263e-05
1.88769e-08
6.6875e-15
5.94021e-05
1.93599e-08
5.4e-15
6.04288e-05
1.89511e-08
4.25e-15
6.04283e-05
1.76736e-08
3.125e-15
5.93998e-05
1.56295e-08
1.875e-15
5.73204e-05
1.29961e-08
7.5e-16
5.41451e-05
1.00159e-08
-1.25e-16
4.98072e-05
6.97904e-09
-1e-15
4.42188e-05
4.19194e-09
-1.75e-15
3.72706e-05
1.95701e-09
-2.5e-15
2.8835e-05
5.34291e-10
-2.25e-15
1.87669e-05
-1e-15
6.90829e-06
5.85865e-10
-8.34507e-11
6.92726e-06
2.0658e-09
-1.67517e-10
1.88049e-05
4.31614e-09
-1.9254e-10
2.88779e-05
7.06469e-09
-1.81126e-10
3.73095e-05
1.00261e-08
-1.50381e-10
4.4249e-05
1.29276e-08
-1.12283e-10
4.98279e-05
1.55115e-08
-7.40829e-11
5.41571e-05
1.75539e-08
-3.9114e-11
5.73262e-05
1.88769e-08
-7.75712e-12
5.94021e-05
1.93599e-08
2.16059e-11
6.04288e-05
1.89511e-08
5.16722e-11
6.04282e-05
1.76736e-08
8.5307e-11
5.93997e-05
1.56294e-08
1.24605e-10
5.73204e-05
1.2996e-08
1.69888e-10
5.41451e-05
1.00159e-08
2.18646e-10
4.98072e-05
6.97904e-09
2.6448e-10
4.42188e-05
4.19194e-09
2.96181e-10
3.72706e-05
1.95701e-09
2.97223e-10
2.8835e-05
5.3429e-10
2.46008e-10
1.87669e-05
1.16545e-10
6.90829e-06
5.76944e-10
-1.61931e-10
6.84074e-06
2.03263e-09
-3.2286e-10
1.85485e-05
4.24515e-09
-3.69091e-10
2.84606e-05
6.94727e-09
-3.45624e-10
3.6745e-05
9.85892e-09
-2.85814e-10
4.35547e-05
1.27122e-08
-2.12684e-10
4.90235e-05
1.52535e-08
-1.39973e-10
5.32639e-05
1.72625e-08
-7.38706e-11
5.63661e-05
1.85638e-08
-1.49529e-11
5.83971e-05
1.90386e-08
3.99795e-11
5.94016e-05
1.86358e-08
9.61544e-11
5.94011e-05
1.73784e-08
1.5912e-10
5.8395e-05
1.53671e-08
2.32987e-10
5.63604e-05
1.27768e-08
3.18543e-10
5.32521e-05
9.84629e-09
4.11235e-10
4.90032e-05
6.86082e-09
4.99125e-10
4.3525e-05
4.12144e-09
5.61023e-10
3.67069e-05
1.92481e-09
5.6532e-10
2.84185e-05
5.25958e-10
4.70151e-10
1.85113e-05
2.24096e-10
6.82214e-06
5.58169e-10
-2.29993e-10
6.66461e-06
1.96359e-09
-4.5326e-10
1.80269e-05
4.09831e-09
-5.13387e-10
2.76124e-05
6.70545e-09
-4.76989e-10
3.55988e-05
9.51568e-09
-3.91759e-10
4.21464e-05
1.22707e-08
-2.8982e-10
4.73935e-05
1.47255e-08
-1.89891e-10
5.14555e-05
1.66665e-08
-1.00101e-10
5.44235e-05
1.79236e-08
-2.08856e-11
5.63653e-05
1.83816e-08
5.24255e-11
5.73249e-05
1.79909e-08
1.27228e-10
5.73244e-05
1.67742e-08
2.11358e-10
5.6363e-05
1.48295e-08
3.1074e-10
5.44179e-05
1.23266e-08
4.26858e-10
5.1444e-05
9.49711e-09
5.53977e-10
4.7374e-05
6.61654e-09
6.76264e-10
4.21176e-05
3.97495e-09
7.64943e-10
3.55619e-05
1.85732e-09
7.7624e-10
2.75717e-05
5.08234e-10
6.50875e-10
1.79911e-05
3.13501e-10
6.64671e-06
5.27732e-10
-2.81345e-10
6.39245e-06
1.85352e-09
-5.45116e-10
1.72216e-05
3.86656e-09
-6.09097e-10
2.63046e-05
6.32626e-09
-5.59493e-10
3.3835e-05
8.97978e-09
-4.54975e-10
3.99834e-05
1.15835e-08
-3.3371e-10
4.48949e-05
1.39051e-08
-2.17184e-10
4.86874e-05
1.57415e-08
-1.14212e-10
5.14538e-05
1.69304e-08
-2.47008e-11
5.32613e-05
1.73623e-08
5.72471e-11
5.41539e-05
1.69899e-08
1.40593e-10
5.41534e-05
1.58354e-08
2.34798e-10
5.3259e-05
1.39927e-08
3.47215e-10
5.14481e-05
1.16243e-08
4.80219e-10
4.86763e-05
8.95025e-09
6.28e-10
4.4876e-05
6.23186e-09
7.73051e-10
3.99559e-05
3.7424e-09
8.82448e-10
3.37999e-05
1.74881e-09
9.04661e-10
2.62661e-05
4.79097e-10
7.67705e-10
1.71877e-05
3.75468e-10
6.37555e-06
4.83123e-10
-3.08816e-10
6.01356e-06
1.69551e-09
-5.84559e-10
1.61022e-05
3.53796e-09
-6.41089e-10
2.44914e-05
5.79285e-09
-5.79811e-10
3.13967e-05
8.22982e-09
-4.65195e-10
3.70026e-05
1.06249e-08
-3.37244e-10
4.14607e-05
1.27631e-08
-2.17414e-10
4.48921e-05
1.44554e-08
-1.13813e-10
4.73889e-05
1.55505e-08
-2.55265e-11
4.90179e-05
1.59461e-08
5.41146e-11
4.98216e-05
1.55986e-08
1.34759e-10
4.9821e-05
1.45292e-08
2.26542e-10
4.90155e-05
1.28266e-08
3.3759e-10
4.73834e-05
1.06429e-08
4.71203e-10
4.48811e-05
8.18297e-09
6.22562e-10
4.14427e-05
5.68875e-09
7.74996e-10
3.69765e-05
3.41097e-09
8.95616e-10
3.13637e-05
1.59186e-09
9.3094e-10
2.44554e-05
4.35846e-10
8.03076e-10
1.60705e-05
4.01053e-10
5.99785e-06
4.21584e-10
-3.04873e-10
5.51133e-06
1.48224e-09
-5.59349e-10
1.46222e-05
3.10024e-09
-5.98381e-10
2.21042e-05
5.08811e-09
-5.30256e-10
2.82019e-05
7.24409e-09
-4.17956e-10
3.31144e-05
9.36898e-09
-2.98356e-10
3.69994e-05
1.12695e-08
-1.8987e-10
3.99774e-05
1.27749e-08
-9.86036e-11
4.21383e-05
1.37481e-08
-2.28071e-11
4.35455e-05
1.40966e-08
4.42318e-11
4.4239e-05
1.37812e-08
1.11719e-10
4.42384e-05
1.28222e-08
1.89254e-10
4.35429e-05
1.13011e-08
2.84807e-10
4.21326e-05
9.35634e-09
4.02308e-10
3.99668e-05
7.17371e-09
5.38667e-10
3.69821e-05
4.97031e-09
6.80403e-10
3.30899e-05
2.96857e-09
7.99058e-10
2.81711e-05
1.37923e-09
8.4576e-10
2.20709e-05
3.75747e-10
7.45633e-10
1.45931e-05
3.82853e-10
5.49695e-06
3.40797e-10
-2.63022e-10
4.85971e-06
1.20843e-09
-4.62959e-10
1.27114e-05
2.54512e-09
-4.79086e-10
1.90437e-05
4.20049e-09
-4.13579e-10
2.41355e-05
6.00716e-09
-3.18554e-10
2.81988e-05
7.79585e-09
-2.22809e-10
3.13905e-05
9.4001e-09
-1.39321e-10
3.38259e-05
1.06722e-08
-7.13919e-11
3.55875e-05
1.14933e-08
-1.6807e-11
3.67323e-05
1.17833e-08
3.02095e-11
3.72958e-05
1.15089e-08
7.71704e-11
3.7295e-05
1.06888e-08
1.31833e-10
3.67295e-05
9.3948e-09
2.00884e-10
3.55816e-05
7.74833e-09
2.88192e-10
3.38155e-05
5.91053e-09
3.92552e-10
3.13741e-05
4.06818e-09
5.05288e-10
2.8176e-05
2.40942e-09
6.05903e-10
2.41075e-05
1.10719e-09
6.56416e-10
1.90135e-05
2.97032e-10
5.95634e-10
1.26852e-05
3.17194e-10
4.84676e-06
2.40512e-10
-1.84213e-10
4.0152e-06
8.75327e-10
-3.05892e-10
1.0261e-05
1.87535e-09
-3.025e-10
1.51659e-05
3.1327e-09
-2.52302e-10
1.90413e-05
4.51934e-09
-1.88498e-10
2.20989e-05
5.90157e-09
-1.28247e-10
2.4483e-05
7.14617e-09
-7.82149e-11
2.62935e-05
8.13436e-09
-3.918e-11
2.7599e-05
8.77066e-09
-9.16437e-12
2.84457e-05
8.9909e-09
1.57353e-11
2.88619e-05
8.76902e-09
4.03295e-11
2.8861e-05
8.1211e-09
6.952e-11
2.84429e-05
7.10632e-09
1.07711e-10
2.75932e-05
5.82337e-09
1.57826e-10
2.62837e-05
4.4025e-09
2.19999e-10
2.44683e-05
2.99305e-09
2.90427e-10
2.20789e-05
1.74253e-09
3.58024e-10
1.90169e-05
7.80894e-10
4.00016e-10
1.51398e-05
2.0092e-10
3.77564e-10
1.02383e-05
2.11555e-10
4.00392e-06
1.27515e-10
-8.27572e-11
2.89516e-06
4.99833e-10
-1.25813e-10
7.0925e-06
1.11616e-09
-1.16271e-10
1.02598e-05
1.91368e-09
-9.29559e-11
1.27082e-05
2.8083e-09
-6.66554e-11
1.46165e-05
3.7088e-09
-4.35786e-11
1.6094e-05
4.52383e-09
-2.56397e-11
1.72112e-05
5.17181e-09
-1.23301e-11
1.80146e-05
5.58748e-09
-2.71172e-12
1.85348e-05
5.72725e-09
4.80059e-12
1.87902e-05
5.57393e-09
1.20902e-11
1.87895e-05
5.13938e-09
2.10247e-11
1.85323e-05
4.46514e-09
3.33822e-11
1.80098e-05
3.61985e-09
5.04682e-11
1.72033e-05
2.69357e-09
7.26508e-11
1.60824e-05
1.78863e-09
9.94349e-11
1.4601e-05
1.00462e-09
1.27332e-10
1.26896e-05
4.24404e-10
1.48039e-10
1.02399e-05
9.70485e-11
1.48413e-10
7.07501e-06
9.01745e-11
2.88619e-06
2.03137e-11
1.30832e-06
1.30336e-10
2.89491e-06
3.36566e-10
4.01429e-06
6.19579e-10
4.8578e-06
9.46418e-10
5.50823e-06
1.28041e-09
6.00923e-06
1.58474e-09
6.38699e-06
1.82698e-09
6.65823e-06
1.98136e-09
6.83363e-06
2.03089e-09
6.91963e-06
1.9691e-09
6.91921e-06
1.80113e-09
6.8323e-06
1.54393e-09
6.65578e-06
1.22524e-09
6.38314e-06
8.81326e-10
6.00374e-06
5.53476e-10
5.50101e-06
2.81151e-10
4.84915e-06
9.52225e-11
4.00496e-06
7.11976e-12
2.88645e-06
1.30351e-06
-1.29083e-11
2.01225e-10
1.30814e-06
1.27933e-10
3.31994e-10
2.89446e-06
4.6655e-10
3.33246e-10
4.01364e-06
9.84867e-10
2.87187e-10
4.85701e-06
1.62154e-09
2.25215e-10
5.50738e-06
2.29588e-09
1.63773e-10
6.00839e-06
2.92261e-09
1.09201e-10
6.38626e-06
3.42389e-09
6.21323e-11
6.65766e-06
3.73718e-09
2.10533e-11
6.83329e-06
3.82174e-09
-1.70348e-11
6.91956e-06
3.66356e-09
-5.5746e-11
6.91941e-06
3.27814e-09
-9.86259e-11
6.83279e-06
2.71068e-09
-1.48714e-10
6.65649e-06
2.03266e-09
-2.07691e-10
6.38403e-06
1.33429e-09
-2.74709e-10
6.0047e-06
7.12393e-10
-3.45363e-10
5.50196e-06
2.51383e-10
-4.07877e-10
4.85e-06
-8.8e-13
-4.39116e-10
4.00564e-06
-5.81395e-11
-4.01306e-10
2.88688e-06
-2.18767e-10
1.30367e-06
1.54904e-10
4.7625e-10
2.89474e-06
7.69014e-10
8.47815e-10
7.09135e-06
1.90897e-09
8.97035e-10
1.02581e-05
3.48396e-09
8.01609e-10
1.27061e-05
5.32691e-09
6.48224e-10
1.46142e-05
7.23239e-09
4.83291e-10
1.60917e-05
8.98436e-09
3.27647e-10
1.72092e-05
1.03838e-08
1.87088e-10
1.80131e-05
1.12691e-08
5.94446e-11
1.85339e-05
1.15337e-08
-6.21189e-11
1.879e-05
1.11382e-08
-1.86444e-10
1.879e-05
1.01187e-08
-3.22297e-10
1.85335e-05
8.58659e-09
-4.76536e-10
1.80117e-05
6.72073e-09
-6.51633e-10
1.72056e-05
4.74806e-09
-8.42327e-10
1.6085e-05
2.9139e-09
-1.03165e-09
1.46036e-05
1.43889e-09
-1.18367e-09
1.26918e-05
4.70854e-10
-1.23436e-09
1.02417e-05
4.11317e-11
-1.08215e-09
7.07615e-06
-5.56479e-10
2.88658e-06
3.7819e-10
7.20568e-10
4.0146e-06
1.54082e-09
1.34165e-09
1.02593e-05
3.51652e-09
1.47005e-09
1.51634e-05
6.1234e-09
1.34997e-09
1.90382e-05
9.09531e-09
1.11656e-09
2.20954e-05
1.21238e-08
8.47434e-10
2.44796e-05
1.4888e-08
5.81251e-10
2.62905e-05
1.70927e-08
3.31995e-10
2.75967e-05
1.84976e-08
9.90041e-11
2.84442e-05
1.8942e-08
-1.26996e-10
2.88615e-05
1.83645e-08
-3.59117e-10
2.88617e-05
1.6814e-08
-6.104e-10
2.84447e-05
1.44512e-08
-8.9012e-10
2.75961e-05
1.15364e-08
-1.1993e-09
2.62873e-05
8.40305e-09
-1.52502e-09
2.44721e-05
5.41617e-09
-1.83362e-09
2.20827e-05
2.9132e-09
-2.0609e-09
1.90203e-05
1.14511e-09
-2.10061e-09
1.51425e-05
2.22627e-10
-1.79322e-09
1.024e-05
-8.93356e-10
4.00446e-06
6.02454e-10
8.76122e-10
4.85899e-06
2.30145e-09
1.68483e-09
1.27094e-05
5.07229e-09
1.89403e-09
1.90405e-05
8.63881e-09
1.77533e-09
2.41315e-05
1.26406e-08
1.49353e-09
2.81944e-05
1.66787e-08
1.14864e-09
3.13861e-05
2.03447e-08
7.94369e-10
3.3822e-05
2.32648e-08
4.53009e-10
3.55845e-05
2.51344e-08
1.2681e-10
3.67302e-05
2.57486e-08
-1.93931e-10
3.72951e-05
2.50267e-08
-5.24389e-10
3.72959e-05
2.30259e-08
-8.79655e-10
3.67317e-05
1.99443e-08
-1.26932e-09
3.5585e-05
1.61062e-08
-1.69127e-09
3.38198e-05
1.19313e-08
-2.1242e-09
3.13789e-05
7.88481e-09
-2.51891e-09
2.81808e-05
4.40853e-09
-2.78764e-09
2.41117e-05
1.85489e-09
-2.79286e-09
1.90168e-05
4.23638e-10
-2.33686e-09
1.26872e-05
-1.1362e-09
4.8474e-06
8.0059e-10
9.23567e-10
5.51053e-06
2.97978e-09
1.82028e-09
1.46198e-05
6.4612e-09
2.08644e-09
2.21005e-05
1.08805e-08
1.98694e-09
2.81973e-05
1.57905e-08
1.69358e-09
3.31093e-05
2.07127e-08
1.31572e-09
3.69942e-05
2.51646e-08
9.15403e-10
3.99728e-05
2.87066e-08
5.20646e-10
4.21346e-05
3.09814e-08
1.36804e-10
4.35432e-05
3.17478e-08
-2.44596e-10
4.42383e-05
3.09084e-08
-6.38476e-10
4.42392e-05
2.85263e-08
-1.05965e-09
4.35455e-05
2.48285e-08
-1.51627e-09
4.21366e-05
2.01913e-08
-2.00268e-09
3.99718e-05
1.51052e-08
-2.49105e-09
3.69876e-05
1.01209e-08
-2.92216e-09
3.30953e-05
5.77227e-09
-3.19518e-09
2.81759e-05
2.506e-09
-3.15826e-09
2.20745e-05
6.07907e-10
-2.60154e-09
1.45953e-05
-1.24036e-09
5.49761e-06
9.6366e-10
8.69275e-10
6.01271e-06
3.54597e-09
1.74525e-09
1.60996e-05
7.6287e-09
2.02997e-09
2.44874e-05
1.27711e-08
1.95667e-09
3.13916e-05
1.84505e-08
1.68449e-09
3.6997e-05
2.412e-08
1.31872e-09
4.14551e-05
2.92344e-08
9.21454e-10
4.4887e-05
3.33e-08
5.22467e-10
4.73849e-05
3.59161e-08
1.29233e-10
4.90152e-05
3.6812e-08
-2.64649e-10
4.98208e-05
3.58765e-08
-6.72137e-10
4.9822e-05
3.31769e-08
-1.10603e-09
4.90182e-05
2.89632e-08
-1.57222e-09
4.73876e-05
2.36537e-08
-2.06242e-09
4.48865e-05
1.77978e-08
-2.54608e-09
4.14486e-05
1.20182e-08
-2.96179e-09
3.69824e-05
6.9274e-09
-3.20849e-09
3.13689e-05
3.05467e-09
-3.13851e-09
2.44592e-05
7.6122e-10
-2.55418e-09
1.60728e-05
-1.19937e-09
5.99851e-06
1.09012e-09
7.2902e-10
6.39156e-06
3.99155e-09
1.48356e-09
1.72189e-05
8.5553e-09
1.74416e-09
2.63003e-05
1.42791e-08
1.69619e-09
3.38295e-05
2.05786e-08
1.47103e-09
3.99774e-05
2.68505e-08
1.15809e-09
4.48888e-05
3.24984e-08
8.11644e-10
4.86819e-05
3.69851e-08
4.58826e-10
5.14493e-05
3.98758e-08
1.07561e-10
5.32584e-05
4.08756e-08
-2.4638e-10
5.41529e-05
3.98629e-08
-6.13016e-10
5.41544e-05
3.6908e-08
-1.00217e-09
5.32619e-05
3.22793e-08
-1.41747e-09
5.14526e-05
2.64283e-08
-1.84986e-09
4.86819e-05
1.99521e-08
-2.27078e-09
4.48822e-05
1.35315e-08
-2.625e-09
3.9962e-05
7.84396e-09
-2.82391e-09
3.38053e-05
3.48604e-09
-2.74092e-09
2.627e-05
8.79733e-10
-2.21065e-09
1.719e-05
-1.02631e-09
6.3762e-06
1.18161e-09
5.22859e-10
6.6637e-06
4.31821e-09
1.07388e-09
1.80241e-05
9.24005e-09
1.27178e-09
2.76079e-05
1.53992e-08
1.24438e-09
3.5593e-05
2.21643e-08
1.08466e-09
4.214e-05
2.88891e-08
8.57189e-10
4.73871e-05
3.49384e-08
6.0193e-10
5.14496e-05
3.97417e-08
3.39434e-10
5.44189e-05
4.28382e-08
7.62528e-11
5.6362e-05
4.39157e-08
-1.90023e-10
5.73238e-05
4.28442e-08
-4.66086e-10
5.73254e-05
3.96966e-08
-7.58459e-10
5.63659e-05
3.47551e-08
-1.06898e-09
5.44225e-05
2.84965e-08
-1.39006e-09
5.14498e-05
2.15536e-08
-1.69964e-09
4.73804e-05
1.46521e-08
-1.9562e-09
4.21238e-05
8.51851e-09
-2.09428e-09
3.55673e-05
3.80039e-09
-2.02179e-09
2.75757e-05
9.64593e-10
-1.62054e-09
1.79934e-05
-7.46444e-10
6.64733e-06
1.2407e-09
2.7249e-10
6.83982e-06
4.53141e-09
5.62669e-10
1.85456e-05
9.6898e-09
6.69208e-10
2.8456e-05
1.61379e-08
6.5713e-10
3.67391e-05
2.3213e-08
5.74486e-10
4.35481e-05
3.02397e-08
4.55016e-10
4.90169e-05
3.65566e-08
3.1987e-10
5.32579e-05
4.15711e-08
1.80089e-10
5.63612e-05
4.48046e-08
3.93622e-11
5.8394e-05
4.59335e-08
-1.03361e-10
5.94004e-05
4.48221e-08
-2.51405e-10
5.9402e-05
4.15451e-08
-4.07988e-10
5.83979e-05
3.63944e-08
-5.73823e-10
5.6365e-05
2.98635e-08
-7.44588e-10
5.3258e-05
2.26096e-08
-9.08299e-10
4.90097e-05
1.53882e-08
-1.04272e-09
4.35313e-05
8.95922e-09
-1.11314e-09
3.67123e-05
4.00404e-09
-1.0712e-09
2.84225e-05
1.01876e-09
-8.55481e-10
1.85136e-05
-3.92229e-10
6.82273e-06
1.26962e-09
4.625e-15
6.92635e-06
4.63645e-09
1.125e-14
1.8802e-05
9.91228e-09
1.625e-14
2.88733e-05
1.65043e-08
1.75e-14
3.73036e-05
2.37341e-08
1.75e-14
4.42424e-05
3.09118e-08
1.725e-14
4.98211e-05
3.73624e-08
1.6625e-14
5.4151e-05
4.24823e-08
1.625e-14
5.73213e-05
4.57841e-08
1.62375e-14
5.93988e-05
4.69384e-08
1.6375e-14
6.04275e-05
4.58069e-08
1.6375e-14
6.04291e-05
4.24651e-08
1.625e-14
5.94026e-05
3.72095e-08
1.5e-14
5.73251e-05
3.05424e-08
1.5e-14
5.41511e-05
2.3133e-08
1.25e-14
4.98137e-05
1.57522e-08
1.125e-14
4.42251e-05
9.17634e-09
1e-14
3.7276e-05
4.1038e-09
6.25e-15
2.8839e-05
1.04504e-09
2.5e-15
1.87692e-05
1.125e-15
6.90888e-06
1.26962e-09
-2.7248e-10
6.92635e-06
4.63645e-09
-5.62645e-10
1.8802e-05
9.91227e-09
-6.69175e-10
2.88732e-05
1.65043e-08
-6.57094e-10
3.73036e-05
2.37341e-08
-5.74451e-10
4.42424e-05
3.09117e-08
-4.54983e-10
4.98211e-05
3.73624e-08
-3.19837e-10
5.4151e-05
4.24822e-08
-1.80057e-10
5.73212e-05
4.57842e-08
-3.93307e-11
5.93987e-05
4.69385e-08
1.03393e-10
6.04275e-05
4.58069e-08
2.51436e-10
6.04291e-05
4.24651e-08
4.08019e-10
5.94026e-05
3.72095e-08
5.73853e-10
5.73251e-05
3.05424e-08
7.44616e-10
5.41511e-05
2.3133e-08
9.08325e-10
4.98137e-05
1.57522e-08
1.04274e-09
4.42251e-05
9.17634e-09
1.11316e-09
3.7276e-05
4.1038e-09
1.07121e-09
2.8839e-05
1.04504e-09
8.55486e-10
1.87692e-05
3.92231e-10
6.90888e-06
1.2407e-09
-5.22847e-10
6.83982e-06
4.53141e-09
-1.07385e-09
1.85456e-05
9.6898e-09
-1.27174e-09
2.8456e-05
1.61379e-08
-1.24434e-09
3.67391e-05
2.3213e-08
-1.08463e-09
4.35481e-05
3.02397e-08
-8.5716e-10
4.90169e-05
3.65566e-08
-6.019e-10
5.32579e-05
4.15711e-08
-3.39406e-10
5.63612e-05
4.48046e-08
-7.6224e-11
5.8394e-05
4.59335e-08
1.90052e-10
5.94004e-05
4.48221e-08
4.66115e-10
5.9402e-05
4.15452e-08
7.58487e-10
5.83979e-05
3.63945e-08
1.06901e-09
5.6365e-05
2.98635e-08
1.39009e-09
5.3258e-05
2.26096e-08
1.69967e-09
4.90097e-05
1.53882e-08
1.95622e-09
4.35313e-05
8.95922e-09
2.0943e-09
3.67123e-05
4.00404e-09
2.0218e-09
2.84225e-05
1.01876e-09
1.62054e-09
1.85136e-05
7.46444e-10
6.82273e-06
1.18161e-09
-7.29007e-10
6.6637e-06
4.31821e-09
-1.48353e-09
1.80241e-05
9.24006e-09
-1.74413e-09
2.76079e-05
1.53993e-08
-1.69616e-09
3.55931e-05
2.21643e-08
-1.47101e-09
4.214e-05
2.88891e-08
-1.15807e-09
4.73871e-05
3.49384e-08
-8.11619e-10
5.14496e-05
3.97418e-08
-4.58802e-10
5.44189e-05
4.28383e-08
-1.07536e-10
5.63621e-05
4.39158e-08
2.46406e-10
5.73238e-05
4.28443e-08
6.13042e-10
5.73254e-05
3.96966e-08
1.0022e-09
5.63659e-05
3.47551e-08
1.41749e-09
5.44225e-05
2.84965e-08
1.84988e-09
5.14498e-05
2.15536e-08
2.27081e-09
4.73804e-05
1.46521e-08
2.62503e-09
4.21238e-05
8.51851e-09
2.82394e-09
3.55673e-05
3.80039e-09
2.74094e-09
2.75757e-05
9.64591e-10
2.21065e-09
1.79934e-05
1.02631e-09
6.64733e-06
1.09012e-09
-8.69266e-10
6.39156e-06
3.99154e-09
-1.74523e-09
1.72189e-05
8.55529e-09
-2.02996e-09
2.63003e-05
1.42791e-08
-1.95665e-09
3.38295e-05
2.05786e-08
-1.68447e-09
3.99774e-05
2.68505e-08
-1.3187e-09
4.48888e-05
3.24984e-08
-9.21434e-10
4.86819e-05
3.69851e-08
-5.22449e-10
5.14493e-05
3.98758e-08
-1.29213e-10
5.32584e-05
4.08756e-08
2.64669e-10
5.41529e-05
3.98629e-08
6.7216e-10
5.41544e-05
3.6908e-08
1.10605e-09
5.32619e-05
3.22794e-08
1.57225e-09
5.14526e-05
2.64285e-08
2.06244e-09
4.86819e-05
1.99521e-08
2.54611e-09
4.48822e-05
1.35315e-08
2.96181e-09
3.9962e-05
7.84397e-09
3.20851e-09
3.38053e-05
3.48604e-09
3.13854e-09
2.62701e-05
8.79731e-10
2.5542e-09
1.719e-05
1.19937e-09
6.3762e-06
9.63657e-10
-9.23566e-10
6.01271e-06
3.54597e-09
-1.82028e-09
1.60996e-05
7.62869e-09
-2.08643e-09
2.44874e-05
1.2771e-08
-1.98693e-09
3.13916e-05
1.84505e-08
-1.69357e-09
3.6997e-05
2.412e-08
-1.31571e-09
4.14551e-05
2.92344e-08
-9.1539e-10
4.4887e-05
3.33e-08
-5.20634e-10
4.73849e-05
3.59161e-08
-1.3679e-10
4.90152e-05
3.6812e-08
2.44611e-10
4.98207e-05
3.58765e-08
6.38492e-10
4.9822e-05
3.31769e-08
1.05966e-09
4.90182e-05
2.89632e-08
1.51629e-09
4.73876e-05
2.36537e-08
2.00269e-09
4.48865e-05
1.77979e-08
2.49107e-09
4.14486e-05
1.20182e-08
2.92219e-09
3.69824e-05
6.9274e-09
3.19521e-09
3.13689e-05
3.05467e-09
3.15829e-09
2.44592e-05
7.61217e-10
2.60156e-09
1.60728e-05
1.24037e-09
5.99851e-06
8.00586e-10
-8.76124e-10
5.51053e-06
2.97976e-09
-1.68483e-09
1.46198e-05
6.46119e-09
-1.89403e-09
2.21005e-05
1.08805e-08
-1.77532e-09
2.81973e-05
1.57905e-08
-1.49352e-09
3.31093e-05
2.07128e-08
-1.14864e-09
3.69943e-05
2.51646e-08
-7.94365e-10
3.99728e-05
2.87066e-08
-4.53003e-10
4.21346e-05
3.09814e-08
-1.26801e-10
4.35433e-05
3.17478e-08
1.93941e-10
4.42383e-05
3.09084e-08
5.24399e-10
4.42394e-05
2.85264e-08
8.79669e-10
4.35455e-05
2.48287e-08
1.26934e-09
4.21366e-05
2.01913e-08
1.69129e-09
3.99718e-05
1.51052e-08
2.12422e-09
3.69876e-05
1.01209e-08
2.51893e-09
3.30953e-05
5.77227e-09
2.78768e-09
2.81759e-05
2.506e-09
2.79289e-09
2.20745e-05
6.07905e-10
2.33688e-09
1.45953e-05
1.13621e-09
5.49761e-06
6.02446e-10
-7.20559e-10
4.85899e-06
2.30143e-09
-1.34162e-09
1.27094e-05
5.07228e-09
-1.47003e-09
1.90405e-05
8.63881e-09
-1.34995e-09
2.41315e-05
1.26406e-08
-1.11656e-09
2.81944e-05
1.66787e-08
-8.47439e-10
3.13861e-05
2.03448e-08
-5.81256e-10
3.3822e-05
2.32649e-08
-3.31998e-10
3.55845e-05
2.51345e-08
-9.90024e-11
3.67303e-05
2.57488e-08
1.27e-10
3.72951e-05
2.50268e-08
3.59124e-10
3.72959e-05
2.3026e-08
6.10411e-10
3.67318e-05
1.99443e-08
8.90136e-10
3.5585e-05
1.61063e-08
1.19933e-09
3.38198e-05
1.19313e-08
1.52505e-09
3.13789e-05
7.88483e-09
1.83364e-09
2.81808e-05
4.40852e-09
2.06091e-09
2.41117e-05
1.85489e-09
2.10061e-09
1.90168e-05
4.23635e-10
1.79321e-09
1.26872e-05
8.93354e-10
4.8474e-06
3.78176e-10
-4.76221e-10
4.0146e-06
1.54079e-09
-8.47749e-10
1.02593e-05
3.51649e-09
-8.96986e-10
1.51634e-05
6.12339e-09
-8.01584e-10
1.90382e-05
9.09532e-09
-6.48221e-10
2.20954e-05
1.21238e-08
-4.83301e-10
2.44796e-05
1.4888e-08
-3.27659e-10
2.62905e-05
1.70928e-08
-1.87097e-10
2.75967e-05
1.84977e-08
-5.94481e-11
2.84442e-05
1.89421e-08
6.21191e-11
2.88615e-05
1.83646e-08
1.86448e-10
2.88617e-05
1.6814e-08
3.22306e-10
2.84447e-05
1.44512e-08
4.76554e-10
2.75961e-05
1.15364e-08
6.5166e-10
2.62872e-05
8.40306e-09
8.42361e-10
2.44721e-05
5.41616e-09
1.03167e-09
2.20827e-05
2.91317e-09
1.18366e-09
1.90203e-05
1.14509e-09
1.23433e-09
1.51425e-05
2.22617e-10
1.0821e-09
1.024e-05
5.56455e-10
4.00446e-06
1.54882e-10
-2.01193e-10
2.89474e-06
7.68969e-10
-3.3193e-10
7.09135e-06
1.90893e-09
-3.33202e-10
1.02581e-05
3.48394e-09
-2.87168e-10
1.27061e-05
5.32691e-09
-2.25215e-10
1.46142e-05
7.23241e-09
-1.63783e-10
1.60918e-05
8.9844e-09
-1.09212e-10
1.72092e-05
1.03838e-08
-6.21403e-11
1.80131e-05
1.12692e-08
-2.10579e-11
1.85339e-05
1.15338e-08
1.7033e-11
1.879e-05
1.11383e-08
5.57471e-11
1.879e-05
1.01187e-08
9.86308e-11
1.85336e-05
8.58664e-09
1.48725e-10
1.80117e-05
6.72076e-09
2.07712e-10
1.72056e-05
4.74806e-09
2.74736e-10
1.6085e-05
2.91387e-09
3.45376e-10
1.46036e-05
1.43884e-09
4.07867e-10
1.26918e-05
4.70815e-10
4.39079e-10
1.02417e-05
4.11152e-11
4.0125e-10
7.07615e-06
2.18739e-10
2.88658e-06
-1.2924e-11
1.30814e-06
1.27899e-10
2.89446e-06
4.66511e-10
4.01364e-06
9.8484e-10
4.85701e-06
1.62153e-09
5.50738e-06
2.29589e-09
6.00839e-06
2.92264e-09
6.38626e-06
3.42391e-09
6.65766e-06
3.7372e-09
6.83329e-06
3.82176e-09
6.91956e-06
3.6636e-09
6.91943e-06
3.27819e-09
6.83279e-06
2.71072e-09
6.65649e-06
2.03268e-09
6.38403e-06
1.33429e-09
6.0047e-06
7.12364e-10
5.50196e-06
2.51339e-10
4.85e-06
-9.145e-13
4.00564e-06
-5.8152e-11
2.88688e-06
1.30367e-06
-3.87093e-11
3.33973e-10
1.30785e-06
1.58716e-10
5.58732e-10
2.89374e-06
6.72801e-10
5.68522e-10
4.01259e-06
1.48239e-09
4.95572e-10
4.85573e-06
2.4919e-09
3.93753e-10
5.50599e-06
3.57094e-09
2.90379e-10
6.00704e-06
4.58024e-09
1.96309e-10
6.38508e-06
5.39127e-09
1.13178e-10
6.65674e-06
5.90004e-09
3.8656e-11
6.83275e-06
6.03805e-09
-3.19543e-11
6.91945e-06
5.78085e-09
-1.0431e-10
6.91977e-06
5.15308e-09
-1.83958e-10
6.83359e-06
4.2293e-09
-2.75509e-10
6.65768e-06
3.12861e-09
-3.81255e-10
6.38549e-06
2.00197e-09
-4.99201e-10
6.0063e-06
1.01105e-09
-6.20749e-10
5.50355e-06
2.95671e-10
-7.24936e-10
4.85141e-06
-6.99445e-11
-7.71753e-10
4.00674e-06
-1.20216e-10
-6.94774e-10
2.88758e-06
-3.71519e-10
1.30391e-06
2.1333e-10
7.98895e-10
2.89406e-06
1.14877e-09
1.43822e-09
7.0895e-06
2.93544e-09
1.53781e-09
1.02553e-05
5.44184e-09
1.38844e-09
1.27027e-05
8.40355e-09
1.13545e-09
1.46105e-05
1.1487e-08
8.56601e-10
1.60881e-05
1.43377e-08
5.87473e-10
1.72059e-05
1.66258e-08
3.38713e-10
1.80106e-05
1.80813e-08
1.07425e-10
1.85324e-05
1.85237e-08
-1.16886e-10
1.87897e-05
1.7884e-08
-3.47915e-10
1.87909e-05
1.62186e-08
-5.99135e-10
1.85356e-05
1.37113e-08
-8.8061e-10
1.80148e-05
1.06602e-08
-1.19482e-09
1.72095e-05
7.44555e-09
-1.53099e-09
1.60892e-05
4.47849e-09
-1.85776e-09
1.46078e-05
2.12666e-09
-2.11131e-09
1.26956e-05
6.27535e-10
-2.18044e-09
1.02446e-05
1.14196e-11
-1.89016e-09
7.078e-06
-9.58249e-10
2.8872e-06
5.69506e-10
1.22015e-09
4.01364e-06
2.3899e-09
2.29145e-09