/*--------------------------------*- C++ -*----------------------------------*\
  =========                 |
  \\      /  F ield         | OpenFOAM: The Open Source CFD Toolbox
   \\    /   O peration     | Website:  https://openfoam.org
    \\  /    A nd           | Version:  6
     \\/     M anipulation  |
\*---------------------------------------------------------------------------*/
FoamFile
{
    version     2.0;
    format      ascii;
    class       surfaceScalarField;
    location    "800";
    object      phi;
}
// * * * * * * * * * * * * * * * * * * * * * * * * * * * * * * * * * * * * * //

dimensions      [0 3 -1 0 0 0 0];

internalField   nonuniform List<scalar> 
19500
(
1.54833e-07
1.57331e-07
9.96891e-05
1.57646e-08
1.57478e-07
9.99829e-05
9.47664e-09
1.57545e-07
9.98501e-05
3.55887e-09
1.57564e-07
9.98497e-05
-3.14589e-09
1.57593e-07
9.98504e-05
-9.58282e-09
1.57605e-07
9.98501e-05
-1.46294e-08
1.57597e-07
9.98488e-05
-1.96333e-08
1.57584e-07
9.98487e-05
-1.60351e-07
1.57512e-07
9.99845e-05
1.57367e-07
9.96834e-05
1.54967e-07
1.76381e-08
9.99861e-05
1.5691e-08
1.75947e-08
0.000100281
9.46605e-09
1.76105e-08
0.000100148
3.53705e-09
1.76359e-08
0.000100147
-3.18237e-09
1.76673e-08
0.000100148
-9.63591e-09
1.77018e-08
0.000100148
-1.46994e-08
1.77362e-08
0.000100146
-1.96298e-08
1.77601e-08
0.000100146
-1.6051e-07
1.77842e-08
0.000100282
1.7822e-08
9.99801e-05
1.55043e-07
1.22028e-08
9.98517e-05
1.57068e-08
1.22425e-08
0.000100146
9.49546e-09
1.22789e-08
0.000100013
3.58169e-09
1.23276e-08
0.000100013
-3.13939e-09
1.23904e-08
0.000100013
-9.59888e-09
1.24607e-08
0.000100013
-1.46645e-08
1.25314e-08
0.000100012
-1.96071e-08
1.25913e-08
0.000100012
-1.60556e-07
1.26436e-08
0.000100147
1.26364e-08
9.98457e-05
1.55085e-07
6.94622e-09
9.98515e-05
1.57399e-08
6.99806e-09
0.000100146
9.54652e-09
7.06202e-09
0.000100013
3.64874e-09
7.13876e-09
0.000100013
-3.0661e-09
7.23615e-09
0.000100013
-9.52662e-09
7.34551e-09
0.000100013
-1.46019e-08
7.45627e-09
0.000100012
-1.95708e-08
7.55305e-09
0.000100011
-1.60505e-07
7.634e-09
0.000100147
7.67742e-09
9.98456e-05
1.5516e-07
6.05677e-10
9.98525e-05
1.57876e-08
6.66208e-10
0.000100147
9.62272e-09
7.41379e-10
0.000100014
3.7473e-09
8.38647e-10
0.000100014
-2.9556e-09
9.63126e-10
0.000100014
-9.41427e-09
1.10504e-09
0.000100014
-1.45024e-08
1.25135e-09
0.000100013
-1.95065e-08
1.38354e-09
0.000100013
-1.60401e-07
1.50268e-09
0.000100148
1.60378e-09
9.98468e-05
1.55243e-07
-5.80142e-09
9.98525e-05
1.58482e-08
-5.73929e-09
0.000100147
9.71927e-09
-5.66149e-09
0.000100014
3.87099e-09
-5.5549e-09
0.000100014
-2.81494e-09
-5.41774e-09
0.000100014
-9.26864e-09
-5.25969e-09
0.000100014
-1.43714e-08
-5.09466e-09
0.000100013
-1.94184e-08
-4.9423e-09
0.000100013
-1.60219e-07
-4.80014e-09
0.000100148
-4.65221e-09
9.98471e-05
1.55323e-07
-1.12607e-08
9.98515e-05
1.59149e-08
-1.12094e-08
0.000100146
9.82522e-09
-1.11301e-08
0.000100013
4.00561e-09
-1.10291e-08
0.000100013
-2.66027e-09
-1.09004e-08
0.000100014
-9.1064e-09
-1.07531e-08
0.000100013
-1.4224e-08
-1.05997e-08
0.000100012
-1.93168e-08
-1.04581e-08
0.000100012
-1.59982e-07
-1.03287e-08
0.000100147
-1.01572e-08
9.98466e-05
1.55409e-07
-1.70783e-08
9.98517e-05
1.59754e-08
-1.69825e-08
0.000100147
9.92417e-09
-1.6924e-08
0.000100013
4.13043e-09
-1.6854e-08
0.000100013
-2.516e-09
-1.67631e-08
0.000100014
-8.95377e-09
-1.66593e-08
0.000100014
-1.40853e-08
-1.6552e-08
0.000100012
-1.92172e-08
-1.64508e-08
0.000100012
-1.59747e-07
-1.63456e-08
0.000100148
-1.62933e-08
9.98475e-05
1.55433e-07
-1.56317e-07
9.99851e-05
1.60342e-08
-1.56345e-07
0.00010028
1.00143e-08
-1.56306e-07
0.000100147
4.23868e-09
-1.56184e-07
0.000100146
-2.38543e-09
-1.56034e-07
0.000100147
-8.81298e-09
-1.55844e-07
0.000100147
-1.39607e-08
-1.55628e-07
0.000100146
-1.91134e-08
-1.55425e-07
0.000100145
-1.59507e-07
-1.55206e-07
0.00010028
-1.54869e-07
9.99801e-05
1.55418e-07
9.96894e-05
1.6157e-08
9.99841e-05
1.01095e-08
9.98509e-05
4.36949e-09
9.98507e-05
-2.22673e-09
9.98517e-05
-8.63332e-09
9.98517e-05
-1.3772e-08
9.98506e-05
-1.90433e-08
9.98509e-05
-1.5915e-07
9.99859e-05
9.96868e-05
2.24552e-07
2.24758e-07
9.92449e-05
7.34536e-08
2.24981e-07
9.99143e-05
4.74595e-08
2.2462e-07
9.96568e-05
2.36621e-08
2.24412e-07
9.96544e-05
5.03635e-09
2.24044e-07
9.96502e-05
-1.4077e-08
2.23541e-07
9.96508e-05
-3.92397e-08
2.22921e-07
9.9656e-05
-6.6855e-08
2.22258e-07
9.96591e-05
-2.2264e-07
2.21942e-07
9.99234e-05
2.21327e-07
9.92425e-05
2.2485e-07
7.06766e-08
9.99206e-05
7.34444e-08
7.06278e-08
0.000100592
4.73456e-08
7.03071e-08
0.000100334
2.34189e-08
6.98448e-08
0.000100331
4.6892e-09
6.92591e-08
0.000100327
-1.45182e-08
6.85577e-08
0.000100327
-3.97299e-08
6.77935e-08
0.000100332
-6.73094e-08
6.7082e-08
0.000100334
-2.23181e-07
6.65161e-08
0.000100598
6.6106e-08
9.99156e-05
2.24554e-07
4.35719e-08
9.96597e-05
7.31379e-08
4.34747e-08
0.00010033
4.69335e-08
4.31297e-08
0.000100072
2.28622e-08
4.25821e-08
0.00010007
4.00231e-09
4.18744e-08
0.000100065
-1.52851e-08
4.10343e-08
0.000100065
-4.04694e-08
4.01345e-08
0.00010007
-6.78741e-08
3.92854e-08
0.000100072
-2.23425e-07
3.858e-08
0.000100336
3.82627e-08
9.96536e-05
2.24497e-07
1.87955e-08
9.96572e-05
7.27631e-08
1.86749e-08
0.000100328
4.63882e-08
1.83129e-08
0.00010007
2.21536e-08
1.77552e-08
0.000100067
3.1602e-09
1.70293e-08
0.000100063
-1.61875e-08
1.61743e-08
0.000100063
-4.13189e-08
1.52702e-08
0.000100067
-6.85508e-08
1.44207e-08
0.000100069
-2.23902e-07
1.37323e-08
0.000100333
1.36363e-08
9.96498e-05
2.24417e-07
-3.55119e-10
9.96527e-05
7.23963e-08
-4.43507e-10
0.000100324
4.58366e-08
-7.87866e-10
0.000100065
2.143e-08
-1.29515e-09
0.000100063
2.30578e-09
-1.95334e-09
0.000100058
-1.70935e-08
-2.71909e-09
0.000100058
-4.21672e-08
-3.51356e-09
0.000100062
-6.92349e-08
-4.25229e-09
0.000100064
-2.24178e-07
-4.82261e-09
0.000100327
-4.69197e-09
9.96444e-05
2.24352e-07
-1.93812e-08
9.96526e-05
7.20629e-08
-1.94289e-08
0.000100324
4.53351e-08
-1.97249e-08
0.000100065
2.07737e-08
-2.01375e-08
0.000100063
1.53982e-09
-2.06725e-08
0.000100058
-1.7891e-08
-2.12872e-08
0.000100058
-4.29025e-08
-2.19128e-08
0.000100062
-6.98168e-08
-2.24904e-08
0.000100063
-2.24221e-07
-2.29096e-08
0.000100326
-2.25793e-08
9.96443e-05
2.24307e-07
-4.37931e-08
9.9657e-05
7.17929e-08
-4.38346e-08
0.000100329
4.49276e-08
-4.40526e-08
0.00010007
2.02403e-08
-4.43409e-08
0.000100067
9.24905e-10
-4.47267e-08
0.000100062
-1.85193e-08
-4.51715e-08
0.000100062
-4.34739e-08
-4.56235e-08
0.000100066
-7.02626e-08
-4.605e-08
0.000100068
-2.24041e-07
-4.63156e-08
0.00010033
-4.58948e-08
9.96494e-05
2.24254e-07
-7.03316e-08
9.96594e-05
7.1618e-08
-7.03601e-08
0.000100331
4.46404e-08
-7.04499e-08
0.000100072
1.98513e-08
-7.06105e-08
0.00010007
4.74286e-10
-7.08494e-08
0.000100065
-1.89804e-08
-7.11309e-08
0.000100064
-4.39006e-08
-7.14241e-08
0.000100068
-7.05796e-08
-7.16929e-08
0.00010007
-2.2374e-07
-7.19191e-08
0.000100332
-7.15148e-08
9.96527e-05
2.24481e-07
-2.21469e-07
9.9917e-05
7.15246e-08
-2.2148e-07
0.00010059
4.44362e-08
-2.21208e-07
0.00010033
1.95852e-08
-2.21159e-07
0.000100327
1.77246e-10
-2.21035e-07
0.000100322
-1.92735e-08
-2.2086e-07
0.000100321
-4.41384e-08
-2.20616e-07
0.000100325
-7.08211e-08
-2.20338e-07
0.000100326
-2.23716e-07
-2.20333e-07
0.000100587
-2.19498e-07
9.99077e-05
2.24409e-07
9.9247e-05
7.15228e-08
9.9919e-05
4.44927e-08
9.96603e-05
1.97112e-08
9.96579e-05
3.45514e-10
9.96535e-05
-1.90487e-08
9.96537e-05
-4.38821e-08
9.96582e-05
-7.055e-08
9.96606e-05
-2.2297e-07
9.99213e-05
9.92462e-05
2.51862e-07
2.54824e-07
9.87436e-05
9.46842e-08
2.55355e-07
9.98217e-05
6.39367e-08
2.54487e-07
9.94387e-05
3.21094e-08
2.54373e-07
9.94374e-05
5.26361e-09
2.53895e-07
9.94287e-05
-2.21038e-08
2.53214e-07
9.94304e-05
-5.53019e-08
2.52363e-07
9.94422e-05
-8.78352e-08
2.51204e-07
9.94458e-05
-2.55028e-07
2.51022e-07
9.98446e-05
2.49779e-07
9.87414e-05
2.52479e-07
9.26665e-08
9.98359e-05
9.50009e-08
9.29587e-08
0.000100917
6.39295e-08
9.24741e-08
0.000100532
3.19011e-08
9.18951e-08
0.000100532
4.83639e-09
9.11662e-08
0.000100523
-2.27409e-08
9.02385e-08
0.000100523
-5.61405e-08
8.91767e-08
0.000100534
-8.88657e-08
8.81448e-08
0.000100536
-2.56173e-07
8.73157e-08
0.000100935
8.64168e-08
9.98263e-05
2.51708e-07
6.09941e-08
9.94453e-05
9.45364e-08
6.10737e-08
0.000100525
6.34164e-08
6.06764e-08
0.000100141
3.11714e-08
6.00461e-08
0.00010014
3.90241e-09
5.92183e-08
0.00010013
-2.38177e-08
5.81825e-08
0.000100131
-5.72527e-08
5.70168e-08
0.000100141
-8.96896e-08
5.58717e-08
0.000100143
-2.56192e-07
5.48224e-08
0.000100541
5.43556e-08
9.94331e-05
2.5184e-07
2.82785e-08
9.94438e-05
9.41008e-08
2.8355e-08
0.000100524
6.27859e-08
2.79583e-08
0.00010014
3.03309e-08
2.73766e-08
0.000100138
2.86321e-09
2.66005e-08
0.000100129
-2.49816e-08
2.56463e-08
0.000100129
-5.84042e-08
2.45997e-08
0.000100139
-9.06538e-08
2.35789e-08
0.000100139
-2.56967e-07
2.2689e-08
0.000100537
2.27272e-08
9.94281e-05
2.51842e-07
8.7628e-10
9.9434e-05
9.37413e-08
9.87698e-10
0.000100515
6.22206e-08
6.49941e-10
0.00010013
2.95579e-08
1.88888e-10
0.000100128
1.90972e-09
-4.26533e-10
0.000100119
-2.60353e-08
-1.16158e-09
0.000100118
-5.94383e-08
-1.93583e-09
0.000100128
-9.1515e-08
-2.66226e-09
0.000100128
-2.57159e-07
-3.27083e-09
0.000100524
-2.65601e-09
9.94164e-05
2.51916e-07
-2.64928e-08
9.94338e-05
9.34499e-08
-2.63566e-08
0.000100516
6.17681e-08
-2.66074e-08
0.00010013
2.89473e-08
-2.69114e-08
0.000100128
1.17674e-09
-2.73222e-08
0.000100118
-2.6815e-08
-2.77923e-08
0.000100118
-6.01654e-08
-2.82536e-08
0.000100127
-9.20855e-08
-2.86611e-08
0.000100127
-2.56849e-07
-2.89623e-08
0.000100522
-2.79091e-08
9.94165e-05
2.52054e-07
-5.91237e-08
9.94432e-05
9.32519e-08
-5.90185e-08
0.000100526
6.14645e-08
-5.91806e-08
0.00010014
2.85443e-08
-5.93234e-08
0.000100138
7.12219e-10
-5.95442e-08
0.000100128
-2.72772e-08
-5.97846e-08
0.000100128
-6.05575e-08
-5.99968e-08
0.000100137
-9.23414e-08
-6.0165e-08
0.000100136
-2.56146e-07
-6.02469e-08
0.000100531
-5.90012e-08
9.9428e-05
2.52033e-07
-9.06632e-08
9.94444e-05
9.32005e-08
-9.08051e-08
0.000100528
6.13285e-08
-9.07365e-08
0.000100141
2.83376e-08
-9.07442e-08
0.00010014
4.72583e-10
-9.08245e-08
0.00010013
-2.75051e-08
-9.09049e-08
0.000100129
-6.07238e-08
-9.0947e-08
0.000100138
-9.24515e-08
-9.10122e-08
0.000100138
-2.55086e-07
-9.11034e-08
0.000100531
-8.982e-08
9.94321e-05
2.5285e-07
-2.49495e-07
9.98284e-05
9.32664e-08
-2.49554e-07
0.000100914
6.1213e-08
-2.48643e-07
0.000100526
2.8199e-08
-2.4847e-07
0.000100524
3.27763e-10
-2.47993e-07
0.000100513
-2.76156e-08
-2.47404e-07
0.000100511
-6.07806e-08
-2.46734e-07
0.000100519
-9.25606e-08
-2.45831e-07
0.000100518
-2.55083e-07
-2.45941e-07
0.000100909
-2.44101e-07
9.98106e-05
2.52719e-07
9.87485e-05
9.31823e-08
9.98328e-05
6.14877e-08
9.94471e-05
2.86701e-08
9.9446e-05
9.7057e-10
9.94369e-05
-2.68354e-08
9.94377e-05
-5.98909e-08
9.94481e-05
-9.15395e-08
9.94499e-05
-2.53367e-07
9.98409e-05
9.87506e-05
2.66894e-07
2.73615e-07
9.8209e-05
1.04343e-07
2.74523e-07
9.97159e-05
6.91844e-08
2.7308e-07
9.92071e-05
3.4326e-08
2.73046e-07
9.92057e-05
3.6295e-09
2.72276e-07
9.91936e-05
-2.72967e-08
2.71216e-07
9.91964e-05
-6.30068e-08
2.69821e-07
9.92142e-05
-9.94253e-08
2.67725e-07
9.92203e-05
-2.76712e-07
2.6726e-07
9.97602e-05
2.64359e-07
9.82031e-05
2.67904e-07
1.04683e-07
9.9743e-05
1.04978e-07
1.05357e-07
0.000101256
6.92123e-08
1.04657e-07
0.000100743
3.40387e-08
1.03946e-07
0.000100742
2.87352e-09
1.03017e-07
0.00010073
-2.85926e-08
1.01737e-07
0.000100731
-6.46518e-08
1.00135e-07
0.000100746
-1.01595e-07
9.84737e-08
0.000100748
-2.79452e-07
9.71221e-08
0.000101289
9.50752e-08
9.97195e-05
2.66602e-07
6.92282e-08
9.92203e-05
1.04305e-07
6.95197e-08
0.00010073
6.85512e-08
6.90549e-08
0.000100219
3.30443e-08
6.83438e-08
0.000100217
1.56274e-09
6.73554e-08
0.000100204
-3.01889e-08
6.60137e-08
0.000100205
-6.64231e-08
6.43666e-08
0.00010022
-1.0295e-07
6.26273e-08
0.000100221
-2.79776e-07
6.09611e-08
0.00010076
5.98504e-08
9.91922e-05
2.66974e-07
3.38273e-08
9.92184e-05
1.03826e-07
3.41761e-08
0.000100729
6.78372e-08
3.37456e-08
0.000100217
3.2032e-08
3.31694e-08
0.000100216
2.1968e-10
3.23447e-08
0.000100202
-3.18219e-08
3.12423e-08
0.000100202
-6.81796e-08
2.99224e-08
0.000100216
-1.04507e-07
2.85562e-08
0.000100216
-2.81334e-07
2.72719e-08
0.000100753
2.7236e-08
9.91834e-05
2.67017e-07
2.52377e-09
9.92044e-05
1.03513e-07
2.88167e-09
0.000100716
6.72891e-08
2.59415e-09
0.000100204
3.12112e-08
2.24155e-09
0.000100202
-8.83548e-10
1.72045e-09
0.000100188
-3.31538e-08
1.04485e-09
0.000100187
-6.95912e-08
2.86653e-10
0.0001002
-1.05771e-07
-4.52484e-10
0.000100199
-2.81522e-07
-1.1278e-09
0.000100735
1.19504e-10
9.91661e-05
2.6726e-07
-2.88993e-08
9.9204e-05
1.03318e-07
-2.85704e-08
0.000100717
6.69457e-08
-2.86968e-08
0.000100204
3.06989e-08
-2.88077e-08
0.000100202
-1.55394e-09
-2.90062e-08
0.000100188
-3.39207e-08
-2.92401e-08
0.000100187
-7.03487e-08
-2.94382e-08
0.000100199
-1.0635e-07
-2.95677e-08
0.000100198
-2.80713e-07
-2.96766e-08
0.000100731
-2.7422e-08
9.91675e-05
2.67676e-07
-6.46678e-08
9.92173e-05
1.03253e-07
-6.43865e-08
0.000100733
6.68249e-08
-6.44139e-08
0.000100218
3.0517e-08
-6.43251e-08
0.000100216
-1.77276e-09
-6.42822e-08
0.000100202
-3.41175e-08
-6.4203e-08
0.000100201
-7.04585e-08
-6.40302e-08
0.000100214
-1.06296e-07
-6.38133e-08
0.000100213
-2.79126e-07
-6.35305e-08
0.000100743
-6.09857e-08
9.91866e-05
2.67687e-07
-1.00649e-07
9.92186e-05
1.03394e-07
-1.00882e-07
0.000100734
6.69303e-08
-1.00551e-07
0.00010022
3.0604e-08
-1.00329e-07
0.000100218
-1.67592e-09
-1.00162e-07
0.000100204
-3.39636e-08
-9.99329e-08
0.000100203
-7.02363e-08
-9.96237e-08
0.000100216
-1.05964e-07
-9.93006e-08
0.000100215
-2.76814e-07
-9.92252e-08
0.000100743
-9.65994e-08
9.91949e-05
2.6918e-07
-2.66137e-07
9.97305e-05
1.03722e-07
-2.66299e-07
0.00010125
6.69945e-08
-2.64666e-07
0.000100732
3.0701e-08
-2.64334e-07
0.00010073
-1.57289e-09
-2.63336e-07
0.000100714
-3.38329e-08
-2.62213e-07
0.000100712
-6.99732e-08
-2.60975e-07
0.000100722
-1.05903e-07
-2.59242e-07
0.000100719
-2.765e-07
-2.593e-07
0.000101246
-2.55971e-07
9.96975e-05
2.68952e-07
9.82172e-05
1.0359e-07
9.97358e-05
6.75778e-08
9.92224e-05
3.16215e-08
9.92215e-05
-2.83172e-10
9.92094e-05
-3.22045e-08
9.92113e-05
-6.82388e-08
9.9227e-05
-1.03807e-07
9.92301e-05
-2.73375e-07
9.9755e-05
9.82236e-05
2.77306e-07
2.88192e-07
9.76496e-05
1.11792e-07
2.89476e-07
9.95984e-05
7.22233e-08
2.87415e-07
9.89659e-05
3.53491e-08
2.8736e-07
9.8962e-05
2.42814e-09
2.86013e-07
9.89474e-05
-3.04322e-08
2.84149e-07
9.89519e-05
-6.72469e-08
2.81686e-07
9.8976e-05
-1.07413e-07
2.77681e-07
9.89889e-05
-2.94306e-07
2.75922e-07
9.96757e-05
2.70032e-07
9.7642e-05
2.78726e-07
1.14746e-07
9.9644e-05
1.12669e-07
1.15775e-07
0.000101602
7.21467e-08
1.14799e-07
0.000100963
3.47517e-08
1.13848e-07
0.00010096
8.892e-10
1.12512e-07
0.000100944
-3.30353e-08
1.10529e-07
0.000100945
-7.06799e-08
1.07872e-07
0.000100964
-1.11778e-07
1.04872e-07
0.000100968
-2.99878e-07
1.02149e-07
0.000101656
9.79693e-08
9.95947e-05
2.7688e-07
7.54668e-08
9.89891e-05
1.11727e-07
7.59638e-08
0.000100941
7.12167e-08
7.53696e-08
0.000100305
3.32739e-08
7.44762e-08
0.000100302
-1.14689e-09
7.31347e-08
0.000100285
-3.56484e-08
7.11489e-08
0.000100286
-7.3803e-08
6.85117e-08
0.000100304
-1.14506e-07
6.54993e-08
0.000100308
-3.01499e-07
6.24015e-08
0.000100992
5.98343e-08
9.89324e-05
2.77499e-07
3.8232e-08
9.89844e-05
1.1116e-07
3.88943e-08
0.000100939
7.03161e-08
3.83769e-08
0.000100302
3.18966e-08
3.77383e-08
0.000100298
-3.12942e-09
3.67327e-08
0.00010028
-3.826e-08
3.52431e-08
0.00010028
-7.68459e-08
3.33045e-08
0.000100296
-1.1748e-07
3.11008e-08
0.000100298
-3.04695e-07
2.89597e-08
0.00010098
2.8533e-08
9.8914e-05
2.77534e-07
4.25531e-09
9.89671e-05
1.10859e-07
4.89346e-09
0.000100924
6.97149e-08
4.64183e-09
0.000100285
3.08936e-08
4.38231e-09
0.000100281
-4.62172e-09
3.9104e-09
0.000100263
-4.02228e-08
3.20769e-09
0.000100262
-7.91282e-08
2.34168e-09
0.000100277
-1.1961e-07
1.46985e-09
0.000100276
-3.05162e-07
6.07429e-10
0.000100955
2.98107e-09
9.8891e-05
2.77967e-07
-3.00071e-08
9.89666e-05
1.1076e-07
-2.94633e-08
0.000100925
6.9465e-08
-2.9442e-08
0.000100286
3.04382e-08
-2.93286e-08
0.000100282
-5.31254e-09
-2.92826e-08
0.000100263
-4.10997e-08
-2.92358e-08
0.000100262
-8.00402e-08
-2.90995e-08
0.000100276
-1.20291e-07
-2.87997e-08
0.000100275
-3.03446e-07
-2.85266e-08
0.00010095
-2.40827e-08
9.88958e-05
2.78746e-07
-6.80993e-08
9.89828e-05
1.10859e-07
-6.75861e-08
0.000100945
6.95592e-08
-6.74513e-08
0.000100304
3.0517e-08
-6.70803e-08
0.0001003
-5.23461e-09
-6.67023e-08
0.000100282
-4.09537e-08
-6.6197e-08
0.00010028
-7.9728e-08
-6.54962e-08
0.000100295
-1.1969e-07
-6.45987e-08
0.000100295
-3.00188e-07
-6.37072e-08
0.000100965
-5.88232e-08
9.89257e-05
2.78807e-07
-1.08586e-07
9.89863e-05
1.11227e-07
-1.08868e-07
0.000100949
6.9963e-08
-1.08254e-07
0.000100308
3.09824e-08
-1.07753e-07
0.000100304
-4.68124e-09
-1.07259e-07
0.000100286
-4.02596e-08
-1.06618e-07
0.000100285
-7.8826e-08
-1.05779e-07
0.000100301
-1.18614e-07
-1.04886e-07
0.000100301
-2.95673e-07
-1.0441e-07
0.000100967
-9.96574e-08
9.89447e-05
2.80979e-07
-2.78537e-07
9.96255e-05
1.11842e-07
-2.78771e-07
0.000101595
7.02489e-08
-2.76385e-07
0.000100948
3.13812e-08
-2.75823e-07
0.000100943
-4.25574e-09
-2.74117e-07
0.000100923
-3.97549e-08
-2.72238e-07
0.000100919
-7.81212e-08
-2.70265e-07
0.000100931
-1.18141e-07
-2.67334e-07
0.000100928
-2.94393e-07
-2.67085e-07
0.000101591
-2.61124e-07
9.95696e-05
2.80687e-07
9.76621e-05
1.11749e-07
9.96301e-05
7.1272e-08
9.89907e-05
3.2923e-08
9.89883e-05
-2.02735e-09
9.89745e-05
-3.69454e-08
9.89782e-05
-7.51243e-08
9.89991e-05
-1.14586e-07
9.90065e-05
-2.88794e-07
9.96671e-05
9.76763e-05
2.82518e-07
2.981e-07
9.70761e-05
1.1682e-07
2.99733e-07
9.94717e-05
7.44014e-08
2.96987e-07
9.87192e-05
3.63954e-08
2.96764e-07
9.87117e-05
2.12535e-09
2.94509e-07
9.86959e-05
-3.12589e-08
2.91299e-07
9.87028e-05
-6.76482e-08
2.86725e-07
9.87337e-05
-1.09749e-07
2.7942e-07
9.87583e-05
-3.0406e-07
2.74453e-07
9.96009e-05
2.616e-07
9.70786e-05
2.8434e-07
1.2271e-07
9.95422e-05
1.17865e-07
1.24079e-07
0.000101952
7.40595e-08
1.22774e-07
0.000101189
3.51639e-08
1.21471e-07
0.000101183
-8.06317e-10
1.19462e-07
0.000101164
-3.63425e-08
1.16296e-07
0.000101165
-7.43666e-08
1.1174e-07
0.000101186
-1.18344e-07
1.06062e-07
0.000101192
-3.16306e-07
1.0041e-07
0.000102033
9.13204e-08
9.94522e-05
2.81917e-07
8.10638e-08
9.8756e-05
1.166e-07
8.17837e-08
0.000101156
7.27328e-08
8.10164e-08
0.000100399
3.29381e-08
7.98454e-08
0.000100391
-4.04583e-09
7.79144e-08
0.000100372
-4.08069e-08
7.4833e-08
0.000100372
-8.01544e-08
7.03736e-08
0.000100393
-1.23977e-07
6.47598e-08
0.0001004
-3.21983e-07
5.87014e-08
0.000101238
5.2347e-08
9.86536e-05
2.82781e-07
4.25762e-08
9.87472e-05
1.15914e-07
4.36133e-08
0.000101152
7.15453e-08
4.29924e-08
0.000100392
3.09591e-08
4.22527e-08
0.000100384
-7.12559e-09
4.09359e-08
0.000100364
-4.52269e-08
3.87877e-08
0.000100362
-8.5812e-08
3.56579e-08
0.000100379
-1.29864e-07
3.18433e-08
0.000100382
-3.29139e-07
2.77519e-08
0.000101217
2.60986e-08
9.86163e-05
2.8281e-07
6.21936e-09
9.87277e-05
1.15614e-07
7.21564e-09
0.000101134
7.08464e-08
7.02337e-09
0.000100374
2.96428e-08
6.89659e-09
0.000100365
-9.28618e-09
6.48914e-09
0.000100344
-4.83912e-08
5.7332e-09
0.000100342
-8.977e-08
4.67014e-09
0.000100357
-1.33927e-07
3.53515e-09
0.000100356
-3.30695e-07
2.41485e-09
0.000101185
6.90566e-09
9.85852e-05
2.83491e-07
-3.06107e-08
9.87268e-05
1.15653e-07
-2.97707e-08
0.000101137
7.07315e-08
-2.95465e-08
0.000100375
2.92684e-08
-2.91072e-08
0.000100367
-1.00161e-08
-2.8683e-08
0.000100345
-4.94629e-08
-2.81784e-08
0.000100343
-9.10089e-08
-2.74326e-08
0.000100357
-1.34787e-07
-2.62634e-08
0.000100356
-3.27163e-07
-2.49529e-08
0.000101177
-1.59501e-08
9.85971e-05
2.84739e-07
-7.05062e-08
9.87447e-05
1.15997e-07
-6.96708e-08
0.00010116
7.1149e-08
-6.9311e-08
0.000100396
2.97554e-08
-6.85365e-08
0.000100388
-9.44634e-09
-6.76446e-08
0.000100367
-4.86873e-08
-6.64606e-08
0.000100365
-8.9839e-08
-6.48294e-08
0.000100381
-1.32932e-07
-6.26927e-08
0.000100381
-3.20015e-07
-6.04179e-08
0.000101195
-5.0629e-08
9.8646e-05
2.84941e-07
-1.14092e-07
9.87515e-05
1.16675e-07
-1.14327e-07
0.000101169
7.19849e-08
-1.13373e-07
0.000100404
3.07979e-08
-1.12488e-07
0.000100396
-8.1562e-09
-1.11498e-07
0.000100376
-4.70261e-08
-1.1022e-07
0.000100375
-8.76803e-08
-1.08584e-07
0.000100392
-1.30254e-07
-1.06726e-07
0.000100395
-3.10877e-07
-1.05221e-07
0.0001012
-9.667e-08
9.86855e-05
2.87847e-07
-2.85982e-07
9.95159e-05
1.17623e-07
-2.86182e-07
0.000101944
7.25768e-08
-2.82948e-07
0.00010117
3.16312e-08
-2.81994e-07
0.00010116
-7.22298e-09
-2.79324e-07
0.000101136
-4.59234e-08
-2.76418e-07
0.00010113
-8.61933e-08
-2.73337e-07
0.000101143
-1.2875e-07
-2.68732e-07
0.000101139
-3.07123e-07
-2.67596e-07
0.00010194
-2.57943e-07
9.94293e-05
2.87615e-07
9.70929e-05
1.1773e-07
9.95183e-05
7.42563e-08
9.87558e-05
3.40892e-08
9.8751e-05
-3.66755e-09
9.87375e-05
-4.13959e-08
9.8744e-05
-8.13116e-08
9.87702e-05
-1.23025e-07
9.87844e-05
-2.98111e-07
9.95797e-05
9.71238e-05
2.82795e-07
3.03732e-07
9.64967e-05
1.18971e-07
3.05689e-07
9.93374e-05
7.50371e-08
3.02182e-07
9.8469e-05
3.69928e-08
3.01573e-07
9.84569e-05
3.04119e-09
2.97966e-07
9.84413e-05
-2.87611e-08
2.92511e-07
9.84517e-05
-6.17621e-08
2.84368e-07
9.84918e-05
-1.02378e-07
2.70956e-07
9.8536e-05
-3.01617e-07
2.59234e-07
9.95474e-05
2.32832e-07
9.65502e-05
2.8502e-07
1.28219e-07
9.944e-05
1.20091e-07
1.29922e-07
0.0001023
7.42045e-08
1.28213e-07
0.000101417
3.46275e-08
1.26411e-07
0.000101406
-2.33662e-09
1.23386e-07
0.000101385
-3.80402e-08
1.18351e-07
0.000101384
-7.48717e-08
1.10561e-07
0.000101406
-1.19394e-07
1.00016e-07
0.000101416
-3.26979e-07
8.83212e-08
0.000102419
6.80587e-08
9.92959e-05
2.8199e-07
8.5466e-08
9.8524e-05
1.18423e-07
8.64452e-08
0.000101371
7.23071e-08
8.54524e-08
0.000100496
3.13063e-08
8.38971e-08
0.000100483
-7.47053e-09
8.11075e-08
0.000100462
-4.56577e-08
7.63066e-08
0.000100462
-8.5383e-08
6.87667e-08
0.000100483
-1.30984e-07
5.84512e-08
0.000100496
-3.42693e-07
4.60502e-08
0.0001015
3.00049e-08
9.83556e-05
2.83085e-07
4.65316e-08
9.85103e-05
1.17585e-07
4.80214e-08
0.000101363
7.07173e-08
4.72975e-08
0.000100485
2.84473e-08
4.64473e-08
0.000100472
-1.22812e-08
4.47224e-08
0.000100449
-5.31305e-08
4.15733e-08
0.000100447
-9.56459e-08
3.65847e-08
0.000100463
-1.43067e-07
2.97515e-08
0.000100466
-3.59562e-07
2.18252e-08
0.000101467
1.64337e-08
9.82775e-05
2.83134e-07
8.51734e-09
9.84896e-05
1.17294e-07
9.97985e-09
0.000101346
6.99033e-08
9.90533e-09
0.000100466
2.67167e-08
1.00189e-08
0.000100453
-1.54535e-08
9.79463e-09
0.00010043
-5.81713e-08
9.08163e-09
0.000100425
-1.02684e-07
7.88108e-09
0.000100438
-1.50979e-07
6.62626e-09
0.000100436
-3.6487e-07
5.41184e-09
0.000101424
1.49869e-08
9.82292e-05
2.84151e-07
-3.01931e-08
9.84883e-05
1.17553e-07
-2.89359e-08
0.00010135
7.00363e-08
-2.8408e-08
0.000100468
2.6558e-08
-2.74513e-08
0.000100455
-1.61036e-08
-2.63697e-08
0.000100432
-5.93716e-08
-2.49884e-08
0.000100428
-1.04128e-07
-2.30057e-08
0.000100441
-1.51754e-07
-1.98773e-08
0.000100438
-3.5698e-07
-1.60055e-08
0.000101413
3.49818e-09
9.82591e-05
2.86001e-07
-7.11882e-08
9.85065e-05
1.18277e-07
-6.99104e-08
0.000101376
7.09807e-08
-6.92117e-08
0.000100491
2.77598e-08
-6.78286e-08
0.000100479
-1.45862e-08
-6.61047e-08
0.000100457
-5.73036e-08
-6.37612e-08
0.000100454
-1.01062e-07
-6.0489e-08
0.000100469
-1.47e-07
-5.5945e-08
0.000100471
-3.4064e-07
-5.05912e-08
0.000101432
-3.05275e-08
9.83463e-05
2.86476e-07
-1.16793e-07
9.85171e-05
1.19397e-07
-1.16864e-07
0.00010139
7.2473e-08
-1.15468e-07
0.000100504
2.97351e-08
-1.14031e-07
0.000100492
-1.20282e-08
-1.12289e-07
0.000100471
-5.39055e-08
-1.10019e-07
0.00010047
-9.65239e-08
-1.07105e-07
0.000100488
-1.40842e-07
-1.03394e-07
0.000100494
-3.22209e-07
-1.00409e-07
0.000101439
-8.49318e-08
9.84245e-05
2.90221e-07
-2.88798e-07
9.94043e-05
1.20789e-07
-2.88926e-07
0.000102292
7.3524e-08
-2.84759e-07
0.000101393
3.12138e-08
-2.83201e-07
0.000101379
-1.02859e-08
-2.79268e-07
0.000101352
-5.17777e-08
-2.74922e-07
0.000101344
-9.34905e-08
-2.70261e-07
0.000101355
-1.37672e-07
-2.63507e-07
0.000101351
-3.13778e-07
-2.61725e-07
0.000102285
-2.46264e-07
9.92849e-05
2.90087e-07
9.65184e-05
1.21227e-07
9.94028e-05
7.61065e-08
9.85209e-05
3.49815e-08
9.85138e-05
-4.83591e-09
9.85029e-05
-4.47995e-08
9.85138e-05
-8.61112e-08
9.8546e-05
-1.2938e-07
9.85691e-05
-2.99593e-07
9.94957e-05
9.65819e-05
2.79636e-07
3.06858e-07
9.59182e-05
1.18877e-07
3.09073e-07
9.91976e-05
7.39583e-08
3.04764e-07
9.82187e-05
3.68056e-08
3.03543e-07
9.82013e-05
5.22711e-09
2.98104e-07
9.81872e-05
-2.11807e-08
2.89392e-07
9.82024e-05
-4.56499e-08
2.75351e-07
9.82545e-05
-7.79045e-08
2.51969e-07
9.83296e-05
-2.70205e-07
2.27031e-07
9.95254e-05
1.71916e-07
9.61178e-05
2.82224e-07
1.32349e-07
9.93403e-05
1.19947e-07
1.34367e-07
0.000102646
7.23749e-08
1.32219e-07
0.000101647
3.26759e-08
1.29801e-07
0.000101631
-3.89952e-09
1.25403e-07
0.000101606
-3.74646e-08
1.17606e-07
0.000101603
-6.98842e-08
1.04613e-07
0.000101622
-1.10979e-07
8.5245e-08
0.000101637
-3.23744e-07
5.97733e-08
0.000102811
1.19427e-08
9.91417e-05
2.78596e-07
8.90435e-08
9.82967e-05
1.17827e-07
9.03429e-08
0.000101584
6.97587e-08
8.91258e-08
0.000100596
2.78803e-08
8.71407e-08
0.000100578
-1.18339e-08
8.32218e-08
0.000100555
-5.01485e-08
7.59183e-08
0.000100554
-8.89268e-08
6.33854e-08
0.000100576
-1.35619e-07
4.39544e-08
0.000100595
-3.65732e-07
1.68997e-08
0.000101785
-2.55578e-08
9.80366e-05
2.79926e-07
5.01693e-08
9.82771e-05
1.16846e-07
5.22254e-08
0.000101573
6.77021e-08
5.14724e-08
0.000100581
2.3842e-08
5.06008e-08
0.000100562
-1.92019e-08
4.84433e-08
0.000100538
-6.25802e-08
4.39906e-08
0.000100533
-1.08082e-07
3.59672e-08
0.000100547
-1.61276e-07
2.36866e-08
0.000100551
-4.09587e-07
6.9432e-09
0.000101737
-8.11988e-09
9.78588e-05
2.80077e-07
1.12767e-08
9.82561e-05
1.16644e-07
1.33633e-08
0.000101556
6.68496e-08
1.35509e-08
0.000100562
2.16627e-08
1.41444e-08
0.000100544
-2.37018e-08
1.43974e-08
0.000100519
-7.06646e-08
1.40402e-08
0.000100512
-1.2062e-07
1.29879e-08
0.000100521
-1.77646e-07
1.19219e-08
0.000100515
-4.25429e-07
1.2054e-08
0.000101679
3.45783e-08
9.7769e-05
2.81569e-07
-2.85902e-08
9.8254e-05
1.17294e-07
-2.67385e-08
0.000101562
6.74795e-08
-2.57218e-08
0.000100565
2.20426e-08
-2.39146e-08
0.000100547
-2.39169e-08
-2.16706e-08
0.000100523
-7.16662e-08
-1.86691e-08
0.000100518
-1.22058e-07
-1.42826e-08
0.000100527
-1.77313e-07
-7.0277e-09
0.000100522
-4.05555e-07
3.97931e-09
0.000101661
4.74793e-08
9.78478e-05
2.84188e-07
-7.03451e-08
9.82713e-05
1.18622e-07
-6.84667e-08
0.000101591
6.93066e-08
-6.72471e-08
0.00010059
2.45139e-08
-6.4929e-08
0.000100573
-2.06261e-08
-6.18658e-08
0.00010055
-6.70563e-08
-5.76008e-08
0.000100548
-1.14945e-07
-5.14462e-08
0.000100562
-1.65341e-07
-4.22765e-08
0.000100565
-3.66298e-07
-3.04769e-08
0.000101678
1.05514e-08
9.80241e-05
2.85139e-07
-1.17496e-07
9.82862e-05
1.20406e-07
-1.17289e-07
0.000101611
7.18143e-08
-1.15328e-07
0.000100608
2.79894e-08
-1.13096e-07
0.000100592
-1.59369e-08
-1.1023e-07
0.000100571
-6.05781e-08
-1.06455e-07
0.000100571
-1.05726e-07
-1.01477e-07
0.000100591
-1.52476e-07
-9.52174e-08
0.000100601
-3.27676e-07
-8.92806e-08
0.000101683
-6.27424e-08
9.81776e-05
2.8973e-07
-2.88799e-07
9.92926e-05
1.22343e-07
-2.88626e-07
0.000102638
7.3526e-08
-2.83396e-07
0.000101617
3.04242e-08
-2.80968e-07
0.000101597
-1.29383e-08
-2.75447e-07
0.000101568
-5.67357e-08
-2.69276e-07
0.000101558
-1.00555e-07
-2.62661e-07
0.000101567
-1.4636e-07
-2.53769e-07
0.000101563
-3.10431e-07
-2.51495e-07
0.000102623
-2.32909e-07
9.91506e-05
2.89961e-07
9.59447e-05
1.23401e-07
9.92856e-05
7.73559e-08
9.82885e-05
3.59964e-08
9.82793e-05
-4.9432e-09
9.82735e-05
-4.66553e-08
9.82912e-05
-9.00627e-08
9.83317e-05
-1.35024e-07
9.83671e-05
-2.93324e-07
9.94087e-05
9.60575e-05
2.74207e-07
3.08746e-07
9.53432e-05
1.17339e-07
3.11213e-07
9.90519e-05
7.16502e-08
3.06125e-07
9.79679e-05
3.59162e-08
3.04083e-07
9.79441e-05
8.75747e-09
2.96317e-07
9.79311e-05
-7.67959e-09
2.8311e-07
9.79509e-05
-1.38135e-08
2.60599e-07
9.80181e-05
-2.03986e-08
2.21475e-07
9.81342e-05
-1.73634e-07
1.75591e-07
9.95264e-05
7.00991e-08
9.58928e-05
2.77178e-07
1.36068e-07
9.92438e-05
1.18245e-07
1.38398e-07
0.000102986
6.90238e-08
1.35808e-07
0.000101876
2.92507e-08
1.32659e-07
0.000101853
-5.89704e-09
1.26498e-07
0.000101824
-3.45799e-08
1.14894e-07
0.000101814
-5.628e-08
9.41715e-08
0.000101827
-8.11528e-08
5.96505e-08
0.000101842
-2.75911e-07
8.54196e-09
0.000103194
-1.08654e-07
9.90611e-05
2.73009e-07
9.24751e-08
9.80753e-05
1.1565e-07
9.41627e-08
0.000101794
6.55352e-08
9.27557e-08
0.000100699
2.25487e-08
9.03178e-08
0.000100674
-1.7731e-08
8.50309e-08
0.000100649
-5.48848e-08
7.43421e-08
0.000100645
-8.95973e-08
5.41524e-08
0.000100665
-1.30492e-07
1.85603e-08
0.000100694
-3.8273e-07
-4.03283e-08
0.000102104
-1.60242e-07
9.77169e-05
2.7459e-07
5.38605e-08
9.8049e-05
1.14552e-07
5.6607e-08
0.000101778
6.29551e-08
5.5949e-08
0.000100678
1.70295e-08
5.52195e-08
0.000100653
-2.86565e-08
5.27598e-08
0.000100627
-7.51276e-08
4.67658e-08
0.000100619
-1.24283e-07
3.44879e-08
0.000100628
-1.85784e-07
1.21217e-08
0.000100632
-5.02445e-07
-2.6119e-08
0.000102052
-8.07292e-08
9.72841e-05
2.74958e-07
1.4553e-08
9.80281e-05
1.14564e-07
1.74449e-08
0.000101763
6.22122e-08
1.81012e-08
0.000100661
1.45088e-08
1.95387e-08
0.000100636
-3.47649e-08
2.08166e-08
0.00010061
-8.75666e-08
2.15487e-08
0.000100601
-1.47035e-07
2.14644e-08
0.000100605
-2.24175e-07
2.1695e-08
0.000100593
-5.57719e-07
2.38578e-08
0.000101972
7.95584e-08
9.70554e-05
2.7709e-07
-2.60593e-08
9.8025e-05
1.1584e-07
-2.34109e-08
0.000101772
6.37248e-08
-2.16617e-08
0.000100665
1.60219e-08
-1.85358e-08
0.000100642
-3.37291e-08
-1.4347e-08
0.000100617
-8.74987e-08
-8.43232e-09