/*--------------------------------*- C++ -*----------------------------------*\
  =========                 |
  \\      /  F ield         | OpenFOAM: The Open Source CFD Toolbox
   \\    /   O peration     | Website:  https://openfoam.org
    \\  /    A nd           | Version:  6
     \\/     M anipulation  |
\*---------------------------------------------------------------------------*/
FoamFile
{
    version     2.0;
    format      ascii;
    class       volScalarField;
    location    "0.12";
    object      T;
}
// * * * * * * * * * * * * * * * * * * * * * * * * * * * * * * * * * * * * * //

dimensions      [0 0 0 1 0 0 0];

internalField   nonuniform List<scalar> 
7000
(
100.992
100.992
100.992
100.992
100.992
100.992
100.991
100.991
100.991
100.991
100.992
100.992
100.992
100.991
100.991
100.991
100.991
100.991
100.991
100.991
100.992
100.992
100.991
100.991
100.991
100.991
100.991
100.991
100.991
100.991
100.992
100.992
100.991
100.991
100.991
100.991
100.991
100.991
100.991
100.991
100.992
100.991
100.991
100.991
100.991
100.991
100.991
100.991
100.991
100.991
100.992
100.991
100.991
100.991
100.991
100.991
100.991
100.991
100.991
100.991
100.992
100.992
100.991
100.991
100.991
100.991
100.991
100.991
100.991
100.991
100.992
100.992
100.991
100.991
100.991
100.991
100.991
100.991
100.991
100.991
100.992
100.992
100.992
100.991
100.991
100.991
100.991
100.991
100.991
100.991
100.992
100.992
100.992
100.992
100.991
100.991
100.991
100.991
100.991
100.991
83.3551
83.3549
83.3547
83.3546
83.3545
83.3544
83.3543
83.3542
83.3542
83.3542
83.3549
83.3547
83.3546
83.3544
83.3543
83.3542
83.3541
83.354
83.354
83.354
83.3548
83.3546
83.3544
83.3543
83.3542
83.3541
83.354
83.3539
83.3539
83.3539
83.3547
83.3545
83.3543
83.3542
83.3541
83.354
83.3539
83.3538
83.3538
83.3539
83.3547
83.3545
83.3543
83.3542
83.3541
83.354
83.3539
83.3538
83.3538
83.3538
83.3546
83.3545
83.3543
83.3542
83.3541
83.354
83.3539
83.3538
83.3538
83.3538
83.3547
83.3545
83.3543
83.3542
83.3541
83.354
83.3539
83.3539
83.3538
83.3539
83.3547
83.3545
83.3544
83.3543
83.3542
83.3541
83.354
83.3539
83.3539
83.354
83.3548
83.3546
83.3545
83.3544
83.3543
83.3542
83.3541
83.354
83.354
83.3541
83.3549
83.3547
83.3546
83.3545
83.3544
83.3543
83.3542
83.3542
83.3542
83.3542
66.81
66.8097
66.8094
66.8092
66.809
66.8087
66.8084
66.8082
66.808
66.8079
66.8097
66.8094
66.8092
66.8089
66.8087
66.8085
66.8082
66.8079
66.8077
66.8077
66.8095
66.8092
66.809
66.8087
66.8085
66.8083
66.808
66.8078
66.8076
66.8076
66.8094
66.8091
66.8088
66.8086
66.8084
66.8082
66.8079
66.8076
66.8075
66.8075
66.8093
66.809
66.8088
66.8086
66.8083
66.8081
66.8079
66.8076
66.8074
66.8075
66.8093
66.809
66.8088
66.8086
66.8084
66.8081
66.8079
66.8076
66.8075
66.8075
66.8094
66.8091
66.8088
66.8086
66.8084
66.8082
66.8079
66.8077
66.8075
66.8075
66.8095
66.8092
66.809
66.8087
66.8085
66.8083
66.8081
66.8078
66.8077
66.8077
66.8096
66.8093
66.8091
66.8089
66.8087
66.8085
66.8082
66.808
66.8078
66.8078
66.8097
66.8095
66.8093
66.8091
66.8089
66.8087
66.8084
66.8082
66.808
66.8081
51.9339
51.9335
51.9332
51.9328
51.9324
51.9318
51.9312
51.9304
51.9298
51.9295
51.9335
51.9332
51.9328
51.9325
51.9321
51.9315
51.9309
51.9301
51.9295
51.9293
51.9333
51.933
51.9326
51.9323
51.9318
51.9313
51.9307
51.9299
51.9293
51.9291
51.9332
51.9328
51.9325
51.9321
51.9317
51.9312
51.9305
51.9298
51.9292
51.929
51.9331
51.9327
51.9324
51.9321
51.9316
51.9311
51.9305
51.9298
51.9292
51.929
51.9331
51.9328
51.9324
51.9321
51.9317
51.9311
51.9305
51.9298
51.9292
51.929
51.9332
51.9328
51.9325
51.9321
51.9317
51.9312
51.9306
51.9299
51.9293
51.9291
51.9333
51.9329
51.9326
51.9323
51.9319
51.9314
51.9307
51.93
51.9295
51.9292
51.9335
51.9331
51.9328
51.9325
51.9321
51.9316
51.931
51.9303
51.9297
51.9295
51.9337
51.9334
51.9331
51.9328
51.9324
51.9319
51.9312
51.9306
51.93
51.9298
39.1115
39.1111
39.1107
39.1101
39.1093
39.1082
39.1067
39.1049
39.1032
39.1022
39.1112
39.1108
39.1104
39.1098
39.109
39.1079
39.1064
39.1046
39.1029
39.1019
39.111
39.1106
39.1101
39.1096
39.1088
39.1077
39.1062
39.1044
39.1027
39.1018
39.1108
39.1104
39.11
39.1094
39.1086
39.1075
39.106
39.1043
39.1026
39.1017
39.1108
39.1104
39.1099
39.1094
39.1086
39.1075
39.106
39.1042
39.1025
39.1016
39.1108
39.1104
39.1099
39.1094
39.1086
39.1075
39.106
39.1042
39.1026
39.1017
39.1109
39.1104
39.11
39.1095
39.1087
39.1076
39.1061
39.1043
39.1027
39.1018
39.111
39.1106
39.1102
39.1096
39.1089
39.1078
39.1063
39.1045
39.1029
39.1019
39.1112
39.1108
39.1104
39.1099
39.1091
39.108
39.1065
39.1048
39.1031
39.1022
39.1114
39.1111
39.1107
39.1102
39.1094
39.1083
39.1069
39.1051
39.1034
39.1025
28.5134
28.5129
28.5123
28.5114
28.51
28.5077
28.5045
28.5004
28.4961
28.4932
28.5131
28.5126
28.512
28.5111
28.5097
28.5074
28.5042
28.5001
28.4958
28.493
28.5129
28.5124
28.5118
28.5109
28.5095
28.5072
28.504
28.4999
28.4956
28.4929
28.5127
28.5123
28.5117
28.5108
28.5093
28.5071
28.5039
28.4998
28.4955
28.4928
28.5127
28.5122
28.5116
28.5107
28.5093
28.5071
28.5038
28.4997
28.4955
28.4927
28.5127
28.5122
28.5116
28.5107
28.5093
28.5071
28.5039
28.4997
28.4955
28.4928
28.5128
28.5123
28.5117
28.5108
28.5094
28.5072
28.504
28.4999
28.4956
28.4929
28.5129
28.5125
28.5119
28.511
28.5096
28.5074
28.5041
28.5
28.4958
28.4931
28.5131
28.5127
28.5121
28.5112
28.5098
28.5076
28.5044
28.5003
28.4961
28.4933
28.5134
28.513
28.5124
28.5116
28.5102
28.5079
28.5047
28.5006
28.4964
28.4937
20.1103
20.1098
20.1089
20.1075
20.1049
20.1007
20.0941
20.0851
20.0749
20.0674
20.11
20.1095
20.1086
20.1072
20.1047
20.1004
20.0939
20.0848
20.0746
20.0672
20.1098
20.1093
20.1085
20.107
20.1045
20.1003
20.0937
20.0846
20.0745
20.0671
20.1097
20.1092
20.1083
20.1069
20.1044
20.1001
20.0936
20.0845
20.0744
20.067
20.1097
20.1091
20.1083
20.1068
20.1043
20.1001
20.0935
20.0845
20.0744
20.067
20.1097
20.1091
20.1083
20.1069
20.1043
20.1001
20.0936
20.0845
20.0744
20.067
20.1098
20.1092
20.1084
20.1069
20.1044
20.1002
20.0937
20.0846
20.0745
20.0671
20.1099
20.1094
20.1085
20.1071
20.1046
20.1004
20.0938
20.0848
20.0747
20.0673
20.1101
20.1096
20.1088
20.1073
20.1048
20.1006
20.0941
20.0851
20.0749
20.0675
20.1103
20.1099
20.1091
20.1077
20.1052
20.101
20.0944
20.0854
20.0752
20.0678
13.7161
13.7155
13.7143
13.712
13.7079
13.7004
13.6878
13.669
13.6454
13.6257
13.7159
13.7152
13.714
13.7118
13.7076
13.7001
13.6876
13.6688
13.6452
13.6255
13.7157
13.7151
13.7139
13.7116
13.7075
13.7
13.6875
13.6686
13.6451
13.6254
13.7156
13.715
13.7138
13.7115
13.7074
13.6999
13.6874
13.6685
13.645
13.6254
13.7156
13.7149
13.7137
13.7115
13.7073
13.6999
13.6873
13.6685
13.645
13.6253
13.7156
13.7149
13.7138
13.7115
13.7074
13.6999
13.6874
13.6685
13.645
13.6254
13.7156
13.715
13.7138
13.7116
13.7075
13.7
13.6875
13.6686
13.6451
13.6255
13.7158
13.7151
13.714
13.7118
13.7076
13.7001
13.6876
13.6688
13.6453
13.6256
13.7159
13.7153
13.7142
13.712
13.7078
13.7003
13.6878
13.669
13.6455
13.6258
13.7161
13.7156
13.7145
13.7122
13.7081
13.7006
13.6881
13.6693
13.6458
13.6261
9.04422
9.04347
9.0419
9.03869
9.03234
9.02018
8.99815
8.96135
8.90832
8.85452
9.04404
9.0433
9.04172
9.03851
9.03216
9.02001
8.99798
8.96119
8.90817
8.85442
9.04391
9.04317
9.04159
9.03839
9.03204
9.01989
8.99786
8.96108
8.90808
8.85433
9.04383
9.04309
9.04152
9.03831
9.03196
9.01982
8.9978
8.96102
8.90802
8.85428
9.0438
9.04306
9.04149
9.03829
9.03194
9.0198
8.99778
8.961
8.90801
8.85427
9.04382
9.04308
9.04151
9.03831
9.03196
9.01982
8.9978
8.96103
8.90804
8.8543
9.04388
9.04314
9.04157
9.03838
9.03204
9.0199
8.99788
8.96111
8.90812
8.85438
9.04398
9.04326
9.04169
9.0385
9.03216
9.02002
8.99801
8.96124
8.90824
8.85451
9.04413
9.04341
9.04186
9.03868
9.03234
9.0202
8.99819
8.96142
8.90842
8.85468
9.0443
9.04363
9.04209
9.03891
9.03257
9.02044
8.99842
8.96165
8.90865
8.85492
5.76488
5.76404
5.76209
5.75793
5.74929
5.73177
5.69731
5.63238
5.51937
5.36297
5.76475
5.76391
5.76196
5.7578
5.74916
5.73164
5.69719
5.63227
5.51927
5.3629
5.76465
5.76381
5.76187
5.75771
5.74907
5.73155
5.6971
5.63219
5.5192
5.36284
5.76459
5.76376
5.76181
5.75766
5.74901
5.7315
5.69705
5.63214
5.51916
5.36281
5.76457
5.76374
5.76179
5.75764
5.749
5.73148
5.69704
5.63213
5.51915
5.3628
5.76459
5.76375
5.76181
5.75766
5.74902
5.73151
5.69706
5.63216
5.51918
5.36283
5.76464
5.7638
5.76186
5.75771
5.74908
5.73157
5.69713
5.63222
5.51924
5.36288
5.76472
5.76389
5.76196
5.75781
5.74918
5.73167
5.69723
5.63232
5.51933
5.36298
5.76484
5.76402
5.76209
5.75795
5.74932
5.73181
5.69737
5.63246
5.51947
5.36311
5.76498
5.76419
5.76227
5.75813
5.7495
5.73199
5.69755
5.63264
5.51965
5.36329
3.55214
3.55126
3.5491
3.54434
3.53418
3.51275
3.46794
3.37345
3.16665
2.67226
3.55205
3.55117
3.549
3.54425
3.53408
3.51266
3.46786
3.37337
3.16658
2.67221
3.55198
3.5511
3.54894
3.54419
3.53402
3.5126
3.4678
3.37332
3.16653
2.67217
3.55194
3.55106
3.5489
3.54415
3.53398
3.51257
3.46777
3.37329
3.16651
2.67215
3.55193
3.55105
3.54889
3.54414
3.53397
3.51256
3.46776
3.37328
3.1665
2.67215
3.55194
3.55106
3.5489
3.54415
3.53399
3.51258
3.46778
3.3733
3.16652
2.67216
3.55198
3.5511
3.54894
3.5442
3.53403
3.51262
3.46782
3.37335
3.16657
2.6722
3.55204
3.55117
3.54901
3.54427
3.53411
3.5127
3.4679
3.37342
3.16664
2.67226
3.55213
3.55126
3.54911
3.54437
3.53421
3.5128
3.468
3.37352
3.16673
2.67234
3.55224
3.55139
3.54925
3.54451
3.53435
3.51294
3.46814
3.37366
3.16686
2.67245
2.11603
2.11518
2.11306
2.10835
2.0983
2.07724
2.03389
1.94603
1.77115
1.43647
2.11596
2.11512
2.11299
2.10829
2.09824
2.07718
2.03383
1.94598
1.77111
1.43643
2.11592
2.11507
2.11295
2.10825
2.09819
2.07714
2.03379
1.94595
1.77108
1.43641
2.11589
2.11505
2.11292
2.10822
2.09817
2.07711
2.03377
1.94593
1.77106
1.4364
2.11588
2.11504
2.11292
2.10822
2.09816
2.07711
2.03377
1.94592
1.77106
1.4364
2.11589
2.11505
2.11293
2.10823
2.09818
2.07712
2.03378
1.94594
1.77107
1.43641
2.11592
2.11508
2.11296
2.10826
2.09821
2.07715
2.03382
1.94597
1.7711
1.43643
2.11597
2.11513
2.11301
2.10831
2.09826
2.07721
2.03387
1.94602
1.77115
1.43647
2.11603
2.11519
2.11308
2.10839
2.09834
2.07728
2.03394
1.94609
1.77121
1.43653
2.11611
2.11529
2.11318
2.10848
2.09843
2.07738
2.03404
1.94618
1.7713
1.4366
1.21892
1.21818
1.21633
1.21227
1.20374
1.18641
1.15229
1.08772
0.972221
0.784257
1.21887
1.21814
1.21629
1.21223
1.2037
1.18637
1.15225
1.08769
0.972194
0.784235
1.21885
1.21811
1.21626
1.2122
1.20368
1.18635
1.15223
1.08767
0.972175
0.784221
1.21883
1.21809
1.21624
1.21218
1.20366
1.18633
1.15221
1.08766
0.972165
0.784214
1.21882
1.21809
1.21624
1.21218
1.20366
1.18633
1.15221
1.08766
0.972165
0.784214
1.21883
1.2181
1.21625
1.21219
1.20367
1.18634
1.15222
1.08767
0.972174
0.784222
1.21885
1.21812
1.21627
1.21221
1.20369
1.18636
1.15224
1.08769
0.972193
0.784238
1.21888
1.21815
1.2163
1.21225
1.20373
1.1864
1.15228
1.08772
0.972224
0.784264
1.21893
1.2182
1.21635
1.2123
1.20378
1.18645
1.15233
1.08777
0.972267
0.784299
1.21898
1.21826
1.21642
1.21236
1.20384
1.18651
1.15239
1.08783
0.972323
0.784346
0.679162
0.678585
0.677135
0.674014
0.667642
0.655157
0.631779
0.590404
0.522595
0.423576
0.679136
0.678559
0.67711
0.673989
0.667618
0.655133
0.631757
0.590385
0.522579
0.423563
0.679118
0.678541
0.677092
0.673972
0.667601
0.655117
0.631742
0.590371
0.522567
0.423554
0.679108
0.678531
0.677082
0.673962
0.667592
0.655109
0.631734
0.590365
0.522562
0.42355
0.679105
0.678529
0.67708
0.67396
0.66759
0.655108
0.631734
0.590364
0.522562
0.42355
0.67911
0.678534
0.677086
0.673967
0.667596
0.655114
0.63174
0.590371
0.522568
0.423555
0.679124
0.678548
0.6771
0.673981
0.667611
0.655129
0.631755
0.590384
0.52258
0.423566
0.679145
0.67857
0.677123
0.674005
0.667635
0.655153
0.631778
0.590406
0.5226
0.423582
0.679174
0.678601
0.677155
0.674038
0.667668
0.655186
0.63181
0.590436
0.522627
0.423605
0.679208
0.678641
0.677198
0.674081
0.667711
0.655228
0.631851
0.590475
0.522662
0.423635
0.366164
0.365749
0.364718
0.362544
0.358236
0.350113
0.335605
0.311369
0.274258
0.22388
0.366149
0.365734
0.364702
0.362529
0.358222
0.350099
0.335592
0.311357
0.274248
0.223873
0.366138
0.365723
0.364692
0.362518
0.358212
0.35009
0.335584
0.311349
0.274242
0.223867
0.366132
0.365718
0.364686
0.362513
0.358207
0.350085
0.335579
0.311345
0.274238
0.223865
0.366131
0.365716
0.364685
0.362512
0.358206
0.350084
0.335579
0.311345
0.274239
0.223865
0.366135
0.36572
0.364689
0.362516
0.35821
0.350089
0.335583
0.31135
0.274242
0.223869
0.366143
0.365729
0.364698
0.362525
0.35822
0.350098
0.335592
0.311358
0.27425
0.223875
0.366156
0.365743
0.364712
0.36254
0.358234
0.350113
0.335607
0.311371
0.274262
0.223885
0.366174
0.365762
0.364733
0.362561
0.358255
0.350133
0.335626
0.31139
0.274279
0.223899
0.366196
0.365787
0.364759
0.362588
0.358282
0.35016
0.335652
0.311414
0.2743
0.223917
0.191101
0.190825
0.190148
0.188754
0.186074
0.181196
0.172843
0.159544
0.140221
0.115286
0.191092
0.190816
0.190139
0.188746
0.186065
0.181188
0.172836
0.159538
0.140216
0.115282
0.191086
0.19081
0.190134
0.18874
0.18606
0.181182
0.172831
0.159534
0.140212
0.115279
0.191082
0.190807
0.19013
0.188737
0.186057
0.18118
0.172828
0.159531
0.14021
0.115278
0.191082
0.190806
0.19013
0.188737
0.186057
0.18118
0.172828
0.159532
0.140211
0.115278
0.191084
0.190809
0.190132
0.188739
0.186059
0.181182
0.172831
0.159534
0.140213
0.11528
0.191089
0.190814
0.190138
0.188745
0.186065
0.181188
0.172836
0.159539
0.140218
0.115284
0.191097
0.190822
0.190147
0.188754
0.186074
0.181197
0.172845
0.159547
0.140225
0.11529
0.191108
0.190834
0.190159
0.188766
0.186086
0.181209
0.172857
0.159558
0.140234
0.115298
0.191121
0.190849
0.190175
0.188782
0.186102
0.181225
0.172872
0.159572
0.140247
0.115309
0.0965897
0.0964191
0.0960058
0.0951733
0.0936164
0.090874
0.0863472
0.079422
0.069763
0.0577504
0.0965848
0.0964143
0.096001
0.0951686
0.0936118
0.0908697
0.0863432
0.0794184
0.06976
0.0577479
0.0965814
0.096411
0.0959978
0.0951655
0.0936088
0.0908669
0.0863406
0.0794161
0.069758
0.0577463
0.0965797
0.0964092
0.0959961
0.0951639
0.0936073
0.0908654
0.0863393
0.079415
0.0697571
0.0577456
0.0965794
0.096409
0.0959959
0.0951638
0.0936072
0.0908655
0.0863394
0.0794151
0.0697573
0.0577458
0.0965808
0.0964105
0.0959974
0.0951653
0.0936088
0.0908671
0.0863409
0.0794166
0.0697587
0.057747
0.0965839
0.0964136
0.0960006
0.0951686
0.0936121
0.0908703
0.0863441
0.0794196
0.0697613
0.0577493
0.0965886
0.0964185
0.0960056
0.0951737
0.0936172
0.0908754
0.086349
0.0794241
0.0697654
0.0577528
0.0965949
0.0964252
0.0960127
0.0951808
0.0936243
0.0908824
0.0863556
0.0794303
0.069771
0.0577575
0.0966024
0.096434
0.0960218
0.0951901
0.0936336
0.0908914
0.0863642
0.0794384
0.0697781
0.0577637
0.0473038
0.0472047
0.0469677
0.0465004
0.0456486
0.0441916
0.0418624
0.0384183
0.0337756
0.0281756
0.0473012
0.0472021
0.0469652
0.0464979
0.0456462
0.0441893
0.0418603
0.0384164
0.033774
0.0281743
0.0472994
0.0472004
0.0469635
0.0464963
0.0456447
0.0441879
0.0418589
0.0384152
0.033773
0.0281734
0.0472985
0.0471995
0.0469626
0.0464955
0.0456439
0.0441871
0.0418583
0.0384146
0.0337725
0.0281731
0.0472984
0.0471994
0.0469626
0.0464955
0.0456439
0.0441872
0.0418584
0.0384148
0.0337726
0.0281732
0.0472992
0.0472003
0.0469635
0.0464963
0.0456448
0.0441881
0.0418593
0.0384156
0.0337734
0.0281739
0.0473009
0.047202
0.0469653
0.0464982
0.0456466
0.0441899
0.041861
0.0384173
0.0337749
0.0281751
0.0473036
0.0472047
0.0469681
0.046501
0.0456495
0.0441927
0.0418637
0.0384198
0.0337771
0.0281771
0.0473071
0.0472085
0.046972
0.046505
0.0456534
0.0441966
0.0418674
0.0384232
0.0337802
0.0281797
0.0473113
0.0472134
0.0469771
0.0465101
0.0456585
0.0442015
0.0418721
0.0384276
0.0337841
0.0281831
0.0224586
0.0224042
0.0222759
0.0220276
0.0215858
0.0208501
0.0197083
0.018074
0.0159509
0.0135037
0.0224572
0.0224029
0.0222746
0.0220264
0.0215846
0.020849
0.0197072
0.018073
0.0159501
0.013503
0.0224563
0.022402
0.0222737
0.0220255
0.0215838
0.0208482
0.0197065
0.0180724
0.0159496
0.0135026
0.0224559
0.0224016
0.0222733
0.0220251
0.0215834
0.0208478
0.0197062
0.0180721
0.0159493
0.0135024
0.0224559
0.0224016
0.0222733
0.0220251
0.0215835
0.0208479
0.0197063
0.0180722
0.0159494
0.0135025
0.0224563
0.022402
0.0222738
0.0220256
0.021584
0.0208484
0.0197068
0.0180727
0.0159499
0.0135029
0.0224573
0.022403
0.0222747
0.0220266
0.0215849
0.0208494
0.0197077
0.0180736
0.0159507
0.0135036
0.0224587
0.0224045
0.0222762
0.0220282
0.0215865
0.0208509
0.0197091
0.0180749
0.0159518
0.0135046
0.0224606
0.0224065
0.0222783
0.0220303
0.0215886
0.0208529
0.0197111
0.0180767
0.0159535
0.013506
0.0224628
0.0224091
0.022281
0.022033
0.0215913
0.0208555
0.0197136
0.018079
0.0159556
0.0135078
0.0103424
0.0103141
0.0102481
0.0101227
0.00990455
0.00955054
0.00901761
0.00828471
0.00739466
0.00653711
0.0103418
0.0103135
0.0102475
0.0101221
0.00990396
0.00954997
0.00901709
0.00828424
0.00739424
0.00653675
0.0103413
0.010313
0.010247
0.0101217
0.00990357
0.00954961
0.00901675
0.00828394
0.00739398
0.00653653
0.0103411
0.0103128
0.0102468
0.0101215
0.00990338
0.00954944
0.00901661
0.00828381
0.00739388
0.00653644
0.0103411
0.0103128
0.0102468
0.0101215
0.00990341
0.00954948
0.00901665
0.00828386
0.00739393
0.00653649
0.0103414
0.0103131
0.0102471
0.0101218
0.00990368
0.00954974
0.00901691
0.00828411
0.00739416
0.0065367
0.0103418
0.0103136
0.0102476
0.0101223
0.00990419
0.00955025
0.0090174
0.00828456
0.00739458
0.00653708
0.0103426
0.0103143
0.0102484
0.0101231
0.00990498
0.00955102
0.00901813
0.00828525
0.0073952
0.00653765
0.0103436
0.0103154
0.0102495
0.0101242
0.00990606
0.00955207
0.00901913
0.00828618
0.00739605
0.00653842
0.0103447
0.0103167
0.0102509
0.0101256
0.00990744
0.00955342
0.00902041
0.00828737
0.00739713
0.00653938
1.29137
0.646075
0.341151
0.215271
0.207657
0.317592
0.60209
1.20327
2.42314
4.91222
1.29134
0.646057
0.341138
0.215259
0.207642
0.317568
0.602049
1.2032
2.42302
4.91201
1.29132
0.646045
0.34113
0.215252
0.207632
0.317552
0.602022
1.20315
2.42294
4.91188
1.29131
0.64604
0.341126
0.215248
0.207626
0.317543
0.602006
1.20312
2.4229
4.91181
1.29131
0.64604
0.341126
0.215247
0.207624
0.317539
0.601999
1.20311
2.42288
4.91178
1.29132
0.646046
0.34113
0.215249
0.207625
0.31754
0.602001
1.20312
2.42289
4.91179
1.29134
0.646059
0.341138
0.215254
0.20763
0.317546
0.60201
1.20313
2.42292
4.91185
1.29137
0.64608
0.34115
0.215263
0.207637
0.317555
0.602025
1.20316
2.42297
4.91194
1.29142
0.646107
0.341166
0.215273
0.207646
0.317566
0.602044
1.2032
2.42303
4.91206
1.29148
0.646139
0.341185
0.215286
0.207657
0.317579
0.602063
1.20323
2.42309
4.91218
0.877978
0.49443
0.279819
0.184831
0.181902
0.275664
0.509527
0.978911
1.84807
3.3351
0.877956
0.494416
0.279808
0.184821
0.181889
0.275644
0.509493
0.978854
1.84798
3.33496
0.877941
0.494406
0.279801
0.184814
0.18188
0.27563
0.509469
0.978815
1.84791
3.33486
0.877934
0.494401
0.279798
0.184811
0.181875
0.275621
0.509455
0.978791
1.84788
3.33481
0.877934
0.494401
0.279798
0.18481
0.181873
0.275618
0.509449
0.978782
1.84786
3.33479
0.877942
0.494407
0.279801
0.184812
0.181874
0.275619
0.509451
0.978785
1.84787
3.3348
0.877959
0.494418
0.279808
0.184817
0.181879
0.275624
0.509459
0.9788
1.84789
3.33484
0.877986
0.494435
0.279819
0.184824
0.181885
0.275633
0.509473
0.978824
1.84794
3.33491
0.878023
0.494459
0.279834
0.184835
0.181895
0.275644
0.509492
0.978857
1.84799
3.33501
0.878071
0.494489
0.279853
0.184848
0.181906
0.275659
0.509516
0.978898
1.84807
3.33513
0.532356
0.328648
0.200248
0.140289
0.141867
0.211961
0.378035
0.691507
1.22191
2.01817
0.532341
0.328638
0.200239
0.140281
0.141857
0.211945
0.378009
0.691466
1.22185
2.01807
0.532331
0.328631
0.200234
0.140276
0.14185
0.211934
0.377991
0.691437
1.2218
2.01801
0.532326
0.328627
0.200231
0.140273
0.141846
0.211928
0.37798
0.69142
1.22178
2.01797
0.532326
0.328628
0.200231
0.140272
0.141844
0.211925
0.377976
0.691413
1.22177
2.01796
0.532332
0.328632
0.200234
0.140274
0.141845
0.211926
0.377977
0.691416
1.22177
2.01797
0.532344
0.32864
0.20024
0.140278
0.141849
0.21193
0.377984
0.691427
1.22179
2.018
0.532363
0.328653
0.200248
0.140284
0.141855
0.211938
0.377996
0.691447
1.22182
2.01805
0.53239
0.328671
0.20026
0.140293
0.141863
0.211948
0.378012
0.691475
1.22187
2.01812
0.532424
0.328695
0.200276
0.140305
0.141874
0.211962
0.378033
0.69151
1.22193
2.01822
0.304105
0.200489
0.130277
0.0966548
0.100372
0.14759
0.253655
0.44285
0.740492
1.14996
0.304095
0.200482
0.130272
0.0966491
0.100365
0.147578
0.253637
0.442822
0.740451
1.14991
0.304088
0.200478
0.130268
0.0966453
0.10036
0.14757
0.253625
0.442803
0.740423
1.14987
0.304085
0.200475
0.130266
0.0966432
0.100357
0.147566
0.253617
0.442791
0.740406
1.14984
0.304086
0.200476
0.130266
0.0966428
0.100356
0.147564
0.253614
0.442787
0.740399
1.14984
0.30409
0.200479
0.130268
0.0966442
0.100357
0.147565
0.253615
0.442789
0.740403
1.14984
0.304098
0.200484
0.130272
0.0966472
0.10036
0.147568
0.253621
0.442797
0.740417
1.14986
0.304111
0.200493
0.130279
0.096652
0.100364
0.147574
0.25363
0.442812
0.74044
1.1499
0.304128
0.200506
0.130287
0.0966588
0.100371
0.147582
0.253642
0.442833
0.740473
1.14995
0.304151
0.200522
0.130299
0.0966676
0.100379
0.147593
0.253659
0.44286
0.740516
1.15001
0.166409
0.115101
0.0789121
0.0616046
0.0654618
0.0947381
0.157302
0.263658
0.421902
0.627412
0.166404
0.115096
0.0789084
0.0616008
0.0654568
0.0947306
0.15729
0.26364
0.421877
0.627378
0.1664
0.115093
0.0789059
0.0615982
0.0654533
0.0947254
0.157282
0.263628
0.42186
0.627355
0.166398
0.115092
0.0789047
0.0615968
0.0654513
0.0947223
0.157277
0.263621
0.421849
0.627341
0.166398
0.115092
0.0789047
0.0615966
0.0654507
0.0947211
0.157275
0.263618
0.421845
0.627336
0.166401
0.115094
0.0789061
0.0615975
0.0654514
0.0947218
0.157276
0.26362
0.421848
0.62734
0.166406
0.115098
0.0789089
0.0615997
0.0654535
0.0947243
0.15728
0.263625
0.421857
0.627353
0.166414
0.115104
0.0789133
0.0616031
0.0654568
0.0947286
0.157286
0.263636
0.421872
0.627376
0.166425
0.115112
0.0789193
0.0616079
0.0654615
0.0947346
0.157295
0.26365
0.421894
0.627408
0.166439
0.115123
0.0789271
0.0616141
0.0654676
0.0947425
0.157307
0.263669
0.421923
0.62745
0.0877847
0.0629757
0.045142
0.0368135
0.0398631
0.0568321
0.0915061
0.148148
0.228935
0.329868
0.0877812
0.062973
0.0451397
0.0368111
0.0398599
0.0568275
0.0914991
0.148138
0.22892
0.329849
0.087779
0.0629713
0.0451381
0.0368094
0.0398577
0.0568242
0.0914942
0.148131
0.22891
0.329835
0.087778
0.0629705
0.0451374
0.0368086
0.0398565
0.0568223
0.0914912
0.148126
0.228904
0.329827
0.0877782
0.0629706
0.0451375
0.0368084
0.0398561
0.0568216
0.0914901
0.148125
0.228902
0.329825
0.0877799
0.0629719
0.0451384
0.0368091
0.0398566
0.0568221
0.0914908
0.148126
0.228904
0.329827
0.087783
0.0629743
0.0451402
0.0368105
0.039858
0.0568238
0.0914933
0.14813
0.228909
0.329836
0.0877879
0.062978
0.045143
0.0368128
0.0398603
0.0568267
0.0914976
0.148136
0.228919
0.329849
0.0877945
0.0629831
0.0451468
0.036816
0.0398635
0.0568308
0.0915036
0.148145
0.228933
0.329869
0.0878031
0.0629896
0.0451518
0.0368201
0.0398676
0.0568361
0.0915115
0.148158
0.228951
0.329895
0.0448035
0.0331015
0.0246402
0.0208572
0.0229311
0.032241
0.0505204
0.0794055
0.119273
0.167733
0.0448015
0.0330999
0.0246388
0.0208557
0.0229292
0.0322382
0.0505164
0.0793996
0.119265
0.167723
0.0448003
0.0330989
0.0246379
0.0208548
0.0229279
0.0322363
0.0505135
0.0793955
0.11926
0.167715
0.0447997
0.0330985
0.0246375
0.0208542
0.0229271
0.0322351
0.0505118
0.079393
0.119256
0.167711
0.0447999
0.0330986
0.0246376
0.0208542
0.0229269
0.0322347
0.0505112
0.0793921
0.119255
0.16771
0.0448009
0.0330994
0.0246381
0.0208546
0.0229273
0.0322351
0.0505117
0.0793929
0.119256
0.167712
0.0448027
0.0331008
0.0246392
0.0208555
0.0229281
0.0322362
0.0505133
0.0793953
0.11926
0.167716
0.0448056
0.033103
0.0246409
0.0208569
0.0229296
0.032238
0.0505159
0.0793993
0.119266
0.167724
0.0448094
0.033106
0.0246433
0.0208589
0.0229316
0.0322407
0.0505197
0.0794049
0.119274
0.167736
0.0448144
0.0331099
0.0246463
0.0208615
0.0229343
0.032244
0.0505246
0.0794124
0.119285
0.167751
0.0222599
0.016898
0.0130182
0.0113905
0.0126818
0.0175974
0.0268995
0.0411686
0.0603028
0.082984
0.0222589
0.0168971
0.0130174
0.0113896
0.0126807
0.0175958
0.0268972
0.0411653
0.0602985
0.0829785
0.0222582
0.0168966
0.0130168
0.011389
0.0126799
0.0175947
0.0268956
0.041163
0.0602954
0.0829746
0.0222579
0.0168963
0.0130166
0.0113887
0.0126795
0.0175941
0.0268946
0.0411617
0.0602936
0.0829723
0.022258
0.0168964
0.0130166
0.0113887
0.0126794
0.0175939
0.0268943
0.0411612
0.0602931
0.0829717
0.0222586
0.0168969
0.013017
0.011389
0.0126796
0.0175941
0.0268946
0.0411617
0.0602938
0.0829727
0.0222596
0.0168977
0.0130176
0.0113895
0.0126801
0.0175948
0.0268956
0.0411632
0.0602958
0.0829755
0.0222612
0.016899
0.0130186
0.0113904
0.012681
0.0175959
0.0268972
0.0411655
0.0602992
0.0829801
0.0222634
0.0169007
0.01302
0.0113916
0.0126823
0.0175975
0.0268995
0.0411689
0.060304
0.0829866
0.0222662
0.0169029
0.0130218
0.0113931
0.0126839
0.0175996
0.0269025
0.0411732
0.0603102
0.0829951
0.011057
0.00870378
0.00696151
0.00629299
0.0070865
0.00970558
0.0144779
0.0215635
0.0307086
0.0410011
0.0110565
0.00870328
0.00696104
0.00629247
0.00708584
0.00970464
0.0144765
0.0215617
0.0307062
0.0409982
0.0110561
0.00870296
0.00696074
0.00629213
0.00708539
0.00970401
0.0144756
0.0215605
0.0307045
0.0409961
0.0110559
0.00870283
0.00696061
0.00629196
0.00708514
0.00970364
0.0144751
0.0215597
0.0307036
0.0409949
0.011056
0.00870289
0.00696064
0.00629196
0.00708509
0.00970354
0.0144749
0.0215595
0.0307033
0.0409946
0.0110563
0.00870316
0.00696085
0.00629212
0.00708524
0.0097037
0.0144752
0.0215598
0.0307038
0.0409953
0.0110569
0.00870365
0.00696124
0.00629247
0.00708559
0.00970413
0.0144758
0.0215607
0.030705
0.0409969
0.0110578
0.00870438
0.00696184
0.006293
0.00708615
0.00970483
0.0144767
0.0215621
0.0307069
0.0409994
0.011059
0.00870536
0.00696266
0.00629373
0.00708692
0.00970581
0.0144781
0.0215641
0.0307097
0.0410031
0.0110606
0.00870661
0.00696368
0.00629465
0.0070879
0.00970706
0.0144799
0.0215666
0.0307132
0.0410078
0.0062788
0.00528043
0.00440627
0.00410346
0.00466465
0.00631819
0.00922524
0.0133821
0.0184063
0.02313
0.00627848
0.00528015
0.004406
0.00410315
0.00466424
0.00631763
0.00922445
0.013381
0.0184049
0.0231284
0.00627827
0.00527996
0.00440581
0.00410293
0.00466395
0.00631722
0.00922386
0.0133802
0.0184039
0.0231272
0.00627819
0.00527988
0.00440572
0.00410281
0.00466379
0.00631697
0.00922352
0.0133797
0.0184033
0.0231265
0.00627824
0.00527992
0.00440575
0.00410281
0.00466376
0.00631691
0.00922343
0.0133796
0.0184032
0.0231264
0.00627845
0.0052801
0.0044059
0.00410293
0.00466387
0.00631704
0.00922359
0.0133798
0.0184035
0.0231268
0.00627883
0.00528043
0.00440617
0.00410318
0.00466412
0.00631735
0.00922402
0.0133804
0.0184043
0.0231278
0.00627939
0.00528092
0.00440659
0.00410356
0.00466453
0.00631785
0.00922471
0.0133814
0.0184056
0.0231294
0.00628014
0.00528157
0.00440714
0.00410407
0.00466507
0.00631854
0.00922566
0.0133827
0.0184074
0.0231317
0.00628106
0.00528237
0.00440783
0.0041047
0.00466575
0.0063194
0.00922685
0.0133844
0.0184097
0.0231346
10.1966
12.0882
12.8792
13.2406
13.4119
13.4939
13.5328
13.551
13.5593
13.5626
10.1962
12.0878
12.8788
13.2401
13.4115
13.4934
13.5324
13.5506
13.5589
13.5623
10.196
12.0875
12.8785
13.2399
13.4112
13.4932
13.5321
13.5503
13.5587
13.5621
10.1959
12.0874
12.8784
13.2397
13.4111
13.493
13.5319
13.5502
13.5586
13.562
10.1958
12.0873
12.8783
13.2397
13.411
13.493
13.5319
13.5502
13.5585
13.562
10.1958
12.0874
12.8784
13.2397
13.4111
13.493
13.532
13.5502
13.5586
13.5621
10.1959
12.0875
12.8785
13.2399
13.4112
13.4932
13.5321
13.5504
13.5588
13.5622
10.1961
12.0877
12.8788
13.2401
13.4115
13.4935
13.5324
13.5507
13.5591
13.5625
10.1964
12.088
12.8791
13.2405
13.4119
13.4938
13.5328
13.5511
13.5595
13.5629
10.1966
12.0883
12.8795
13.2409
13.4123
13.4943
13.5332
13.5515
13.5599
13.5634
5.47751
6.75946
7.4288
7.76489
7.93067
8.01122
8.0497
8.06773
8.07588
8.07913
5.47731
6.75923
7.42854
7.76463
7.9304
8.01095
8.04944
8.06747
8.07564
8.07895
5.47717
6.75907
7.42837
7.76444
7.93022
8.01077
8.04926
8.06729
8.07549
8.07881
5.47709
6.75897
7.42826
7.76434
7.93011
8.01066
8.04916
8.0672
8.0754
8.07873
5.47706
6.75894
7.42823
7.7643
7.93008
8.01063
8.04913
8.06718
8.07538
8.07872
5.47708
6.75896
7.42826
7.76434
7.93012
8.01068
8.04918
8.06723
8.07544
8.07878
5.47715
6.75905
7.42836
7.76445
7.93024
8.0108
8.0493
8.06736
8.07557
8.07891
5.47726
6.75919
7.42852
7.76462
7.93042
8.01099
8.0495
8.06756
8.07577
8.07911
5.47741
6.75939
7.42875
7.76487
7.93068
8.01125
8.04977
8.06783
8.07604
8.07938
5.47761
6.75965
7.42905
7.76519
7.93101
8.01159
8.05011
8.06818
8.07639
8.07973
2.98819
3.70939
4.15184
4.39895
4.52949
4.5958
4.62841
4.64398
4.65109
4.65392
2.98807
3.70925
4.15169
4.39879
4.52933
4.59563
4.62825
4.64382
4.65095
4.65381
2.98799
3.70915
4.15158
4.39867
4.52921
4.59552
4.62814
4.64371
4.65085
4.65373
2.98794
3.70909
4.15152
4.39861
4.52914
4.59545
4.62807
4.64365
4.65079
4.65368
2.98792
3.70907
4.1515
4.39859
4.52912
4.59543
4.62806
4.64364
4.65078
4.65367
2.98793
3.70908
4.15152
4.39861
4.52915
4.59546
4.62809
4.64367
4.65082
4.65371
2.98798
3.70914
4.15158
4.39869
4.52923
4.59555
4.62818
4.64376
4.65091
4.6538
2.98805
3.70923
4.15169
4.3988
4.52936
4.59568
4.62831
4.6439
4.65105
4.65394
2.98816
3.70937
4.15185
4.39897
4.52953
4.59586
4.6285
4.64408
4.65124
4.65413
2.9883
3.70955
4.15205
4.3992
4.52977
4.5961
4.62874
4.64433
4.65148
4.65438
1.61239
1.9932
2.25327
2.41173
2.5012
2.54897
2.57336
2.58532
2.59088
2.59312
1.61232
1.99312
2.25318
2.41164
2.5011
2.54887
2.57326
2.58522
2.5908
2.59305
1.61227
1.99306
2.25312
2.41157
2.50103
2.5488
2.57319
2.58515
2.59074
2.593
1.61224
1.99303
2.25308
2.41153
2.50099
2.54876
2.57315
2.58512
2.5907
2.59297
1.61223
1.99301
2.25306
2.41152
2.50098
2.54875
2.57314
2.58511
2.5907
2.59297
1.61224
1.99303
2.25308
2.41153
2.501
2.54877
2.57316
2.58514
2.59073
2.59299
1.61227
1.99306
2.25312
2.41158
2.50105
2.54882
2.57322
2.58519
2.59078