/*--------------------------------*- C++ -*----------------------------------*\
  =========                 |
  \\      /  F ield         | OpenFOAM: The Open Source CFD Toolbox
   \\    /   O peration     | Website:  https://openfoam.org
    \\  /    A nd           | Version:  6
     \\/     M anipulation  |
\*---------------------------------------------------------------------------*/
FoamFile
{
    version     2.0;
    format      ascii;
    class       volScalarField;
    location    "0.87";
    object      T;
}
// * * * * * * * * * * * * * * * * * * * * * * * * * * * * * * * * * * * * * //

dimensions      [0 0 0 1 0 0 0];

internalField   nonuniform List<scalar> 
7000
(
106.565
106.563
106.561
106.557
106.553
106.548
106.543
106.539
106.535
106.534
106.565
106.563
106.561
106.557
106.553
106.548
106.543
106.539
106.535
106.534
106.565
106.563
106.561
106.557
106.553
106.548
106.543
106.539
106.535
106.534
106.565
106.563
106.561
106.557
106.553
106.548
106.543
106.539
106.535
106.534
106.565
106.563
106.561
106.557
106.553
106.548
106.543
106.539
106.535
106.534
106.565
106.563
106.561
106.557
106.553
106.548
106.543
106.539
106.535
106.534
106.565
106.563
106.561
106.557
106.553
106.548
106.543
106.539
106.535
106.534
106.565
106.563
106.561
106.557
106.553
106.548
106.543
106.539
106.535
106.534
106.565
106.563
106.561
106.557
106.553
106.548
106.543
106.539
106.535
106.534
106.565
106.563
106.561
106.557
106.553
106.548
106.543
106.539
106.535
106.534
99.7149
99.7108
99.7029
99.6917
99.6781
99.6631
99.6483
99.6351
99.6252
99.6198
99.7149
99.7108
99.7029
99.6917
99.6781
99.6631
99.6483
99.6351
99.6252
99.6198
99.7149
99.7108
99.7029
99.6917
99.6781
99.6631
99.6483
99.6351
99.6252
99.6198
99.7149
99.7108
99.7029
99.6917
99.6781
99.6631
99.6483
99.6351
99.6252
99.6198
99.7149
99.7108
99.7029
99.6917
99.6781
99.6631
99.6483
99.6351
99.6251
99.6198
99.7149
99.7108
99.7029
99.6917
99.6781
99.6631
99.6483
99.6351
99.6251
99.6198
99.7149
99.7108
99.7029
99.6917
99.6781
99.6631
99.6483
99.6351
99.6251
99.6198
99.7149
99.7108
99.7029
99.6917
99.6781
99.6631
99.6483
99.6351
99.6252
99.6198
99.7149
99.7108
99.7029
99.6917
99.6781
99.6631
99.6483
99.6351
99.6252
99.6198
99.7149
99.7108
99.7029
99.6917
99.6781
99.6631
99.6483
99.6351
99.6252
99.6198
92.9277
92.9207
92.9073
92.8882
92.8648
92.8389
92.813
92.7898
92.7722
92.7627
92.9277
92.9207
92.9073
92.8882
92.8648
92.8389
92.813
92.7898
92.7722
92.7627
92.9277
92.9207
92.9073
92.8882
92.8648
92.8389
92.813
92.7898
92.7722
92.7627
92.9276
92.9207
92.9073
92.8882
92.8648
92.8389
92.813
92.7898
92.7722
92.7627
92.9276
92.9207
92.9073
92.8882
92.8648
92.8389
92.813
92.7898
92.7722
92.7627
92.9276
92.9207
92.9073
92.8882
92.8647
92.8389
92.813
92.7898
92.7722
92.7627
92.9276
92.9207
92.9073
92.8882
92.8648
92.8389
92.813
92.7898
92.7722
92.7627
92.9276
92.9207
92.9073
92.8882
92.8648
92.8389
92.813
92.7898
92.7722
92.7627
92.9277
92.9207
92.9073
92.8882
92.8648
92.8389
92.813
92.7898
92.7722
92.7627
92.9277
92.9207
92.9073
92.8882
92.8648
92.8389
92.813
92.7898
92.7722
92.7627
86.244
86.2341
86.2147
86.1871
86.153
86.1148
86.0761
86.0408
86.0137
85.9989
86.244
86.234
86.2147
86.1871
86.1529
86.1148
86.076
86.0408
86.0137
85.9989
86.244
86.234
86.2147
86.1871
86.1529
86.1148
86.076
86.0408
86.0137
85.9989
86.2439
86.234
86.2147
86.1871
86.1529
86.1148
86.076
86.0408
86.0137
85.9989
86.2439
86.234
86.2147
86.1871
86.1529
86.1148
86.076
86.0408
86.0137
85.9989
86.2439
86.234
86.2147
86.1871
86.1529
86.1148
86.076
86.0408
86.0137
85.9989
86.2439
86.234
86.2147
86.1871
86.1529
86.1148
86.076
86.0408
86.0137
85.9989
86.2439
86.234
86.2147
86.1871
86.1529
86.1148
86.076
86.0408
86.0137
85.9989
86.244
86.234
86.2147
86.1871
86.1529
86.1148
86.076
86.0408
86.0137
85.9989
86.244
86.234
86.2147
86.1871
86.1529
86.1148
86.076
86.0408
86.0137
85.9989
79.7036
79.6906
79.665
79.6283
79.5822
79.5299
79.4757
79.4253
79.3856
79.3634
79.7036
79.6905
79.665
79.6282
79.5822
79.5299
79.4756
79.4252
79.3855
79.3634
79.7036
79.6905
79.665
79.6282
79.5821
79.5298
79.4756
79.4252
79.3855
79.3634
79.7035
79.6905
79.665
79.6282
79.5821
79.5298
79.4756
79.4252
79.3855
79.3634
79.7035
79.6905
79.665
79.6282
79.5821
79.5298
79.4756
79.4252
79.3855
79.3634
79.7035
79.6905
79.665
79.6282
79.5821
79.5298
79.4756
79.4252
79.3855
79.3634
79.7035
79.6905
79.665
79.6282
79.5821
79.5298
79.4756
79.4252
79.3855
79.3634
79.7035
79.6905
79.665
79.6282
79.5821
79.5298
79.4756
79.4252
79.3855
79.3634
79.7036
79.6905
79.665
79.6282
79.5821
79.5298
79.4756
79.4252
79.3855
79.3634
79.7036
79.6905
79.665
79.6282
79.5822
79.5299
79.4756
79.4252
79.3856
79.3634
73.3446
73.3285
73.2967
73.2503
73.1913
73.1227
73.0495
72.9791
72.9216
72.8885
73.3446
73.3285
73.2967
73.2503
73.1913
73.1227
73.0495
72.9791
72.9216
72.8884
73.3446
73.3284
73.2966
73.2503
73.1912
73.1226
73.0494
72.979
72.9215
72.8884
73.3446
73.3284
73.2966
73.2503
73.1912
73.1226
73.0494
72.979
72.9215
72.8884
73.3446
73.3284
73.2966
73.2502
73.1912
73.1226
73.0494
72.979
72.9215
72.8884
73.3446
73.3284
73.2966
73.2502
73.1912
73.1226
73.0494
72.979
72.9215
72.8884
73.3446
73.3284
73.2966
73.2502
73.1912
73.1226
73.0494
72.979
72.9215
72.8884
73.3446
73.3284
73.2966
73.2503
73.1912
73.1226
73.0494
72.979
72.9215
72.8884
73.3446
73.3284
73.2966
73.2503
73.1912
73.1226
73.0495
72.9791
72.9216
72.8884
73.3446
73.3285
73.2967
73.2503
73.1913
73.1227
73.0495
72.9791
72.9216
72.8885
67.2029
67.184
67.1463
67.0906
67.0182
66.9315
66.8352
66.7377
66.6534
66.6018
67.2029
67.1839
67.1463
67.0906
67.0181
66.9314
66.8351
66.7377
66.6533
66.6018
67.2029
67.1839
67.1462
67.0906
67.0181
66.9314
66.8351
66.7377
66.6533
66.6018
67.2029
67.1839
67.1462
67.0905
67.0181
66.9314
66.8351
66.7377
66.6533
66.6018
67.2028
67.1839
67.1462
67.0905
67.0181
66.9314
66.8351
66.7376
66.6533
66.6017
67.2028
67.1839
67.1462
67.0905
67.0181
66.9314
66.8351
66.7376
66.6533
66.6017
67.2028
67.1839
67.1462
67.0905
67.0181
66.9314
66.8351
66.7377
66.6533
66.6017
67.2029
67.1839
67.1462
67.0905
67.0181
66.9314
66.8351
66.7377
66.6533
66.6018
67.2029
67.1839
67.1462
67.0906
67.0181
66.9314
66.8351
66.7377
66.6533
66.6018
67.2029
67.1839
67.1463
67.0906
67.0182
66.9315
66.8351
66.7377
66.6533
66.6018
61.3114
61.2903
61.2481
61.1846
61.1
60.9948
60.8714
60.7373
60.6099
60.5235
61.3113
61.2902
61.248
61.1846
61.1
60.9947
60.8714
60.7373
60.6099
60.5235
61.3113
61.2902
61.248
61.1846
61.0999
60.9947
60.8714
60.7373
60.6098
60.5235
61.3113
61.2902
61.248
61.1845
61.0999
60.9947
60.8713
60.7372
60.6098
60.5234
61.3113
61.2902
61.248
61.1845
61.0999
60.9946
60.8713
60.7372
60.6098
60.5234
61.3113
61.2902
61.248
61.1845
61.0999
60.9946
60.8713
60.7372
60.6098
60.5234
61.3113
61.2902
61.248
61.1845
61.0999
60.9947
60.8713
60.7372
60.6098
60.5234
61.3113
61.2902
61.248
61.1846
61.0999
60.9947
60.8714
60.7372
60.6098
60.5235
61.3113
61.2902
61.248
61.1846
61.0999
60.9947
60.8714
60.7373
60.6099
60.5235
61.3113
61.2902
61.248
61.1846
61.1
60.9947
60.8714
60.7373
60.6099
60.5235
55.699
55.6771
55.633
55.5654
55.4728
55.3522
55.201
55.0192
54.8203
54.6573
55.6989
55.6771
55.6329
55.5654
55.4727
55.3522
55.201
55.0192
54.8203
54.6573
55.6989
55.677
55.6329
55.5654
55.4727
55.3521
55.2009
55.0192
54.8202
54.6572
55.6989
55.677
55.6329
55.5653
55.4726
55.3521
55.2009
55.0191
54.8202
54.6572
55.6989
55.677
55.6328
55.5653
55.4726
55.3521
55.2009
55.0191
54.8202
54.6572
55.6989
55.677
55.6328
55.5653
55.4726
55.3521
55.2009
55.0191
54.8202
54.6572
55.6989
55.677
55.6328
55.5653
55.4726
55.3521
55.2009
55.0191
54.8202
54.6572
55.6989
55.677
55.6329
55.5654
55.4727
55.3521
55.2009
55.0191
54.8202
54.6572
55.6989
55.677
55.6329
55.5654
55.4727
55.3522
55.2009
55.0192
54.8203
54.6572
55.6989
55.6771
55.6329
55.5654
55.4727
55.3522
55.201
55.0192
54.8203
54.6573
50.3901
50.3695
50.3275
50.2623
50.1704
50.0449
49.8744
49.6411
49.3269
48.9668
50.3901
50.3694
50.3274
50.2623
50.1703
50.0448
49.8744
49.6411
49.3269
48.9667
50.39
50.3694
50.3274
50.2622
50.1703
50.0448
49.8743
49.641
49.3268
48.9667
50.39
50.3694
50.3274
50.2622
50.1702
50.0448
49.8743
49.641
49.3268
48.9666
50.39
50.3693
50.3274
50.2622
50.1702
50.0448
49.8743
49.641
49.3268
48.9666
50.39
50.3693
50.3274
50.2622
50.1702
50.0448
49.8743
49.641
49.3268
48.9666
50.39
50.3694
50.3274
50.2622
50.1702
50.0448
49.8743
49.641
49.3268
48.9666
50.39
50.3694
50.3274
50.2622
50.1703
50.0448
49.8743
49.641
49.3268
48.9667
50.39
50.3694
50.3274
50.2623
50.1703
50.0448
49.8743
49.6411
49.3269
48.9667
50.3901
50.3694
50.3275
50.2623
50.1703
50.0449
49.8744
49.6411
49.3269
48.9667
45.4033
45.3865
45.3522
45.2986
45.2216
45.1122
44.9518
44.6987
44.2493
43.2997
45.4033
45.3864
45.3522
45.2986
45.2215
45.1122
44.9518
44.6987
44.2493
43.2996
45.4032
45.3864
45.3521
45.2985
45.2215
45.1121
44.9517
44.6986
44.2492
43.2995
45.4032
45.3864
45.3521
45.2985
45.2215
45.1121
44.9517
44.6986
44.2492
43.2995
45.4032
45.3864
45.3521
45.2985
45.2214
45.1121
44.9517
44.6986
44.2492
43.2995
45.4032
45.3864
45.3521
45.2985
45.2214
45.1121
44.9517
44.6986
44.2492
43.2995
45.4032
45.3864
45.3521
45.2985
45.2214
45.1121
44.9517
44.6986
44.2492
43.2995
45.4032
45.3864
45.3521
45.2985
45.2215
45.1121
44.9517
44.6986
44.2492
43.2995
45.4032
45.3864
45.3521
45.2986
45.2215
45.1121
44.9517
44.6986
44.2492
43.2996
45.4032
45.3864
45.3522
45.2986
45.2216
45.1122
44.9518
44.6987
44.2493
43.2996
40.7506
40.7404
40.72
40.6887
40.6443
40.5813
40.4871
40.3359
40.0787
39.6441
40.7505
40.7403
40.7199
40.6886
40.6442
40.5812
40.4871
40.3358
40.0786
39.644
40.7505
40.7403
40.7199
40.6886
40.6442
40.5812
40.487
40.3358
40.0785
39.644
40.7505
40.7403
40.7199
40.6885
40.6442
40.5811
40.487
40.3358
40.0785
39.644
40.7504
40.7403
40.7198
40.6885
40.6441
40.5811
40.487
40.3357
40.0785
39.6439
40.7504
40.7403
40.7198
40.6885
40.6441
40.5811
40.487
40.3357
40.0785
39.6439
40.7505
40.7403
40.7199
40.6885
40.6441
40.5811
40.487
40.3357
40.0785
39.6439
40.7505
40.7403
40.7199
40.6886
40.6442
40.5812
40.487
40.3358
40.0785
39.644
40.7505
40.7403
40.7199
40.6886
40.6442
40.5812
40.487
40.3358
40.0786
39.644
40.7505
40.7404
40.72
40.6886
40.6443
40.5813
40.4871
40.3359
40.0786
39.6441
36.4371
36.436
36.4349
36.4354
36.4393
36.4484
36.4631
36.4837
36.5167
36.6017
36.437
36.436
36.4349
36.4353
36.4393
36.4483
36.463
36.4837
36.5166
36.6017
36.437
36.4359
36.4348
36.4353
36.4392
36.4483
36.463
36.4836
36.5166
36.6016
36.4369
36.4359
36.4348
36.4352
36.4392
36.4482
36.463
36.4836
36.5165
36.6016
36.4369
36.4359
36.4348
36.4352
36.4392
36.4482
36.4629
36.4836
36.5165
36.6016
36.4369
36.4359
36.4348
36.4352
36.4392
36.4482
36.4629
36.4836
36.5165
36.6016
36.4369
36.4359
36.4348
36.4352
36.4392
36.4482
36.463
36.4836
36.5165
36.6016
36.4369
36.4359
36.4348
36.4353
36.4392
36.4483
36.463
36.4836
36.5166
36.6016
36.437
36.4359
36.4348
36.4353
36.4393
36.4483
36.463
36.4837
36.5166
36.6017
36.437
36.436
36.4349
36.4353
36.4393
36.4484
36.4631
36.4837
36.5167
36.6017
32.4612
32.471
32.4928
32.5311
32.5928
32.6877
32.8292
33.0378
33.3489
33.8307
32.4612
32.4709
32.4927
32.531
32.5928
32.6876
32.8291
33.0377
33.3488
33.8306
32.4611
32.4709
32.4927
32.531
32.5927
32.6876
32.8291
33.0377
33.3488
33.8305
32.4611
32.4709
32.4926
32.531
32.5927
32.6875
32.829
33.0376
33.3487
33.8305
32.4611
32.4708
32.4926
32.531
32.5927
32.6875
32.829
33.0376
33.3487
33.8305
32.4611
32.4708
32.4926
32.5309
32.5927
32.6875
32.829
33.0376
33.3487
33.8305
32.4611
32.4708
32.4926
32.531
32.5927
32.6875
32.829
33.0376
33.3487
33.8305
32.4611
32.4709
32.4927
32.531
32.5927
32.6876
32.829
33.0376
33.3487
33.8305
32.4611
32.4709
32.4927
32.531
32.5928
32.6876
32.8291
33.0377
33.3488
33.8306
32.4612
32.4709
32.4927
32.5311
32.5928
32.6877
32.8291
33.0377
33.3489
33.8306
28.8158
28.8368
28.8826
28.9603
29.0818
29.264
29.5307
29.915
30.464
31.244
28.8158
28.8368
28.8825
28.9603
29.0817
29.2639
29.5306
29.915
30.4639
31.2439
28.8157
28.8368
28.8825
28.9602
29.0817
29.2639
29.5306
29.9149
30.4638
31.2439
28.8157
28.8367
28.8824
28.9602
29.0817
29.2639
29.5305
29.9149
30.4638
31.2438
28.8157
28.8367
28.8824
28.9602
29.0817
29.2638
29.5305
29.9149
30.4638
31.2438
28.8157
28.8367
28.8824
28.9602
29.0817
29.2638
29.5305
29.9149
30.4638
31.2438
28.8157
28.8367
28.8824
28.9602
29.0817
29.2639
29.5305
29.9149
30.4638
31.2438
28.8157
28.8367
28.8825
28.9602
29.0817
29.2639
29.5306
29.9149
30.4638
31.2439
28.8157
28.8368
28.8825
28.9602
29.0817
29.2639
29.5306
29.915
30.4639
31.2439
28.8158
28.8368
28.8825
28.9603
29.0818
29.264
29.5307
29.915
30.4639
31.244
25.4892
25.5207
25.5887
25.7028
25.879
26.1402
26.5182
27.055
27.8028
28.8212
25.4891
25.5207
25.5886
25.7028
25.879
26.1402
26.5182
27.0549
27.8028
28.8211
25.4891
25.5206
25.5886
25.7028
25.8789
26.1401
26.5181
27.0549
27.8027
28.821
25.489
25.5206
25.5886
25.7027
25.8789
26.1401
26.5181
27.0548
27.8027
28.821
25.489
25.5206
25.5885
25.7027
25.8789
26.1401
26.5181
27.0548
27.8027
28.821
25.489
25.5206
25.5885
25.7027
25.8789
26.1401
26.5181
27.0548
27.8027
28.821
25.489
25.5206
25.5886
25.7027
25.8789
26.1401
26.5181
27.0548
27.8027
28.821
25.489
25.5206
25.5886
25.7027
25.8789
26.1401
26.5181
27.0549
27.8027
28.821
25.4891
25.5207
25.5886
25.7028
25.879
26.1402
26.5182
27.0549
27.8028
28.8211
25.4891
25.5207
25.5887
25.7028
25.879
26.1402
26.5182
27.055
27.8028
28.8212
22.4667
22.5069
22.593
22.7365
22.9563
23.2803
23.7469
24.4072
25.3224
26.553
22.4667
22.5069
22.5929
22.7364
22.9563
23.2802
23.7469
24.4071
25.3224
26.5529
22.4666
22.5068
22.5929
22.7364
22.9562
23.2802
23.7468
24.4071
25.3223
26.5528
22.4666
22.5068
22.5928
22.7363
22.9562
23.2801
23.7468
24.4071
25.3223
26.5528
22.4666
22.5068
22.5928
22.7363
22.9562
23.2801
23.7468
24.407
25.3223
26.5528
22.4666
22.5068
22.5928
22.7363
22.9562
23.2801
23.7468
24.407
25.3223
26.5528
22.4666
22.5068
22.5928
22.7363
22.9562
23.2801
23.7468
24.4071
25.3223
26.5528
22.4666
22.5068
22.5929
22.7364
22.9562
23.2802
23.7468
24.4071
25.3223
26.5528
22.4667
22.5069
22.5929
22.7364
22.9563
23.2802
23.7469
24.4071
25.3224
26.5529
22.4667
22.5069
22.5929
22.7364
22.9563
23.2803
23.7469
24.4072
25.3224
26.553
19.7327
19.7787
19.8767
20.0392
20.2867
20.65
21.1734
21.9193
22.9693
24.4125
19.7326
19.7786
19.8766
20.0391
20.2867
20.6499
21.1734
21.9192
22.9693
24.4124
19.7326
19.7786
19.8766
20.0391
20.2866
20.6499
21.1733
21.9192
22.9692
24.4124
19.7326
19.7786
19.8766
20.0391
20.2866
20.6499
21.1733
21.9191
22.9692
24.4123
19.7325
19.7785
19.8765
20.0391
20.2866
20.6499
21.1733
21.9191
22.9692
24.4123
19.7325
19.7785
19.8765
20.0391
20.2866
20.6499
21.1733
21.9191
22.9692
24.4123
19.7326
19.7786
19.8765
20.0391
20.2866
20.6499
21.1733
21.9191
22.9692
24.4124
19.7326
19.7786
19.8766
20.0391
20.2866
20.6499
21.1733
21.9192
22.9692
24.4124
19.7326
19.7786
19.8766
20.0391
20.2867
20.6499
21.1734
21.9192
22.9693
24.4124
19.7326
19.7786
19.8767
20.0392
20.2867
20.65
21.1734
21.9193
22.9693
24.4125
17.271
17.3195
17.4223
17.5915
17.8471
18.2198
18.7562
19.5284
20.6524
22.3088
17.271
17.3195
17.4222
17.5914
17.8471
18.2198
18.7562
19.5284
20.6523
22.3087
17.271
17.3194
17.4222
17.5914
17.847
18.2198
18.7561
19.5283
20.6523
22.3087
17.2709
17.3194
17.4222
17.5914
17.847
18.2197
18.7561
19.5283
20.6523
22.3086
17.2709
17.3194
17.4222
17.5914
17.847
18.2197
18.7561
19.5283
20.6522
22.3086
17.2709
17.3194
17.4222
17.5914
17.847
18.2197
18.7561
19.5283
20.6522
22.3086
17.2709
17.3194
17.4222
17.5914
17.847
18.2197
18.7561
19.5283
20.6523
22.3087
17.271
17.3194
17.4222
17.5914
17.847
18.2198
18.7561
19.5284
20.6523
22.3087
17.271
17.3195
17.4222
17.5914
17.8471
18.2198
18.7562
19.5284
20.6523
22.3087
17.271
17.3195
17.4223
17.5915
17.8471
18.2199
18.7562
19.5285
20.6524
22.3088
15.067
15.1146
15.215
15.3783
15.6217
15.9708
16.4648
17.1689
18.2129
19.9355
15.0669
15.1146
15.2149
15.3783
15.6217
15.9708
16.4648
17.1688
18.2128
19.9354
15.0669
15.1146
15.2149
15.3783
15.6217
15.9707
16.4647
17.1688
18.2128
19.9354
15.0669
15.1145
15.2149
15.3782
15.6216
15.9707
16.4647
17.1688
18.2128
19.9354
15.0669
15.1145
15.2148
15.3782
15.6216
15.9707
16.4647
17.1688
18.2128
19.9354
15.0669
15.1145
15.2148
15.3782
15.6216
15.9707
16.4647
17.1688
18.2128
19.9354
15.0669
15.1145
15.2149
15.3782
15.6216
15.9707
16.4647
17.1688
18.2128
19.9354
15.0669
15.1146
15.2149
15.3783
15.6217
15.9707
16.4647
17.1688
18.2128
19.9354
15.0669
15.1146
15.2149
15.3783
15.6217
15.9708
16.4648
17.1689
18.2129
19.9355
15.067
15.1146
15.215
15.3783
15.6217
15.9708
16.4648
17.1689
18.2129
19.9355
40.7788
40.4768
41.7609
44.431
48.4815
54.0369
61.3578
70.906
83.5206
100.886
40.7787
40.4767
41.7608
44.4309
48.4814
54.0368
61.3577
70.9059
83.5205
100.886
40.7787
40.4767
41.7608
44.4308
48.4813
54.0367
61.3576
70.9058
83.5204
100.886
40.7786
40.4766
41.7607
44.4308
48.4812
54.0367
61.3576
70.9058
83.5204
100.886
40.7786
40.4766
41.7607
44.4307
48.4812
54.0366
61.3575
70.9057
83.5203
100.886
40.7786
40.4766
41.7607
44.4307
48.4812
54.0366
61.3575
70.9057
83.5203
100.886
40.7786
40.4766
41.7607
44.4307
48.4812
54.0366
61.3575
70.9058
83.5203
100.886
40.7787
40.4766
41.7607
44.4308
48.4812
54.0367
61.3576
70.9058
83.5204
100.886
40.7787
40.4767
41.7608
44.4308
48.4813
54.0367
61.3576
70.9059
83.5204
100.886
40.7788
40.4767
41.7608
44.4309
48.4814
54.0368
61.3577
70.9059
83.5205
100.886
39.0628
39.4448
40.9749
43.6928
47.6582
52.9897
59.8821
68.6206
79.5749
93.0451
39.0627
39.4447
40.9748
43.6927
47.6581
52.9896
59.8819
68.6205
79.5748
93.045
39.0626
39.4446
40.9748
43.6926
47.658
52.9896
59.8818
68.6204
79.5747
93.0449
39.0626
39.4446
40.9747
43.6926
47.6579
52.9895
59.8818
68.6203
79.5746
93.0448
39.0626
39.4445
40.9747
43.6925
47.6579
52.9895
59.8818
68.6203
79.5746
93.0448
39.0626
39.4445
40.9747
43.6925
47.6579
52.9895
59.8818
68.6203
79.5746
93.0448
39.0626
39.4445
40.9747
43.6925
47.6579
52.9895
59.8818
68.6203
79.5746
93.0448
39.0626
39.4446
40.9747
43.6926
47.658
52.9895
59.8818
68.6203
79.5746
93.0449
39.0627
39.4446
40.9748
43.6926
47.658
52.9896
59.8819
68.6204
79.5747
93.0449
39.0627
39.4447
40.9749
43.6927
47.6581
52.9897
59.882
68.6205
79.5748
93.045
36.8953
37.8219
39.602
42.3491
46.1497
51.0991
57.3106
64.8994
73.9183
84.1738
36.8953
37.8218
39.6019
42.349
46.1496
51.099
57.3104
64.8993
73.9182
84.1736
36.8952
37.8217
39.6019
42.349
46.1495
51.0989
57.3104
64.8992
73.9181
84.1736
36.8952
37.8217
39.6018
42.3489
46.1495
51.0989
57.3103
64.8992
73.9181
84.1735
36.8951
37.8217
39.6018
42.3489
46.1494
51.0988
57.3103
64.8991
73.918
84.1735
36.8951
37.8217
39.6018
42.3489
46.1494
51.0988
57.3103
64.8991
73.918
84.1735
36.8952
37.8217
39.6018
42.3489
46.1495
51.0988
57.3103
64.8992
73.9181
84.1735
36.8952
37.8217
39.6019
42.3489
46.1495
51.0989
57.3103
64.8992
73.9181
84.1735
36.8952
37.8218
39.6019
42.349
46.1496
51.099
57.3104
64.8993
73.9182
84.1736
36.8953
37.8219
39.602
42.3491
46.1497
51.0991
57.3105
64.8994
73.9183
84.1737
34.6141
35.9057
37.8634
40.5931
44.1715
48.6614
54.1096
60.5258
67.8287
75.7476
34.614
35.9056
37.8633
40.593
44.1714
48.6612
54.1095
60.5257
67.8286
75.7475
34.6139
35.9055
37.8633
40.5929
44.1714
48.6612
54.1094
60.5256
67.8285
75.7474
34.6139
35.9055
37.8632
40.5929
44.1713
48.6611
54.1093
60.5256
67.8285
75.7474
34.6139
35.9054
37.8632
40.5928
44.1713
48.6611
54.1093
60.5255
67.8284
75.7473
34.6138
35.9054
37.8632
40.5928
44.1713
48.6611
54.1093
60.5255
67.8284
75.7473
34.6139
35.9054
37.8632
40.5929
44.1713
48.6611
54.1093
60.5256
67.8285
75.7474
34.6139
35.9055
37.8632
40.5929
44.1714
48.6612
54.1094
60.5256
67.8285
75.7474
34.614
35.9055
37.8633
40.593
44.1714
48.6612
54.1094
60.5257
67.8286
75.7475
34.614
35.9056
37.8634
40.5931
44.1715
48.6613
54.1095
60.5258
67.8287
75.7476
32.3471
33.8844
35.9532
38.6272
41.9582
45.9765
50.6844
56.039
61.9225
68.106
32.347
33.8843
35.9531
38.6271
41.9581
45.9764
50.6843
56.0389
61.9224
68.1059
32.3469
33.8842
35.953
38.627
41.958
45.9763
50.6842
56.0388
61.9223
68.1058
32.3469
33.8842
35.953
38.627
41.958
45.9763
50.6842
56.0387
61.9223
68.1058
32.3469
33.8842
35.953
38.627
41.9579
45.9763
50.6841
56.0387
61.9222
68.1057
32.3469
33.8842
35.953
38.627
41.9579
45.9763
50.6841
56.0387
61.9222
68.1057
32.3469
33.8842
35.953
38.627
41.958
45.9763
50.6842
56.0387
61.9223
68.1058
32.3469
33.8842
35.953
38.627
41.958
45.9763
50.6842
56.0388
61.9223
68.1058
32.347
33.8843
35.9531
38.6271
41.9581
45.9764
50.6843
56.0388
61.9224
68.1059
32.347
33.8844
35.9532
38.6272
41.9582
45.9765
50.6844
56.039
61.9225
68.106
30.168
31.8912
34.0356
36.6399
39.7296
43.3087
47.3511
51.7904
56.5094
61.3365
30.1679
31.8911
34.0355
36.6398
39.7295
43.3086
47.351
51.7903
56.5093
61.3364
30.1679
31.891
34.0354
36.6398
39.7294
43.3085
47.3509
51.7902
56.5092
61.3363
30.1678
31.891
34.0354
36.6397
39.7294
43.3084
47.3509
51.7902
56.5091
61.3363
30.1678
31.891
34.0353
36.6397
39.7293
43.3084
47.3509
51.7902
56.5091
61.3362
30.1678
31.891
34.0353
36.6397
39.7293
43.3084
47.3509
51.7902
56.5091
61.3362
30.1678
31.891
34.0354
36.6397
39.7294
43.3084
47.3509
51.7902
56.5091
61.3363
30.1678
31.891
34.0354
36.6398
39.7294
43.3085
47.3509
51.7902
56.5092
61.3363
30.1679
31.8911
34.0355
36.6398
39.7295
43.3086
47.351
51.7903
56.5093
61.3364
30.168
31.8912
34.0356
36.6399
39.7296
43.3087
47.3511
51.7904
56.5094
61.3365
28.1309
30.0324
32.2516
34.7984
37.6787
40.8784
44.3531
48.0224
51.7726
55.4748
28.1308
30.0323
32.2515
34.7983
37.6786
40.8783
44.353
48.0222
51.7725
55.4747
28.1308
30.0323
32.2515
34.7982
37.6785
40.8782
44.3529
48.0222
51.7724
55.4746
28.1307
30.0322
32.2514
34.7982
37.6784
40.8782
44.3528
48.0221
51.7724
55.4745
28.1307
30.0322
32.2514
34.7982
37.6784
40.8781
44.3528
48.0221
51.7724
55.4745
28.1307
30.0322
32.2514
34.7982
37.6784
40.8781
44.3528
48.0221
51.7724
55.4745
28.1307
30.0322
32.2514
34.7982
37.6785
40.8782
44.3528
48.0221
51.7724
55.4745
28.1308
30.0323
32.2515
34.7982
37.6785
40.8782
44.3529
48.0222
51.7724
55.4746
28.1308
30.0323
32.2515
34.7983
37.6786
40.8783
44.353
48.0223
51.7725
55.4747
28.1309
30.0324
32.2516
34.7984
37.6787
40.8784
44.3531
48.0224
51.7726
55.4748
26.2817
28.4057
30.7284
33.2493
35.9701
38.8683
41.8858
44.9253
47.8589
50.5625
26.2816
28.4056
30.7283
33.2492
35.97
38.8682
41.8857
44.9252
47.8588
50.5624
26.2816
28.4055
30.7282
33.2492
35.9699
38.8681
41.8856
44.9251
47.8587
50.5623
26.2816
28.4055
30.7282
33.2491
35.9698
38.8681
41.8856
44.925
47.8587
50.5623
26.2815
28.4055
30.7282
33.2491
35.9698
38.868
41.8855
44.925
47.8586
50.5622
26.2815
28.4055
30.7282
33.2491
35.9698
38.868
41.8855
44.925
47.8587
50.5622
26.2816
28.4055
30.7282
33.2491
35.9699
38.8681
41.8856
44.925
47.8587
50.5623
26.2816
28.4055
30.7282
33.2492
35.9699
38.8681
41.8856
44.9251
47.8587
50.5623
26.2816
28.4056
30.7283
33.2492
35.97
38.8682
41.8857
44.9252
47.8588
50.5624
26.2817
28.4057
30.7284
33.2493
35.9701
38.8683
41.8858
44.9253
47.8589
50.5625
24.6796
27.1226
29.5894
32.1212
34.7407
37.4285
40.1154
42.6783
44.9402
46.6977
24.6796
27.1225
29.5893
32.1211
34.7406
37.4284
40.1153
42.6782
44.9401
46.6976
24.6795
27.1225
29.5893
32.1211
34.7405
37.4283
40.1153
42.6781
44.94
46.6975
24.6795
27.1224
29.5893
32.121
34.7405
37.4283
40.1152
42.678
44.94
46.6975
24.6795
27.1224
29.5892
32.121
34.7405
37.4282
40.1152
42.678
44.94
46.6975
24.6795
27.1224
29.5892
32.121
34.7405
37.4282
40.1152
42.678
44.94
46.6975
24.6795
27.1224
29.5893
32.121
34.7405
37.4283
40.1152
42.6781
44.94
46.6975
24.6795
27.1225
29.5893
32.1211
34.7405
37.4283
40.1153
42.6781
44.94
46.6976
24.6796
27.1225
29.5894
32.1211
34.7406
37.4284
40.1154
42.6782
44.9401
46.6976
24.6797
27.1226
29.5895
32.1212
34.7407
37.4285
40.1155
42.6783
44.9402
46.6978
23.4957
26.3506
28.9627
31.5219
34.0957
36.6748
39.183
41.4698
43.282
44.1863
23.4956
26.3505
28.9627
31.5218
34.0956
36.6747
39.183
41.4698
43.2819
44.1862
23.4956
26.3505
28.9626
31.5218
34.0955
36.6746
39.1829
41.4697
43.2819
44.1861
23.4955
26.3504
28.9626
31.5217
34.0955
36.6746
39.1829
41.4697
43.2818
44.1861
23.4955
26.3504
28.9625
31.5217
34.0955
36.6746
39.1828
41.4696
43.2818
44.1861
23.4955
26.3504
28.9626
31.5217
34.0955
36.6746
39.1828
41.4696
43.2818
44.1861
23.4955
26.3504
28.9626
31.5217
34.0955
36.6746
39.1829
41.4697
43.2818
44.1861
23.4956
26.3505
28.9626
31.5218
34.0956
36.6747
39.1829
41.4697
43.2819
44.1861
23.4956
26.3505
28.9627
31.5219
34.0956
36.6747
39.183
41.4698
43.282
44.1862
23.4957
26.3506
28.9628
31.5219
34.0957
36.6748
39.1831
41.4699
43.2821
44.1863
126.915
139.366
147.051
152.467
156.498
159.541
161.806
163.419
164.458
164.966
126.915
139.366
147.051
152.467
156.498
159.541
161.806
163.419
164.457
164.966
126.914
139.366
147.051
152.467
156.498
159.541
161.806
163.419
164.457
164.966
126.914
139.366
147.051
152.467
156.498
159.541
161.806
163.419
164.457
164.966
126.914
139.366
147.051
152.467
156.498
159.541
161.806
163.419
164.457
164.966
126.914
139.366
147.051
152.467
156.498
159.541
161.806
163.419
164.457
164.966
126.914
139.366
147.051
152.467
156.498
159.541
161.806
163.419
164.457
164.966
126.914
139.366
147.051
152.467
156.498
159.541
161.806
163.419
164.457
164.966
126.914
139.366
147.051
152.467
156.498
159.541
161.806
163.419
164.457
164.966
126.915
139.366
147.051
152.467
156.498
159.541
161.806
163.419
164.458
164.966
108.371
119.553
127.497
133.293
137.619
140.866
143.27
144.974
146.067
146.601
108.371
119.553
127.497
133.293
137.618
140.866
143.27
144.974
146.067
146.601
108.37
119.553
127.497
133.293
137.618
140.866
143.269
144.973
146.067
146.601
108.37
119.553
127.497
133.293
137.618
140.866
143.269
144.973
146.067
146.601
108.37
119.553
127.497
133.293
137.618
140.866
143.269
144.973
146.067
146.601
108.37
119.553
127.497
133.293
137.618
140.866
143.269
144.973
146.067
146.601
108.37
119.553
127.497
133.293
137.618
140.866
143.269
144.973
146.067
146.601
108.37
119.553
127.497
133.293
137.618
140.866
143.269
144.973
146.067
146.601
108.371
119.553
127.497
133.293
137.618
140.866
143.27
144.974
146.067
146.601
108.371
119.553
127.497
133.293
137.619
140.866
143.27
144.974
146.067
146.602
94.8092
103.832
110.955
116.465
120.7
123.926
126.331
128.042
129.141
129.68
94.8091
103.831
110.955
116.465
120.7
123.926
126.331
128.042
129.141
129.679
94.809
103.831
110.955
116.464
120.7
123.926
126.331
128.042
129.141
129.679
94.8089
103.831
110.955
116.464
120.7
123.926
126.331
128.042
129.141
129.679
94.8089
103.831
110.955
116.464
120.7
123.926
126.331
128.042
129.141
129.679
94.8089
103.831
110.955
116.464
120.7
123.926
126.331
128.042
129.141
129.679
94.8089
103.831
110.955
116.464
120.7
123.926
126.331
128.042
129.141
129.679
94.809
103.831
110.955
116.464
120.7
123.926
126.331
128.042
129.141
129.679
94.8091
103.831
110.955
116.465
120.7
123.926
126.331
128.042
129.141
129.679
94.8092
103.832
110.955
116.465
120.7
123.926
126.331
128.042
129.142
129.68
83.7039
90.8673
96.8977
101.794
105.684
108.71
110.997
112.637
113.696
114.216
83.7038
90.8672
96.8975
101.794
105.684
108.71
110.996
112.637
113.696
114.216
83.7037
90.8671
96.8974
101.794
105.683
108.71
110.996
112.637
113.696
114.216
83.7037
90.867
96.8974
101.794
105.683
108.71
110.996
112.636
113.696
114.216
83.7036
90.867
96.8973
101.794
105.683
108.71
110.996
112.636
113.696
114.216
83.7036
90.867
96.8973
101.794
105.683
108.71
110.996
112.636
113.696
114.216
83.7036
90.867
96.8974
101.794
105.683
108.71
110.996
112.636
113.696
114.216
83.7037
90.8671
96.8974
101.794
105.684
108.71
110.996
112.637
113.696
114.216
83.7038
90.8672
96.8975
101.794
105.684
108.71
110.996
112.637
113.696
114.216
83.7039
90.8673
96.8977
101.794
105.684
108.71
110.997
112.637
113.696
114.216
74.2327
79.8937
84.8461
89.0157
92.4258
95.138
97.2197
98.7292
99.7112
100.195
74.2326
79.8935
84.8459
89.0155
92.4256
95.1379
97.2195
98.7291
99.7111
100.195
74.2325
79.8935
84.8458
89.0154
92.4255
95.1378
97.2194
98.729
99.711
100.195
74.2324
79.8934
84.8458
89.0154
92.4255
95.1377
97.2194
98.7289
99.7109
100.195
74.2324
79.8934
84.8457
89.0154
92.4254
95.1377
97.2193
98.7289
99.7109
100.195
74.2324
79.8934
84.8457
89.0154
92.4254
95.1377
97.2193
98.7289
99.7109
100.195
74.2324
79.8934
84.8458
89.0154
92.4255
95.1377
97.2194
98.729
99.711
100.195
74.2325
79.8935
84.8458
89.0155
92.4255
95.1378
97.2195
98.729
99.711
100.195
74.2326
79.8935
84.8459
89.0156
92.4256
95.1379
97.2196
98.7291
99.7111
100.195
74.2327
79.8937
84.8461
89.0157
92.4258
95.138
97.2197
98.7293
99.7113
100.195
66.0616
70.4796
74.4425
77.8741
80.7539
83.0936
84.9192
86.2592
87.138
87.5729
66.0615
70.4794
74.4424
77.874
80.7538
83.0935
84.9191
86.2591
87.1378
87.5728
66.0614
70.4793
74.4423
77.8739
80.7537
83.0934
84.919
86.259
87.1378
87.5727
66.0614
70.4793
74.4422
77.8739
80.7536
83.0933
84.919
86.2589
87.1377
87.5727
66.0613
70.4792
74.4422
77.8738
80.7536
83.0933
84.9189
86.2589
87.1377
87.5727
66.0613
70.4793
74.4422
77.8738
80.7536
83.0933
84.919
86.2589
87.1377
87.5727
66.0614
70.4793
74.4422
77.8739
80.7536
83.0934
84.919
86.259
87.1377
87.5727
66.0614
70.4793
74.4423
77.8739
80.7537
83.0934
84.9191
86.259
87.1378
87.5728
66.0615
70.4794
74.4424
77.874
80.7538
83.0935
84.9192
86.2591
87.1379
87.5729
66.0616
70.4796
74.4425
77.8742
80.7539
83.0937
84.9193
86.2593
87.138
87.573
59.0215
62.3596
65.4228
68.1488
70.4964
72.4461
73.9942
75.1453
75.9069
76.2859
59.0214
62.3595
65.4227
68.1487
70.4963
72.446
73.9941
75.1452
75.9068
76.2858
59.0213
62.3594
65.4226
68.1486
70.4962
72.4459
73.994
75.1451
75.9067
76.2857
59.0212
62.3594
65.4225
68.1485
70.4961
72.4458
73.9939
75.145
75.9067
76.2857
59.0212
62.3593
65.4225
68.1485
70.4961
72.4458
73.9939
75.145
75.9067
76.2857
59.0212
62.3593
65.4225
68.1485
70.4961
72.4458
73.9939
75.145
75.9067
76.2857
59.0212
62.3594
65.4225
68.1485
70.4961
72.4459
73.9939
75.145
75.9067
76.2857
59.0213
62.3594
65.4226
68.1486
70.4962
72.4459
73.994
75.1451
75.9068
76.2858
59.0214
62.3595
65.4227
68.1487
70.4963
72.446
73.9941
75.1452
75.9069
76.2859
59.0215
62.3597
65.4228
68.1488
70.4964
72.4462
73.9942
75.1453
75.907
76.286
52.9997
55.338
57.5752
59.6473
61.4912
63.0624
64.3345
65.294
65.9351