/*--------------------------------*- C++ -*----------------------------------*\
  =========                 |
  \\      /  F ield         | OpenFOAM: The Open Source CFD Toolbox
   \\    /   O peration     | Website:  https://openfoam.org
    \\  /    A nd           | Version:  6
     \\/     M anipulation  |
\*---------------------------------------------------------------------------*/
FoamFile
{
    version     2.0;
    format      ascii;
    class       volScalarField;
    location    "0.07";
    object      T;
}
// * * * * * * * * * * * * * * * * * * * * * * * * * * * * * * * * * * * * * //

dimensions      [0 0 0 1 0 0 0];

internalField   nonuniform List<scalar> 
7000
(
98.156
98.1559
98.1558
98.1557
98.1557
98.1557
98.1557
98.1557
98.1558
98.1559
98.1559
98.1557
98.1556
98.1555
98.1555
98.1555
98.1555
98.1556
98.1557
98.1557
98.1558
98.1556
98.1555
98.1554
98.1554
98.1554
98.1554
98.1555
98.1556
98.1557
98.1557
98.1555
98.1554
98.1554
98.1554
98.1554
98.1554
98.1554
98.1555
98.1556
98.1557
98.1555
98.1554
98.1554
98.1553
98.1553
98.1554
98.1554
98.1555
98.1556
98.1557
98.1555
98.1554
98.1554
98.1553
98.1554
98.1554
98.1554
98.1555
98.1556
98.1557
98.1555
98.1555
98.1554
98.1554
98.1554
98.1554
98.1555
98.1555
98.1556
98.1557
98.1556
98.1555
98.1554
98.1554
98.1554
98.1555
98.1555
98.1556
98.1557
98.1558
98.1557
98.1556
98.1555
98.1555
98.1555
98.1555
98.1556
98.1557
98.1558
98.1559
98.1557
98.1557
98.1556
98.1556
98.1556
98.1556
98.1557
98.1558
98.1559
75.3322
75.3318
75.3316
75.3314
75.3314
75.3314
75.3314
75.3315
75.3317
75.3319
75.3318
75.3314
75.3312
75.331
75.331
75.331
75.331
75.3312
75.3314
75.3316
75.3316
75.3312
75.3309
75.3308
75.3307
75.3307
75.3308
75.3309
75.3311
75.3314
75.3314
75.331
75.3308
75.3306
75.3306
75.3306
75.3307
75.3308
75.331
75.3313
75.3314
75.331
75.3307
75.3306
75.3305
75.3305
75.3306
75.3308
75.331
75.3312
75.3314
75.331
75.3307
75.3306
75.3305
75.3305
75.3306
75.3308
75.331
75.3313
75.3314
75.331
75.3308
75.3307
75.3306
75.3306
75.3307
75.3309
75.3311
75.3314
75.3315
75.3312
75.3309
75.3308
75.3308
75.3308
75.3309
75.331
75.3312
75.3315
75.3317
75.3314
75.3311
75.331
75.331
75.331
75.3311
75.3312
75.3315
75.3317
75.3319
75.3316
75.3314
75.3313
75.3313
75.3313
75.3314
75.3315
75.3317
75.332
54.9113
54.9108
54.9104
54.9102
54.9101
54.9101
54.9102
54.9104
54.9106
54.9109
54.9108
54.9103
54.9099
54.9097
54.9096
54.9096
54.9097
54.9099
54.9102
54.9106
54.9104
54.9099
54.9096
54.9094
54.9093
54.9093
54.9094
54.9096
54.9099
54.9103
54.9102
54.9097
54.9094
54.9092
54.9091
54.9091
54.9092
54.9094
54.9097
54.9102
54.9101
54.9096
54.9093
54.9091
54.909
54.909
54.9091
54.9093
54.9097
54.9101
54.9101
54.9096
54.9093
54.9091
54.909
54.909
54.9092
54.9094
54.9097
54.9101
54.9102
54.9097
54.9094
54.9092
54.9091
54.9092
54.9093
54.9095
54.9098
54.9103
54.9104
54.9099
54.9096
54.9094
54.9094
54.9094
54.9095
54.9097
54.9101
54.9105
54.9107
54.9102
54.9099
54.9098
54.9097
54.9097
54.9098
54.9101
54.9104
54.9109
54.9109
54.9106
54.9103
54.9102
54.9101
54.9102
54.9103
54.9105
54.9109
54.9113
37.9327
37.9322
37.9318
37.9316
37.9315
37.9315
37.9316
37.9318
37.9321
37.9325
37.9322
37.9317
37.9313
37.9311
37.931
37.931
37.9311
37.9313
37.9317
37.9321
37.9318
37.9313
37.9309
37.9307
37.9306
37.9306
37.9308
37.931
37.9314
37.9319
37.9316
37.9311
37.9307
37.9305
37.9304
37.9304
37.9306
37.9308
37.9312
37.9317
37.9315
37.931
37.9306
37.9304
37.9303
37.9304
37.9305
37.9307
37.9311
37.9316
37.9315
37.931
37.9307
37.9304
37.9304
37.9304
37.9305
37.9308
37.9312
37.9317
37.9316
37.9311
37.9308
37.9306
37.9305
37.9305
37.9307
37.9309
37.9313
37.9318
37.9319
37.9314
37.931
37.9308
37.9308
37.9308
37.9309
37.9312
37.9316
37.9321
37.9322
37.9317
37.9314
37.9312
37.9312
37.9312
37.9313
37.9316
37.932
37.9325
37.9325
37.9322
37.9319
37.9318
37.9317
37.9317
37.9319
37.9322
37.9325
37.9331
24.7999
24.7994
24.7991
24.7989
24.7988
24.7988
24.7989
24.7991
24.7993
24.7997
24.7994
24.7989
24.7986
24.7984
24.7983
24.7983
24.7984
24.7986
24.7989
24.7994
24.7991
24.7986
24.7983
24.7981
24.798
24.798
24.7981
24.7983
24.7986
24.7991
24.7989
24.7984
24.7981
24.7979
24.7978
24.7978
24.7979
24.7981
24.7985
24.799
24.7988
24.7983
24.798
24.7978
24.7977
24.7977
24.7979
24.7981
24.7984
24.7989
24.7988
24.7983
24.798
24.7978
24.7978
24.7978
24.7979
24.7981
24.7985
24.799
24.7989
24.7985
24.7982
24.798
24.7979
24.7979
24.798
24.7983
24.7986
24.7991
24.7992
24.7987
24.7984
24.7982
24.7982
24.7982
24.7983
24.7985
24.7989
24.7994
24.7995
24.7991
24.7988
24.7986
24.7986
24.7986
24.7987
24.799
24.7993
24.7998
24.7999
24.7996
24.7993
24.7992
24.7991
24.7992
24.7993
24.7995
24.7999
24.8004
15.3352
15.3348
15.3345
15.3344
15.3343
15.3343
15.3343
15.3343
15.3344
15.3347
15.3348
15.3344
15.3342
15.334
15.3339
15.3339
15.3339
15.334
15.3341
15.3344
15.3345
15.3342
15.3339
15.3337
15.3336
15.3336
15.3337
15.3337
15.3339
15.3342
15.3344
15.334
15.3337
15.3336
15.3335
15.3335
15.3335
15.3336
15.3338
15.3341
15.3343
15.3339
15.3337
15.3335
15.3334
15.3334
15.3335
15.3336
15.3337
15.3341
15.3343
15.334
15.3337
15.3335
15.3335
15.3335
15.3335
15.3336
15.3338
15.3341
15.3344
15.3341
15.3338
15.3337
15.3336
15.3336
15.3336
15.3337
15.3339
15.3343
15.3346
15.3343
15.334
15.3339
15.3338
15.3338
15.3339
15.334
15.3342
15.3345
15.3349
15.3346
15.3344
15.3342
15.3342
15.3342
15.3342
15.3344
15.3345
15.3349
15.3353
15.335
15.3349
15.3347
15.3347
15.3347
15.3347
15.3348
15.335
15.3354
8.9683
8.96801
8.96781
8.96767
8.96758
8.96749
8.96736
8.96711
8.96677
8.96654
8.96801
8.96773
8.96753
8.96739
8.9673
8.96722
8.96708
8.96685
8.96652
8.96636
8.96782
8.96754
8.96733
8.9672
8.96711
8.96703
8.9669
8.96667
8.96637
8.96623
8.9677
8.96742
8.96722
8.96709
8.967
8.96692
8.96679
8.96657
8.96627
8.96615
8.96765
8.96737
8.96717
8.96704
8.96696
8.96688
8.96676
8.96654
8.96625
8.96612
8.96768
8.9674
8.9672
8.96707
8.96699
8.96691
8.9668
8.96658
8.96629
8.96617
8.96777
8.96749
8.9673
8.96718
8.9671
8.96702
8.96691
8.9667
8.96641
8.96628
8.96793
8.96766
8.96748
8.96736
8.96729
8.96722
8.96711
8.96689
8.96661
8.96648
8.96817
8.96792
8.96776
8.96765
8.96758
8.96751
8.9674
8.96719
8.9669
8.96678
8.96846
8.96828
8.96814
8.96804
8.96797
8.96791
8.9678
8.96759
8.9673
8.96718
4.96244
4.96224
4.9621
4.96198
4.96186
4.96163
4.96114
4.96016
4.95858
4.957
4.96225
4.96205
4.96191
4.96179
4.96167
4.96144
4.96096
4.95999
4.95842
4.95688
4.96212
4.96192
4.96178
4.96167
4.96154
4.96132
4.96084
4.95987
4.95832
4.95679
4.96204
4.96184
4.9617
4.96159
4.96146
4.96124
4.96077
4.95981
4.95826
4.95674
4.96201
4.96182
4.96167
4.96156
4.96144
4.96122
4.96075
4.95979
4.95824
4.95672
4.96203
4.96184
4.9617
4.96159
4.96147
4.96125
4.96077
4.95982
4.95828
4.95676
4.96209
4.96191
4.96177
4.96166
4.96155
4.96133
4.96086
4.9599
4.95836
4.95684
4.96222
4.96203
4.96191
4.9618
4.96169
4.96147
4.961
4.96005
4.95851
4.95699
4.96239
4.96223
4.96211
4.96201
4.9619
4.96169
4.96122
4.96026
4.95872
4.95721
4.96261
4.96249
4.96239
4.9623
4.96219
4.96198
4.96151
4.96056
4.95902
4.9575
2.60007
2.59995
2.59984
2.59973
2.59953
2.59905
2.59789
2.59528
2.59037
2.58414
2.59995
2.59983
2.59973
2.59961
2.59941
2.59894
2.59778
2.59517
2.59027
2.58407
2.59987
2.59975
2.59964
2.59953
2.59933
2.59886
2.5977
2.5951
2.59021
2.58401
2.59982
2.5997
2.5996
2.59949
2.59929
2.59882
2.59766
2.59506
2.59017
2.58398
2.59981
2.59968
2.59958
2.59947
2.59927
2.5988
2.59765
2.59505
2.59016
2.58398
2.59982
2.5997
2.5996
2.59949
2.59929
2.59882
2.59767
2.59507
2.59019
2.584
2.59987
2.59975
2.59965
2.59954
2.59935
2.59888
2.59772
2.59513
2.59025
2.58406
2.59995
2.59983
2.59974
2.59964
2.59944
2.59898
2.59782
2.59523
2.59034
2.58415
2.60007
2.59996
2.59988
2.59978
2.59958
2.59912
2.59797
2.59537
2.59049
2.5843
2.60022
2.60014
2.60007
2.59997
2.59978
2.59931
2.59816
2.59557
2.59068
2.5845
1.29133
1.29125
1.29118
1.29105
1.29075
1.28994
1.28772
1.28203
1.26893
1.24583
1.29126
1.29119
1.29111
1.29098
1.29069
1.28987
1.28766
1.28197
1.26888
1.24579
1.29122
1.29114
1.29106
1.29094
1.29064
1.28983
1.28761
1.28193
1.26884
1.24576
1.29119
1.29111
1.29103
1.29091
1.29062
1.2898
1.28759
1.28191
1.26882
1.24574
1.29118
1.2911
1.29103
1.2909
1.29061
1.2898
1.28758
1.2819
1.26882
1.24574
1.29119
1.29111
1.29104
1.29092
1.29062
1.28981
1.2876
1.28192
1.26883
1.24575
1.29122
1.29114
1.29107
1.29095
1.29066
1.28984
1.28763
1.28195
1.26887
1.24579
1.29127
1.2912
1.29113
1.29101
1.29072
1.2899
1.28769
1.28201
1.26893
1.24585
1.29135
1.29128
1.29121
1.2911
1.2908
1.28999
1.28778
1.2821
1.26902
1.24593
1.29144
1.29139
1.29133
1.29122
1.29093
1.29012
1.2879
1.28222
1.26914
1.24605
0.608685
0.608637
0.608576
0.608444
0.608079
0.607
0.603811
0.594432
0.566424
0.478522
0.608647
0.608601
0.608539
0.608408
0.608043
0.606964
0.603776
0.594399
0.566396
0.478504
0.608622
0.608575
0.608514
0.608383
0.608019
0.60694
0.603753
0.594378
0.566378
0.478491
0.608608
0.608561
0.6085
0.608369
0.608005
0.606927
0.60374
0.594367
0.566368
0.478483
0.608604
0.608557
0.608496
0.608366
0.608002
0.606924
0.603738
0.594365
0.566367
0.478483
0.60861
0.608564
0.608503
0.608373
0.60801
0.606932
0.603746
0.594373
0.566375
0.47849
0.608628
0.608582
0.608522
0.608393
0.60803
0.606952
0.603767
0.594394
0.566395
0.478507
0.608658
0.608614
0.608555
0.608427
0.608064
0.606987
0.603802
0.594428
0.566427
0.478534
0.608702
0.608661
0.608605
0.608477
0.608115
0.607039
0.603853
0.594479
0.566476
0.478576
0.608758
0.608726
0.608673
0.608547
0.608186
0.607109
0.603924
0.594549
0.566543
0.478634
0.272674
0.272645
0.272598
0.272481
0.272144
0.271159
0.268356
0.260666
0.240578
0.192176
0.272655
0.272627
0.27258
0.272463
0.272126
0.271142
0.268339
0.26065
0.240565
0.192167
0.272642
0.272614
0.272567
0.27245
0.272114
0.27113
0.268327
0.26064
0.240556
0.192161
0.272635
0.272607
0.27256
0.272443
0.272107
0.271123
0.268321
0.260634
0.240551
0.192158
0.272633
0.272605
0.272558
0.272442
0.272106
0.271122
0.26832
0.260634
0.240551
0.192158
0.272637
0.272609
0.272562
0.272446
0.27211
0.271126
0.268325
0.260638
0.240556
0.192161
0.272647
0.272619
0.272573
0.272457
0.272121
0.271138
0.268336
0.260649
0.240566
0.192169
0.272663
0.272636
0.272591
0.272475
0.27214
0.271156
0.268355
0.260667
0.240583
0.192183
0.272687
0.272662
0.272618
0.272503
0.272167
0.271184
0.268382
0.260694
0.240607
0.192203
0.272718
0.272698
0.272655
0.272541
0.272206
0.271222
0.26842
0.260731
0.240642
0.192232
0.116257
0.11624
0.116208
0.116121
0.115875
0.115186
0.113346
0.108737
0.0981699
0.0770739
0.116248
0.116231
0.116199
0.116112
0.115867
0.115178
0.113338
0.10873
0.0981639
0.0770697
0.116242
0.116225
0.116193
0.116107
0.115861
0.115172
0.113333
0.108725
0.0981599
0.0770668
0.116239
0.116222
0.11619
0.116103
0.115858
0.115169
0.11333
0.108723
0.0981579
0.0770654
0.116238
0.116221
0.116189
0.116103
0.115857
0.115169
0.11333
0.108722
0.0981579
0.0770655
0.11624
0.116224
0.116191
0.116105
0.11586
0.115171
0.113332
0.108725
0.0981601
0.0770673
0.116245
0.116229
0.116196
0.116111
0.115865
0.115177
0.113338
0.10873
0.0981651
0.0770713
0.116253
0.116238
0.116206
0.11612
0.115875
0.115187
0.113347
0.108739
0.0981733
0.0770779
0.116266
0.116251
0.116219
0.116134
0.115889
0.115201
0.113361
0.108753
0.0981855
0.0770877
0.116281
0.116269
0.116238
0.116153
0.115908
0.11522
0.11338
0.108771
0.0982023
0.0771015
0.0472457
0.0472365
0.0472163
0.047162
0.0470121
0.0466122
0.0456108
0.0433022
0.0385385
0.0301843
0.0472417
0.0472326
0.0472123
0.0471581
0.0470082
0.0466084
0.0456072
0.043299
0.0385359
0.0301824
0.047239
0.0472299
0.0472097
0.0471555
0.0470056
0.0466059
0.0456049
0.0432969
0.0385341
0.0301812
0.0472375
0.0472284
0.0472082
0.0471541
0.0470042
0.0466046
0.0456036
0.0432958
0.0385333
0.0301806
0.0472372
0.0472282
0.047208
0.0471539
0.0470041
0.0466045
0.0456036
0.0432958
0.0385333
0.0301807
0.0472383
0.0472292
0.0472091
0.047155
0.0470052
0.0466057
0.0456048
0.043297
0.0385344
0.0301816
0.0472407
0.0472317
0.0472117
0.0471577
0.047008
0.0466084
0.0456075
0.0432995
0.0385367
0.0301834
0.0472448
0.047236
0.0472161
0.0471622
0.0470125
0.0466129
0.0456119
0.0433038
0.0385405
0.0301865
0.0472507
0.0472423
0.0472226
0.0471688
0.0470192
0.0466196
0.0456185
0.0433101
0.0385462
0.030191
0.0472583
0.0472509
0.0472317
0.047178
0.0470284
0.0466288
0.0456275
0.0433187
0.038554
0.0301974
0.0183283
0.0183236
0.0183124
0.0182826
0.018203
0.0180007
0.0175233
0.0164977
0.0145495
0.0114293
0.0183266
0.0183219
0.0183107
0.0182809
0.0182013
0.0179991
0.0175218
0.0164963
0.0145484
0.0114285
0.0183255
0.0183208
0.0183096
0.0182798
0.0182002
0.0179981
0.0175208
0.0164954
0.0145477
0.011428
0.0183248
0.0183201
0.018309
0.0182792
0.0181997
0.0179975
0.0175203
0.016495
0.0145473
0.0114277
0.0183248
0.0183201
0.0183089
0.0182792
0.0181996
0.0179975
0.0175203
0.016495
0.0145474
0.0114278
0.0183252
0.0183206
0.0183094
0.0182797
0.0182002
0.0179981
0.0175208
0.0164956
0.0145479
0.0114282
0.0183264
0.0183217
0.0183106
0.0182809
0.0182014
0.0179993
0.0175221
0.0164967
0.0145489
0.011429
0.0183282
0.0183236
0.0183126
0.0182829
0.0182035
0.0180013
0.0175241
0.0164986
0.0145506
0.0114304
0.0183309
0.0183265
0.0183156
0.018286
0.0182065
0.0180044
0.017527
0.0165014
0.0145531
0.0114324
0.0183343
0.0183304
0.0183196
0.0182901
0.0182106
0.0180085
0.017531
0.0165052
0.0145565
0.0114352
0.00679738
0.00679511
0.00678953
0.00677487
0.00673707
0.00664521
0.00643936
0.00602256
0.00528072
0.0041674
0.00679669
0.00679443
0.00678885
0.0067742
0.00673642
0.00664458
0.00643876
0.00602203
0.00528029
0.00416708
0.00679624
0.00679398
0.0067884
0.00677376
0.00673598
0.00664416
0.00643837
0.00602169
0.00528001
0.00416687
0.00679599
0.00679374
0.00678817
0.00677352
0.00673576
0.00664395
0.00643818
0.00602152
0.00527988
0.00416678
0.00679597
0.00679372
0.00678815
0.00677352
0.00673575
0.00664395
0.00643819
0.00602154
0.0052799
0.00416681
0.00679619
0.00679394
0.00678838
0.00677375
0.00673599
0.0066442
0.00643843
0.00602177
0.00528011
0.00416698
0.00679667
0.00679444
0.00678889
0.00677427
0.00673652
0.00664472
0.00643895
0.00602226
0.00528055
0.00416733
0.00679747
0.00679526
0.00678974
0.00677514
0.0067374
0.0066456
0.0064398
0.00602306
0.00528125
0.0041679
0.00679862
0.00679648
0.006791
0.00677643
0.00673869
0.00664688
0.00644105
0.00602423
0.0052823
0.00416875
0.0068001
0.00679816
0.00679275
0.00677819
0.00674046
0.00664863
0.00644275
0.00602584
0.00528373
0.00416992
0.00241353
0.00241251
0.00240996
0.0024034
0.00238704
0.00234884
0.00226699
0.00210928
0.00184269
0.0014613
0.00241326
0.00241225
0.00240971
0.00240315
0.00238679
0.00234859
0.00226677
0.00210908
0.00184253
0.00146118
0.00241309
0.00241208
0.00240953
0.00240298
0.00238662
0.00234843
0.00226662
0.00210895
0.00184242
0.0014611
0.002413
0.00241199
0.00240945
0.00240289
0.00238654
0.00234836
0.00226655
0.00210889
0.00184237
0.00146107
0.00241299
0.00241199
0.00240944
0.00240289
0.00238654
0.00234836
0.00226656
0.0021089
0.00184239
0.00146108
0.00241308
0.00241208
0.00240954
0.00240299
0.00238665
0.00234846
0.00226666
0.00210899
0.00184247
0.00146115
0.00241328
0.00241228
0.00240975
0.00240321
0.00238686
0.00234868
0.00226687
0.00210919
0.00184265
0.00146129
0.00241361
0.00241262
0.0024101
0.00240356
0.00238722
0.00234903
0.00226721
0.00210951
0.00184293
0.00146152
0.00241408
0.00241311
0.00241061
0.00240408
0.00238774
0.00234955
0.00226771
0.00210998
0.00184335
0.00146186
0.00241468
0.0024138
0.00241132
0.00240479
0.00238845
0.00235025
0.0022684
0.00211062
0.00184392
0.00146233
0.000821615
0.000821192
0.000820119
0.000817412
0.000810864
0.000796114
0.00076573
0.00070956
0.00061849
0.000492877
0.000821519
0.000821097
0.000820024
0.000817318
0.000810773
0.000796026
0.000765648
0.000709487
0.00061843
0.000492833
0.000821455
0.000821034
0.000819962
0.000817256
0.000810713
0.000795968
0.000765595
0.000709441
0.000618393
0.000492804
0.000821423
0.000821002
0.000819931
0.000817226
0.000810683
0.000795941
0.00076557
0.000709419
0.000618376
0.000492792
0.000821423
0.000821003
0.000819932
0.000817228
0.000810686
0.000795945
0.000765575
0.000709425
0.000618382
0.000492798
0.000821459
0.000821039
0.00081997
0.000817267
0.000810726
0.000795985
0.000765614
0.000709462
0.000618415
0.000492826
0.000821537
0.000821119
0.000820051
0.00081735
0.00081081
0.000796068
0.000765695
0.000709538
0.000618482
0.000492881
0.000821664
0.000821249
0.000820186
0.000817487
0.000810947
0.000796203
0.000765826
0.00070966
0.00061859
0.000492969
0.000821845
0.000821441
0.000820383
0.000817687
0.000811148
0.000796402
0.000766018
0.00070984
0.000618749
0.000493099
0.00082208
0.000821704
0.000820656
0.000817963
0.000811423
0.000796673
0.00076628
0.000710085
0.000618966
0.000493277
0.000268526
0.000268361
0.00026794
0.0002669
0.000264454
0.000259118
0.000248499
0.000229561
0.000199953
0.000160502
0.000268492
0.000268327
0.000267907
0.000266867
0.000264422
0.000259088
0.00024847
0.000229536
0.000199932
0.000160486
0.00026847
0.000268305
0.000267885
0.000266845
0.000264402
0.000259068
0.000248452
0.00022952
0.000199919
0.000160476
0.000268459
0.000268295
0.000267874
0.000266835
0.000264392
0.000259059
0.000248444
0.000229513
0.000199914
0.000160472
0.00026846
0.000268295
0.000267875
0.000266836
0.000264393
0.000259061
0.000248446
0.000229515
0.000199916
0.000160475
0.000268474
0.000268309
0.00026789
0.000266851
0.000264408
0.000259076
0.000248461
0.000229529
0.000199929
0.000160485
0.000268502
0.000268339
0.00026792
0.000266882
0.000264439
0.000259106
0.00024849
0.000229557
0.000199953
0.000160505
0.000268549
0.000268387
0.000267969
0.000266932
0.00026449
0.000259156
0.000248538
0.000229602
0.000199993
0.000160538
0.000268616
0.000268458
0.000268042
0.000267006
0.000264563
0.000259229
0.000248609
0.000229667
0.00020005
0.000160586
0.000268703
0.000268555
0.000268143
0.000267107
0.000264664
0.000259328
0.000248704
0.000229756
0.000200129
0.00016065
8.43683e-05
8.43075e-05
8.41528e-05
8.37779e-05
8.29194e-05
8.10998e-05
7.75923e-05
7.1559e-05
6.2567e-05
5.17175e-05
8.43571e-05
8.42964e-05
8.41417e-05
8.3767e-05
8.29087e-05
8.10897e-05
7.75829e-05
7.15507e-05
6.25601e-05
5.1712e-05
8.43497e-05
8.42891e-05
8.41345e-05
8.37599e-05
8.29018e-05
8.10831e-05
7.75769e-05
7.15454e-05
6.25558e-05
5.17087e-05
8.43461e-05
8.42855e-05
8.41311e-05
8.37565e-05
8.28986e-05
8.10801e-05
7.75742e-05
7.15432e-05
6.2554e-05
5.17074e-05
8.43466e-05
8.4286e-05
8.41316e-05
8.37572e-05
8.28994e-05
8.1081e-05
7.75751e-05
7.15442e-05
6.25551e-05
5.17084e-05
8.43515e-05
8.42911e-05
8.41368e-05
8.37625e-05
8.29047e-05
8.10863e-05
7.75803e-05
7.15491e-05
6.25595e-05
5.17122e-05
8.43618e-05
8.43015e-05
8.41475e-05
8.37733e-05
8.29156e-05
8.10971e-05
7.75907e-05
7.15588e-05
6.25681e-05
5.17195e-05
8.43784e-05
8.43185e-05
8.41649e-05
8.3791e-05
8.29334e-05
8.11146e-05
7.76076e-05
7.15744e-05
6.2582e-05
5.17313e-05
8.4402e-05
8.43434e-05
8.41905e-05
8.3817e-05
8.29593e-05
8.11401e-05
7.76321e-05
7.15973e-05
6.26022e-05
5.17485e-05
8.44327e-05
8.43775e-05
8.42258e-05
8.38525e-05
8.29947e-05
8.11748e-05
7.76655e-05
7.16283e-05
6.26298e-05
5.17716e-05
0.175881
0.0648051
0.0238444
0.00950974
0.0065333
0.0119186
0.0320942
0.089717
0.247017
0.671371
0.175873
0.0648018
0.023843
0.00950885
0.00653215
0.011916
0.0320881
0.0897025
0.246984
0.671296
0.175868
0.0647996
0.023842
0.00950831
0.00653144
0.0119145
0.0320844
0.0896939
0.246965
0.671254
0.175865
0.0647986
0.0238416
0.00950805
0.00653108
0.0119137
0.0320825
0.0896894
0.246955
0.671232
0.175865
0.0647987
0.0238417
0.00950806
0.00653099
0.0119134
0.0320818
0.089688
0.246952
0.671226
0.175869
0.0648003
0.0238424
0.00950837
0.00653115
0.0119136
0.0320823
0.0896891
0.246955
0.671233
0.175876
0.0648035
0.0238438
0.00950901
0.00653156
0.0119142
0.0320836
0.0896927
0.246963
0.671254
0.175888
0.0648089
0.0238461
0.00951003
0.00653221
0.0119151
0.0320858
0.0896983
0.246978
0.671289
0.175906
0.0648166
0.0238494
0.00951147
0.00653307
0.0119163
0.0320885
0.0897052
0.246996
0.671336
0.17593
0.0648265
0.0238535
0.00951326
0.00653404
0.0119174
0.032091
0.0897118
0.247013
0.671382
0.0966488
0.0419043
0.0169843
0.00725168
0.00520653
0.00936988
0.0242123
0.0637296
0.159619
0.368829
0.0966441
0.0419021
0.0169832
0.00725099
0.00520561
0.00936792
0.0242077
0.0637194
0.159598
0.368789
0.0966409
0.0419006
0.0169826
0.00725057
0.00520504
0.0093667
0.0242049
0.0637131
0.159585
0.368763
0.0966393
0.0418999
0.0169822
0.00725036
0.00520475
0.00936604
0.0242034
0.0637098
0.159578
0.36875
0.0966395
0.0419001
0.0169823
0.00725037
0.00520468
0.00936583
0.0242029
0.0637087
0.159576
0.368746
0.0966416
0.0419012
0.0169828
0.00725062
0.00520481
0.00936599
0.0242032
0.0637096
0.159578
0.368751
0.0966463
0.0419035
0.0169839
0.00725114
0.00520516
0.00936648
0.0242043
0.0637123
0.159584
0.368764
0.096654
0.0419074
0.0169857
0.00725198
0.00520571
0.00936727
0.0242061
0.0637167
0.159594
0.368786
0.0966655
0.041913
0.0169883
0.00725319
0.00520647
0.00936832
0.0242085
0.0637225
0.159608
0.368816
0.0966815
0.0419208
0.0169919
0.00725483
0.00520746
0.00936959
0.0242113
0.0637295
0.159625
0.368854
0.0448437
0.0219741
0.00979329
0.0045352
0.00344674
0.00608323
0.0148992
0.036591
0.0836213
0.171084
0.0448412
0.0219729
0.00979264
0.00453475
0.00344613
0.00608196
0.0148964
0.036585
0.0836099
0.171064
0.0448396
0.021972
0.00979222
0.00453447
0.00344575
0.00608115
0.0148946
0.0365813
0.0836026
0.171051
0.0448388
0.0219716
0.00979203
0.00453433
0.00344554
0.00608071
0.0148936
0.0365792
0.0835986
0.171044
0.0448389
0.0219717
0.00979209
0.00453434
0.0034455
0.00608057
0.0148933
0.0365786
0.0835974
0.171042
0.0448401
0.0219724
0.00979244
0.00453451
0.0034456
0.00608068
0.0148935
0.0365792
0.0835987
0.171045
0.0448427
0.0219738
0.00979314
0.00453487
0.00344584
0.00608103
0.0148943
0.0365809
0.0836024
0.171052
0.0448469
0.0219761
0.00979429
0.00453545
0.00344624
0.0060816
0.0148955
0.0365837
0.0836085
0.171064
0.0448531
0.0219795
0.00979598
0.00453629
0.00344681
0.0060824
0.0148973
0.0365877
0.0836172
0.171081
0.0448618
0.0219843
0.00979834
0.00453745
0.00344757
0.00608342
0.0148995
0.0365928
0.0836285
0.171104
0.0190112
0.0101601
0.00490296
0.00245266
0.00197029
0.0034055
0.00790785
0.0182221
0.0386154
0.0725051
0.0190101
0.0101594
0.00490261
0.0024524
0.00196993
0.00340477
0.00790632
0.0182191
0.0386099
0.0724964
0.0190093
0.010159
0.00490238
0.00245224
0.0019697
0.00340431
0.00790534
0.0182171
0.0386063
0.0724905
0.019009
0.0101588
0.00490228
0.00245216
0.00196958
0.00340405
0.0079048
0.0182161
0.0386044
0.0724873
0.0190091
0.0101589
0.00490232
0.00245217
0.00196955
0.00340397
0.00790462
0.0182157
0.0386038
0.0724863
0.0190097
0.0101592
0.00490252
0.00245227
0.00196962
0.00340405
0.00790477
0.018216
0.0386045
0.0724876
0.0190109
0.01016
0.00490292
0.00245248
0.00196977
0.00340426
0.00790522
0.018217
0.0386064
0.0724911
0.019013
0.0101612
0.00490356
0.00245283
0.00197002
0.00340463
0.00790597
0.0182187
0.0386097
0.0724971
0.0190161
0.010163
0.00490452
0.00245334
0.00197039
0.00340514
0.00790704
0.018221
0.0386145
0.0725057
0.0190204
0.0101655
0.00490586
0.00245404
0.00197088
0.00340581
0.00790845
0.0182241
0.0386209
0.0725177
0.00755561
0.00429855
0.00221329
0.00118598
0.00100085
0.00169517
0.0037491
0.00817605
0.0163129
0.0288034
0.0075551
0.00429826
0.00221312
0.00118584
0.00100066
0.0016948
0.00374836
0.00817464
0.0163105
0.0287998
0.00755477
0.00429807
0.00221302
0.00118576
0.00100054
0.00169456
0.00374787
0.00817371
0.0163089
0.0287973
0.00755462
0.00429799
0.00221297
0.00118572
0.00100048
0.00169443
0.0037476
0.00817319
0.016308
0.0287958
0.00755467
0.00429802
0.00221299
0.00118572
0.00100047
0.00169439
0.00374752
0.00817303
0.0163077
0.0287955
0.00755496
0.0042982
0.00221309
0.00118578
0.0010005
0.00169443
0.0037476
0.00817321
0.0163081
0.0287961
0.00755554
0.00429856
0.00221329
0.00118589
0.00100059
0.00169456
0.00374784
0.0081737
0.016309
0.0287977
0.00755649
0.00429915
0.00221362
0.00118608
0.00100073
0.00169476
0.00374825
0.00817455
0.0163106
0.0288005
0.0075579
0.00430002
0.00221411
0.00118635
0.00100094
0.00169505
0.00374883
0.00817577
0.016313
0.0288045
0.00755987
0.00430123
0.00221479
0.00118673
0.00100122
0.00169544
0.00374962
0.00817741
0.0163162
0.0288102
0.00284556
0.00169595
0.000920736
0.000523842
0.000461123
0.000766427
0.00162351
0.00337882
0.00642489
0.0108424
0.00284535
0.00169583
0.00092066
0.000523779
0.000461033
0.000766257
0.00162318
0.00337821
0.00642389
0.0108409
0.00284521
0.00169575
0.000920611
0.000523739
0.000460976
0.000766146
0.00162296
0.00337781
0.00642321
0.0108399
0.00284515
0.00169571
0.000920591
0.00052372
0.000460945
0.000766084
0.00162283
0.00337758
0.00642283
0.0108393
0.00284518
0.00169573
0.000920601
0.000523723
0.000460939
0.000766065
0.0016228
0.00337752
0.00642273
0.0108392
0.00284531
0.00169581
0.00092065
0.00052375
0.000460957
0.000766087
0.00162284
0.0033776
0.00642289
0.0108394
0.00284556
0.00169598
0.000920745
0.000523806
0.000461001
0.000766149
0.00162296
0.00337784
0.00642332
0.0108401
0.00284597
0.00169624
0.000920899
0.000523898
0.000461075
0.000766253
0.00162316
0.00337823
0.00642405
0.0108413
0.00284658
0.00169663
0.000921127
0.000524032
0.000461182
0.000766404
0.00162345
0.00337882
0.00642513
0.0108431
0.00284742
0.00169717
0.000921441
0.000524217
0.000461327
0.000766607
0.00162384
0.00337961
0.00642662
0.0108456
0.00102128
0.000630829
0.000357822
0.000214435
0.000195602
0.000319563
0.000651854
0.00130395
0.00238514
0.0038891
0.0010212
0.000630779
0.00035779
0.000214407
0.000195563
0.00031949
0.000651716
0.00130371
0.00238475
0.00388854
0.00102115
0.000630747
0.00035777
0.00021439
0.000195537
0.000319441
0.000651624
0.00130355
0.00238449
0.00388815
0.00102113
0.000630734
0.000357761
0.000214382
0.000195523
0.000319414
0.000651572
0.00130345
0.00238434
0.00388793
0.00102114
0.000630743
0.000357767
0.000214383
0.000195521
0.000319407
0.000651557
0.00130343
0.0023843
0.00388788
0.00102119
0.000630778
0.000357788
0.000214396
0.00019553
0.000319417
0.000651576
0.00130346
0.00238437
0.00388799
0.00102129
0.000630846
0.000357829
0.000214421
0.000195551
0.000319446
0.00065163
0.00130357
0.00238455
0.00388828
0.00102146
0.000630957
0.000357897
0.000214463
0.000195585
0.000319495
0.000651721
0.00130374
0.00238486
0.00388879
0.00102171
0.00063112
0.000357995
0.000214524
0.000195636
0.000319566
0.000651856
0.001304
0.00238532
0.00388953
0.00102205
0.000631345
0.000358132
0.000214607
0.000195705
0.000319663
0.000652038
0.00130436
0.00238596
0.00389057
0.000350847
0.000223063
0.000131329
8.23652e-05
7.74318e-05
0.000124532
0.000245724
0.000475107
0.000841577
0.00133516
0.000350816
0.000223044
0.000131316
8.23539e-05
7.74156e-05
0.000124503
0.00024567
0.000475013
0.00084143
0.00133495
0.000350797
0.000223032
0.000131308
8.23466e-05
7.7405e-05
0.000124483
0.000245633
0.00047495
0.000841331
0.00133481
0.00035079
0.000223027
0.000131305
8.23433e-05
7.73993e-05
0.000124472
0.000245613
0.000474915
0.000841275
0.00133473
0.000350795
0.000223031
0.000131307
8.2344e-05
7.73985e-05
0.000124469
0.000245607
0.000474906
0.000841262
0.00133471
0.000350816
0.000223045
0.000131316
8.23494e-05
7.74024e-05
0.000124474
0.000245616
0.000474922
0.00084129
0.00133476
0.000350856
0.000223072
0.000131333
8.23603e-05
7.74116e-05
0.000124487
0.000245639
0.000474964
0.000841364
0.00133487
0.000350922
0.000223116
0.000131361
8.2378e-05
7.74268e-05
0.000124508
0.000245678
0.000475037
0.00084149
0.00133507
0.000351018
0.000223181
0.000131401
8.24038e-05
7.74491e-05
0.00012454
0.000245735
0.000475144
0.000841676
0.00133537
0.00035115
0.00022327
0.000131456
8.24392e-05
7.74792e-05
0.000124582
0.000245813
0.000475291
0.000841933
0.00133577
0.000117112
7.6686e-05
4.67763e-05
3.06102e-05
2.95617e-05
4.68355e-05
8.96033e-05
0.000167889
0.000288604
0.000445318
0.000117101
7.66788e-05
4.67713e-05
3.06056e-05
2.95552e-05
4.68239e-05
8.95825e-05
0.000167854
0.000288551
0.000445245
0.000117094
7.66743e-05
4.67683e-05
3.06027e-05
2.9551e-05
4.68162e-05
8.95686e-05
0.00016783
0.000288515
0.000445194
0.000117092
7.66727e-05
4.67671e-05
3.06014e-05
2.95488e-05
4.6812e-05
8.95609e-05
0.000167817
0.000288495
0.000445167
0.000117094
7.66743e-05
4.67681e-05
3.06018e-05
2.95485e-05
4.6811e-05
8.95589e-05
0.000167814
0.00028849
0.000445161
0.000117102
7.66798e-05
4.67716e-05
3.0604e-05
2.95502e-05
4.6813e-05
8.95624e-05
0.000167821
0.000288502
0.000445179
0.000117117
7.66904e-05
4.67784e-05
3.06085e-05
2.95541e-05
4.68184e-05
8.95719e-05
0.000167838
0.000288531
0.000445223
0.000117142
7.67074e-05
4.67894e-05
3.06158e-05
2.95605e-05
4.68274e-05
8.95881e-05
0.000167867
0.00028858
0.000445298
0.000117178
7.67323e-05
4.68053e-05
3.06264e-05
2.95699e-05
4.68407e-05
8.96117e-05
0.00016791
0.000288653
0.00044541
0.000117227
7.67662e-05
4.68271e-05
3.06408e-05
2.95826e-05
4.68585e-05
8.96437e-05
0.000167968
0.000288752
0.000445563
4.41637e-05
3.0733e-05
1.95746e-05
1.33747e-05
1.32449e-05
2.06811e-05
3.83941e-05
6.96393e-05
0.000115311
0.000167749
4.41596e-05
3.07302e-05
1.95726e-05
1.33727e-05
1.32421e-05
2.0676e-05
3.83853e-05
6.9625e-05
0.00011529
0.000167722
4.41569e-05
3.07284e-05
1.95713e-05
1.33714e-05
1.32401e-05
2.06726e-05
3.83791e-05
6.96149e-05
0.000115275
0.000167702
4.4156e-05
3.07277e-05
1.95708e-05
1.33708e-05
1.32391e-05
2.06707e-05
3.83757e-05
6.96093e-05
0.000115266
0.000167691
4.4157e-05
3.07285e-05
1.95713e-05
1.3371e-05
1.3239e-05
2.06702e-05
3.83749e-05
6.9608e-05
0.000115265
0.000167689
4.41604e-05
3.0731e-05
1.95729e-05
1.33721e-05
1.32398e-05
2.06713e-05
3.83767e-05
6.96112e-05
0.00011527
0.000167697
4.41669e-05
3.07358e-05
1.95761e-05
1.33743e-05
1.32418e-05
2.06739e-05
3.83813e-05
6.96193e-05
0.000115283
0.000167716
4.41774e-05
3.07434e-05
1.95812e-05
1.33778e-05
1.3245e-05
2.06784e-05
3.83891e-05
6.9633e-05
0.000115305
0.000167748
4.41925e-05
3.07545e-05
1.95886e-05
1.33829e-05
1.32496e-05
2.06849e-05
3.84003e-05
6.96529e-05
0.000115338
0.000167795
4.42126e-05
3.0769e-05
1.95983e-05
1.33896e-05
1.32556e-05
2.06933e-05
3.84151e-05
6.96791e-05
0.000115381
0.000167859
1.8269
2.16255
2.26953
2.30538
2.3176
2.32177
2.32321
2.32376