/*--------------------------------*- C++ -*----------------------------------*\
  =========                 |
  \\      /  F ield         | OpenFOAM: The Open Source CFD Toolbox
   \\    /   O peration     | Website:  https://openfoam.org
    \\  /    A nd           | Version:  6
     \\/     M anipulation  |
\*---------------------------------------------------------------------------*/
FoamFile
{
    version     2.0;
    format      ascii;
    class       volScalarField;
    location    "0.25";
    object      T;
}
// * * * * * * * * * * * * * * * * * * * * * * * * * * * * * * * * * * * * * //

dimensions      [0 0 0 1 0 0 0];

internalField   nonuniform List<scalar> 
7000
(
103.774
103.774
103.773
103.772
103.77
103.769
103.767
103.765
103.764
103.763
103.774
103.774
103.773
103.772
103.77
103.769
103.767
103.765
103.763
103.763
103.774
103.774
103.773
103.772
103.77
103.769
103.767
103.765
103.763
103.763
103.774
103.774
103.773
103.772
103.77
103.769
103.767
103.765
103.763
103.763
103.774
103.774
103.773
103.772
103.77
103.769
103.767
103.765
103.763
103.763
103.774
103.774
103.773
103.772
103.77
103.769
103.767
103.765
103.763
103.763
103.774
103.774
103.773
103.772
103.77
103.769
103.767
103.765
103.763
103.763
103.774
103.774
103.773
103.772
103.77
103.769
103.767
103.765
103.763
103.763
103.774
103.774
103.773
103.772
103.77
103.769
103.767
103.765
103.763
103.763
103.774
103.774
103.773
103.772
103.77
103.769
103.767
103.765
103.763
103.763
91.448
91.4466
91.444
91.4402
91.4352
91.4294
91.4232
91.4174
91.4128
91.4103
91.4479
91.4466
91.444
91.4401
91.4351
91.4293
91.4231
91.4173
91.4128
91.4102
91.4479
91.4465
91.4439
91.4401
91.4351
91.4293
91.4231
91.4173
91.4127
91.4102
91.4479
91.4465
91.4439
91.44
91.4351
91.4292
91.4231
91.4173
91.4127
91.4102
91.4478
91.4465
91.4439
91.44
91.435
91.4292
91.423
91.4172
91.4127
91.4102
91.4478
91.4465
91.4439
91.44
91.435
91.4292
91.423
91.4172
91.4127
91.4102
91.4478
91.4465
91.4439
91.44
91.435
91.4292
91.4231
91.4173
91.4127
91.4102
91.4479
91.4465
91.4439
91.44
91.4351
91.4293
91.4231
91.4173
91.4127
91.4102
91.4479
91.4465
91.4439
91.4401
91.4351
91.4293
91.4231
91.4173
91.4128
91.4102
91.4479
91.4466
91.444
91.4401
91.4351
91.4293
91.4232
91.4174
91.4128
91.4103
79.4887
79.4862
79.4814
79.4742
79.4648
79.4536
79.4416
79.4301
79.4209
79.4158
79.4886
79.4861
79.4813
79.4741
79.4647
79.4535
79.4415
79.43
79.4208
79.4157
79.4885
79.486
79.4812
79.474
79.4646
79.4534
79.4414
79.4299
79.4208
79.4157
79.4885
79.486
79.4812
79.474
79.4645
79.4534
79.4414
79.4299
79.4207
79.4157
79.4884
79.486
79.4811
79.4739
79.4645
79.4534
79.4413
79.4299
79.4207
79.4156
79.4884
79.486
79.4811
79.4739
79.4645
79.4534
79.4413
79.4299
79.4207
79.4156
79.4885
79.486
79.4811
79.4739
79.4645
79.4534
79.4414
79.4299
79.4207
79.4157
79.4885
79.486
79.4812
79.474
79.4646
79.4534
79.4414
79.4299
79.4208
79.4157
79.4885
79.4861
79.4812
79.474
79.4646
79.4535
79.4415
79.43
79.4208
79.4158
79.4886
79.4861
79.4813
79.4741
79.4647
79.4535
79.4415
79.4301
79.4209
79.4158
68.1169
68.1129
68.1051
68.0934
68.0777
68.0588
68.038
68.0177
68.0011
67.9916
68.1167
68.1128
68.105
68.0932
68.0776
68.0587
68.0379
68.0175
68.001
67.9916
68.1166
68.1127
68.1049
68.0932
68.0775
68.0586
68.0378
68.0175
68.0009
67.9915
68.1166
68.1127
68.1049
68.0931
68.0775
68.0586
68.0377
68.0174
68.0008
67.9914
68.1166
68.1126
68.1048
68.0931
68.0774
68.0585
68.0377
68.0174
68.0008
67.9914
68.1165
68.1126
68.1048
68.0931
68.0774
68.0585
68.0377
68.0174
68.0008
67.9914
68.1166
68.1126
68.1049
68.0931
68.0775
68.0586
68.0377
68.0174
68.0008
67.9915
68.1166
68.1127
68.1049
68.0931
68.0775
68.0586
68.0378
68.0175
68.0009
67.9915
68.1167
68.1128
68.105
68.0932
68.0776
68.0587
68.0379
68.0176
68.001
67.9916
68.1167
68.1128
68.1051
68.0933
68.0777
68.0588
68.038
68.0177
68.0011
67.9917
57.519
57.5132
57.5014
57.4833
57.4588
57.4284
57.3939
57.3591
57.3298
57.3128
57.5189
57.513
57.5013
57.4832
57.4587
57.4282
57.3937
57.3589
57.3297
57.3127
57.5188
57.5129
57.5012
57.4831
57.4586
57.4281
57.3936
57.3589
57.3296
57.3126
57.5187
57.5129
57.5011
57.483
57.4585
57.4281
57.3936
57.3588
57.3295
57.3125
57.5187
57.5128
57.501
57.483
57.4585
57.428
57.3935
57.3588
57.3295
57.3125
57.5187
57.5128
57.501
57.483
57.4585
57.428
57.3935
57.3588
57.3295
57.3125
57.5187
57.5128
57.5011
57.483
57.4585
57.4281
57.3936
57.3588
57.3296
57.3126
57.5187
57.5129
57.5011
57.4831
57.4586
57.4281
57.3936
57.3589
57.3296
57.3126
57.5188
57.513
57.5012
57.4832
57.4587
57.4282
57.3937
57.359
57.3297
57.3127
57.5189
57.5131
57.5013
57.4833
57.4588
57.4284
57.3939
57.3591
57.3299
57.3129
47.839
47.8306
47.8136
47.787
47.75
47.7027
47.6469
47.5883
47.5368
47.5056
47.8388
47.8305
47.8135
47.7869
47.7499
47.7025
47.6468
47.5882
47.5367
47.5055
47.8387
47.8304
47.8134
47.7868
47.7498
47.7024
47.6467
47.5881
47.5366
47.5054
47.8386
47.8303
47.8133
47.7867
47.7497
47.7023
47.6466
47.588
47.5365
47.5054
47.8386
47.8303
47.8133
47.7867
47.7497
47.7023
47.6466
47.588
47.5365
47.5053
47.8386
47.8303
47.8133
47.7867
47.7497
47.7023
47.6466
47.588
47.5365
47.5053
47.8386
47.8303
47.8133
47.7867
47.7497
47.7023
47.6466
47.588
47.5365
47.5054
47.8387
47.8303
47.8134
47.7868
47.7498
47.7024
47.6467
47.5881
47.5366
47.5055
47.8387
47.8304
47.8135
47.7869
47.7499
47.7025
47.6468
47.5882
47.5367
47.5056
47.8388
47.8306
47.8136
47.787
47.7501
47.7027
47.6469
47.5884
47.5369
47.5057
39.1729
39.1616
39.1381
39.1005
39.0467
38.9752
38.8871
38.7893
38.6979
38.639
39.1728
39.1614
39.1379
39.1003
39.0465
38.975
38.887
38.7892
38.6978
38.6389
39.1727
39.1613
39.1378
39.1002
39.0464
38.9749
38.8869
38.7891
38.6977
38.6388
39.1726
39.1612
39.1377
39.1002
39.0464
38.9749
38.8868
38.789
38.6976
38.6388
39.1725
39.1612
39.1377
39.1001
39.0463
38.9748
38.8868
38.789
38.6976
38.6388
39.1725
39.1612
39.1377
39.1001
39.0463
38.9748
38.8868
38.789
38.6976
38.6388
39.1726
39.1612
39.1377
39.1002
39.0464
38.9749
38.8868
38.7891
38.6977
38.6388
39.1726
39.1613
39.1378
39.1003
39.0465
38.975
38.8869
38.7892
38.6977
38.6389
39.1727
39.1614
39.1379
39.1004
39.0466
38.9751
38.887
38.7893
38.6979
38.639
39.1728
39.1615
39.1381
39.1005
39.0467
38.9752
38.8872
38.7894
38.698
38.6392
31.5689
31.5541
31.5231
31.4723
31.3974
31.2935
31.1583
30.9972
30.8327
30.7155
31.5687
31.554
31.5229
31.4722
31.3972
31.2933
31.1581
30.997
30.8325
30.7154
31.5686
31.5539
31.5228
31.4721
31.3971
31.2932
31.158
30.9969
30.8325
30.7153
31.5686
31.5538
31.5227
31.472
31.397
31.2931
31.158
30.9969
30.8324
30.7153
31.5685
31.5538
31.5227
31.472
31.397
31.2931
31.1579
30.9969
30.8324
30.7152
31.5685
31.5538
31.5227
31.472
31.397
31.2931
31.158
30.9969
30.8324
30.7153
31.5686
31.5538
31.5227
31.472
31.3971
31.2932
31.158
30.9969
30.8325
30.7153
31.5686
31.5539
31.5228
31.4721
31.3971
31.2933
31.1581
30.997
30.8325
30.7154
31.5687
31.554
31.5229
31.4722
31.3973
31.2934
31.1582
30.9971
30.8327
30.7155
31.5688
31.5541
31.5231
31.4724
31.3974
31.2935
31.1584
30.9973
30.8328
30.7157
25.0295
25.0113
24.9723
24.9074
24.8083
24.6648
24.4659
24.2072
23.908
23.6555
25.0294
25.0111
24.9722
24.9072
24.8082
24.6646
24.4658
24.207
23.9079
23.6554
25.0293
25.011
24.9721
24.9071
24.8081
24.6645
24.4657
24.207
23.9079
23.6554
25.0292
25.011
24.972
24.9071
24.808
24.6645
24.4657
24.2069
23.9078
23.6553
25.0292
25.0109
24.972
24.907
24.808
24.6645
24.4656
24.2069
23.9078
23.6553
25.0292
25.0109
24.972
24.907
24.808
24.6645
24.4657
24.2069
23.9078
23.6553
25.0292
25.011
24.972
24.9071
24.808
24.6645
24.4657
24.2069
23.9079
23.6554
25.0293
25.011
24.9721
24.9072
24.8081
24.6646
24.4658
24.207
23.9079
23.6555
25.0294
25.0111
24.9722
24.9073
24.8082
24.6647
24.4659
24.2071
23.908
23.6556
25.0295
25.0113
24.9724
24.9074
24.8084
24.6649
24.4661
24.2073
23.9082
23.6557
19.518
19.4967
19.4508
19.3727
19.2504
19.0657
18.7928
18.3996
17.8618
17.2552
19.5179
19.4966
19.4506
19.3726
19.2503
19.0656
18.7927
18.3995
17.8617
17.2551
19.5178
19.4965
19.4505
19.3725
19.2502
19.0655
18.7927
18.3995
17.8616
17.255
19.5177
19.4964
19.4505
19.3725
19.2502
19.0654
18.7926
18.3994
17.8616
17.255
19.5177
19.4964
19.4505
19.3724
19.2502
19.0654
18.7926
18.3994
17.8616
17.255
19.5177
19.4964
19.4505
19.3725
19.2502
19.0654
18.7926
18.3994
17.8616
17.255
19.5177
19.4964
19.4505
19.3725
19.2502
19.0655
18.7926
18.3995
17.8616
17.255
19.5178
19.4965
19.4506
19.3726
19.2503
19.0655
18.7927
18.3995
17.8617
17.2551
19.5179
19.4966
19.4507
19.3727
19.2504
19.0656
18.7928
18.3996
17.8618
17.2552
19.518
19.4967
19.4508
19.3728
19.2505
19.0658
18.793
18.3998
17.8619
17.2553
14.9658
14.9425
14.8919
14.8049
14.6662
14.4507
14.1169
13.5898
12.71
11.0478
14.9656
14.9424
14.8918
14.8048
14.6661
14.4506
14.1168
13.5897
12.7099
11.0477
14.9656
14.9423
14.8917
14.8048
14.6661
14.4505
14.1167
13.5896
12.7098
11.0476
14.9655
14.9422
14.8916
14.8047
14.666
14.4505
14.1167
13.5896
12.7098
11.0476
14.9655
14.9422
14.8916
14.8047
14.666
14.4505
14.1166
13.5896
12.7098
11.0476
14.9655
14.9422
14.8916
14.8047
14.666
14.4505
14.1167
13.5896
12.7098
11.0476
14.9655
14.9422
14.8916
14.8047
14.666
14.4505
14.1167
13.5896
12.7098
11.0477
14.9656
14.9423
14.8917
14.8048
14.6661
14.4506
14.1168
13.5897
12.7099
11.0477
14.9657
14.9424
14.8918
14.8049
14.6662
14.4507
14.1169
13.5898
12.71
11.0478
14.9658
14.9425
14.8919
14.805
14.6663
14.4508
14.117
13.5899
12.7101
11.0479
11.2814
11.2576
11.2058
11.1165
10.9738
10.7517
10.4089
9.87748
9.04431
7.73533
11.2813
11.2575
11.2057
11.1164
10.9737
10.7516
10.4088
9.8774
9.04424
7.73527
11.2812
11.2574
11.2056
11.1163
10.9736
10.7516
10.4088
9.87734
9.04419
7.73522
11.2812
11.2574
11.2056
11.1163
10.9736
10.7515
10.4087
9.87731
9.04416
7.73519
11.2812
11.2574
11.2055
11.1163
10.9736
10.7515
10.4087
9.8773
9.04415
7.73519
11.2812
11.2574
11.2055
11.1163
10.9736
10.7515
10.4087
9.87731
9.04416
7.7352
11.2812
11.2574
11.2056
11.1163
10.9736
10.7516
10.4088
9.87735
9.04419
7.73523
11.2813
11.2575
11.2056
11.1164
10.9737
10.7516
10.4088
9.87741
9.04425
7.73528
11.2813
11.2575
11.2057
11.1165
10.9738
10.7517
10.4089
9.87749
9.04432
7.73535
11.2814
11.2577
11.2058
11.1166
10.9739
10.7518
10.409
9.8776
9.04443
7.73544
8.35945
8.33665
8.28717
8.20247
8.06835
7.86317
7.55534
7.10113
6.44741
5.55594
8.35937
8.33657
8.28709
8.20239
8.06828
7.8631
7.55527
7.10106
6.44734
5.55589
8.35931
8.33651
8.28703
8.20233
8.06822
7.86305
7.55522
7.10102
6.4473
5.55585
8.35927
8.33648
8.28699
8.20229
8.06819
7.86302
7.55519
7.10099
6.44728
5.55582
8.35926
8.33646
8.28698
8.20228
8.06818
7.86301
7.55518
7.10098
6.44727
5.55582
8.35926
8.33647
8.28699
8.20229
8.06819
7.86302
7.55519
7.10099
6.44728
5.55583
8.35929
8.3365
8.28702
8.20232
8.06822
7.86305
7.55522
7.10103
6.44731
5.55585
8.35934
8.33655
8.28707
8.20238
8.06827
7.8631
7.55527
7.10108
6.44736
5.5559
8.3594
8.33662
8.28715
8.20245
8.06835
7.86318
7.55535
7.10115
6.44742
5.55596
8.35948
8.33671
8.28724
8.20255
8.06845
7.86328
7.55544
7.10124
6.44751
5.55603
6.08854
6.06803
6.02377
5.94883
5.83217
5.65807
5.40613
5.05331
4.58144
3.99701
6.08847
6.06796
6.0237
5.94877
5.83211
5.65801
5.40608
5.05326
4.58139
3.99696
6.08842
6.06791
6.02366
5.94872
5.83206
5.65796
5.40604
5.05322
4.58136
3.99693
6.08839
6.06788
6.02363
5.9487
5.83204
5.65794
5.40601
5.0532
4.58134
3.99691
6.08838
6.06787
6.02362
5.94869
5.83203
5.65793
5.40601
5.0532
4.58134
3.9969
6.08839
6.06788
6.02363
5.9487
5.83204
5.65794
5.40602
5.05321
4.58134
3.99691
6.08841
6.0679
6.02365
5.94872
5.83207
5.65797
5.40604
5.05323
4.58137
3.99694
6.08845
6.06795
6.0237
5.94877
5.83211
5.65801
5.40609
5.05327
4.58141
3.99697
6.08851
6.06801
6.02376
5.94883
5.83217
5.65808
5.40615
5.05333
4.58146
3.99702
6.08857
6.06808
6.02384
5.94892
5.83226
5.65816
5.40623
5.05341
4.58153
3.99709
4.35875
4.34131
4.30396
4.24156
4.14633
4.008
3.81496
3.55703
3.23176
2.85524
4.3587
4.34125
4.3039
4.24151
4.14628
4.00796
3.81492
3.55699
3.23172
2.85521
4.35866
4.34121
4.30387
4.24148
4.14624
4.00792
3.81488
3.55696
3.2317
2.85518
4.35863
4.34119
4.30384
4.24145
4.14622
4.0079
3.81487
3.55695
3.23168
2.85517
4.35863
4.34118
4.30384
4.24145
4.14622
4.0079
3.81486
3.55694
3.23168
2.85516
4.35863
4.34119
4.30384
4.24146
4.14622
4.00791
3.81487
3.55695
3.23169
2.85517
4.35865
4.34121
4.30387
4.24148
4.14625
4.00793
3.81489
3.55697
3.23171
2.85519
4.35869
4.34125
4.3039
4.24152
4.14628
4.00797
3.81493
3.55701
3.23174
2.85522
4.35873
4.34129
4.30395
4.24157
4.14634
4.00802
3.81498
3.55705
3.23178
2.85526
4.35878
4.34136
4.30402
4.24164
4.1464
4.00809
3.81504
3.55711
3.23184
2.85531
3.06713
3.05302
3.02308
2.97377
2.90003
2.79576
2.65508
2.47471
2.25793
2.01978
3.06709
3.05298
3.02304
2.97373
2.89999
2.79572
2.65505
2.47468
2.2579
2.01976
3.06706
3.05295
3.02301
2.9737
2.89996
2.7957
2.65502
2.47466
2.25788
2.01973
3.06704
3.05293
3.02299
2.97369
2.89995
2.79568
2.65501
2.47464
2.25787
2.01972
3.06703
3.05293
3.02298
2.97368
2.89994
2.79568
2.65501
2.47464
2.25787
2.01972
3.06704
3.05293
3.02299
2.97369
2.89995
2.79569
2.65501
2.47465
2.25787
2.01973
3.06705
3.05295
3.02301
2.97371
2.89997
2.79571
2.65503
2.47467
2.25789
2.01974
3.06708
3.05298
3.02304
2.97374
2.9
2.79574
2.65506
2.47469
2.25792
2.01977
3.06712
3.05302
3.02308
2.97378
2.90004
2.79578
2.6551
2.47473
2.25795
2.0198
3.06716
3.05307
3.02313
2.97383
2.9001
2.79583
2.65515
2.47478
2.258
2.01984
2.12149
2.11058
2.08764
2.05042
1.99586
1.92069
1.82245
1.70121
1.56181
1.41605
2.12146
2.11055
2.08761
2.05039
1.99583
1.92066
1.82243
1.70119
1.56179
1.41603
2.12143
2.11053
2.08759
2.05037
1.99581
1.92064
1.82241
1.70117
1.56177
1.41602
2.12142
2.11052
2.08758
2.05035
1.9958
1.92063
1.8224
1.70116
1.56176
1.41601
2.12142
2.11051
2.08757
2.05035
1.99579
1.92063
1.82239
1.70116
1.56176
1.416
2.12142
2.11052
2.08758
2.05036
1.9958
1.92063
1.8224
1.70117
1.56176
1.41601
2.12143
2.11053
2.08759
2.05037
1.99581
1.92065
1.82242
1.70118
1.56178
1.41602
2.12146
2.11055
2.08762
2.05039
1.99584
1.92067
1.82244
1.7012
1.5618
1.41604
2.12148
2.11059
2.08765
2.05043
1.99587
1.9207
1.82247
1.70123
1.56183
1.41607
2.12152
2.11063
2.08769
2.05047
1.99591
1.92074
1.82251
1.70127
1.56186
1.4161
1.44249
1.4344
1.41753
1.39055
1.35179
1.29976
1.23395
1.15601
1.07109
0.988618
1.44247
1.43438
1.41751
1.39053
1.35177
1.29974
1.23393
1.15599
1.07107
0.9886
1.44245
1.43436
1.41749
1.39051
1.35176
1.29973
1.23392
1.15598
1.07106
0.988588
1.44244
1.43435
1.41748
1.3905
1.35175
1.29972
1.23391
1.15597
1.07105
0.988581
1.44244
1.43435
1.41748
1.3905
1.35175
1.29972
1.23391
1.15597
1.07105
0.98858
1.44244
1.43435
1.41748
1.39051
1.35175
1.29972
1.23391
1.15597
1.07106
0.988584
1.44245
1.43436
1.4175
1.39052
1.35176
1.29973
1.23392
1.15599
1.07107
0.988594
1.44247
1.43438
1.41751
1.39054
1.35178
1.29975
1.23394
1.156
1.07108
0.988609
1.44249
1.4344
1.41754
1.39056
1.35181
1.29978
1.23396
1.15603
1.07111
0.98863
1.44252
1.43444
1.41757
1.39059
1.35184
1.29981
1.23399
1.15605
1.07113
0.988656
0.964225
0.958444
0.946494
0.927657
0.901145
0.866513
0.824314
0.777034
0.730282
0.693788
0.964208
0.958427
0.946478
0.927641
0.901129
0.866498
0.824299
0.77702
0.730268
0.693774
0.964196
0.958415
0.946466
0.92763
0.901118
0.866487
0.824289
0.77701
0.730259
0.693764
0.964189
0.958409
0.946459
0.927623
0.901112
0.866482
0.824284
0.777005
0.730254
0.693759
0.964187
0.958407
0.946458
0.927622
0.901111
0.866481
0.824283
0.777005
0.730253
0.693759
0.96419
0.95841
0.946461
0.927626
0.901115
0.866484
0.824287
0.777008
0.730257
0.693762
0.964198
0.958418
0.94647
0.927634
0.901123
0.866493
0.824295
0.777016
0.730265
0.69377
0.964211
0.958431
0.946483
0.927648
0.901137
0.866506
0.824308
0.777029
0.730277
0.693782
0.964227
0.958449
0.946502
0.927667
0.901156
0.866525
0.824326
0.777046
0.730294
0.693798
0.964247
0.958472
0.946526
0.927691
0.90118
0.866548
0.824349
0.777068
0.730315
0.693818
0.63368
0.629689
0.62151
0.608803
0.591284
0.569054
0.543108
0.516178
0.494368
0.491587
0.633668
0.629677
0.621498
0.608791
0.591273
0.569043
0.543097
0.516168
0.494358
0.491577
0.633659
0.629669
0.62149
0.608783
0.591265
0.569036
0.54309
0.516161
0.494352
0.49157
0.633654
0.629664
0.621486
0.608779
0.591261
0.569032
0.543087
0.516157
0.494348
0.491566
0.633653
0.629663
0.621485
0.608778
0.59126
0.569031
0.543086
0.516157
0.494348
0.491566
0.633656
0.629665
0.621487
0.608781
0.591263
0.569034
0.543089
0.51616
0.494351
0.491569
0.633662
0.629671
0.621494
0.608787
0.59127
0.569041
0.543095
0.516166
0.494357
0.491575
0.633671
0.629681
0.621503
0.608797
0.59128
0.569051
0.543105
0.516175
0.494366
0.491584
0.633683
0.629694
0.621517
0.608811
0.591294
0.569064
0.543118
0.516188
0.494378
0.491597
0.633697
0.629711
0.621535
0.608829
0.591311
0.569081
0.543135
0.516204
0.494394
0.491612
7.13232
5.0369
3.9969
3.72471
4.14783
5.33411
7.48905
11.0058
16.603
25.6881
7.13225
5.03684
3.99684
3.72464
4.14775
5.33401
7.48892
11.0057
16.6028
25.6878
7.13221
5.0368
3.99679
3.72459
4.14769
5.33394
7.48883
11.0055
16.6026
25.6876
7.13218
5.03678
3.99677
3.72456
4.14765
5.33389
7.48878
11.0055
16.6025
25.6875
7.13217
5.03677
3.99676
3.72455
4.14764
5.33387
7.48875
11.0054
16.6025
25.6874
7.13218
5.03677
3.99676
3.72455
4.14764
5.33387
7.48874
11.0054
16.6025
25.6874
7.13221
5.0368
3.99678
3.72457
4.14765
5.33388
7.48877
11.0055
16.6025
25.6875
7.13225
5.03683
3.99681
3.7246
4.14769
5.33392
7.48881
11.0055
16.6026
25.6876
7.13231
5.03688
3.99685
3.72464
4.14773
5.33397
7.48887
11.0056
16.6027
25.6877
7.13239
5.03694
3.9969
3.72469
4.14778
5.33403
7.48895
11.0057
16.6029
25.6879
5.8317
4.43393
3.65717
3.47351
3.88716
4.9733
6.8944
9.91595
14.4091
20.7497
5.83164
4.43388
3.65712
3.47345
3.88708
4.97321
6.89428
9.9158
14.4089
20.7495
5.8316
4.43384
3.65708
3.4734
3.88703
4.97314
6.8942
9.91569
14.4088
20.7493
5.83157
4.43381
3.65705
3.47337
3.887
4.9731
6.89414
9.91562
14.4087
20.7492
5.83156
4.4338
3.65704
3.47336
3.88698
4.97308
6.89411
9.91559
14.4087
20.7491
5.83157
4.43381
3.65705
3.47336
3.88698
4.97307
6.89411
9.91558
14.4087
20.7491
5.8316
4.43383
3.65706
3.47338
3.887
4.97309
6.89413
9.91562
14.4087
20.7492
5.83164
4.43387
3.6571
3.47341
3.88703
4.97313
6.89418
9.91567
14.4088
20.7493
5.8317
4.43392
3.65714
3.47345
3.88708
4.97319
6.89425
9.91576
14.4089
20.7495
5.83177
4.43398
3.6572
3.47351
3.88714
4.97326
6.89434
9.91588
14.409
20.7496
4.49522
3.63295
3.13078
3.04938
3.43474
4.35761
5.92717
8.28492
11.5618
15.7465
4.49517
3.6329
3.13072
3.04932
3.43468
4.35753
5.92707
8.28479
11.5617
15.7463
4.49514
3.63286
3.13069
3.04928
3.43463
4.35747
5.927
8.2847
11.5615
15.7462
4.49511
3.63284
3.13067
3.04925
3.4346
4.35743
5.92695
8.28464
11.5615
15.7461
4.49511
3.63284
3.13066
3.04924
3.43458
4.35741
5.92692
8.28461
11.5614
15.746
4.49512
3.63284
3.13066
3.04924
3.43458
4.35741
5.92692
8.28461
11.5614
15.746
4.49514
3.63286
3.13068
3.04926
3.4346
4.35743
5.92695
8.28464
11.5615
15.7461
4.49518
3.63289
3.13071
3.04929
3.43463
4.35746
5.92699
8.28469
11.5615
15.7462
4.49523
3.63294
3.13075
3.04933
3.43468
4.35752
5.92706
8.28478
11.5617
15.7463
4.4953
3.633
3.13081
3.04939
3.43474
4.35759
5.92715
8.28489
11.5618
15.7465
3.36808
2.84922
2.55271
2.54734
2.88595
3.6252
4.83087
6.56583
8.85226
11.5971
3.36804
2.84918
2.55267
2.54729
2.8859
3.62513
4.83078
6.56572
8.85213
11.5969
3.36801
2.84915
2.55264
2.54725
2.88585
3.62508
4.83072
6.56564
8.85204
11.5968
3.36799
2.84913
2.55262
2.54723
2.88583
3.62505
4.83068
6.56559
8.85197
11.5967
3.36798
2.84912
2.55261
2.54722
2.88581
3.62503
4.83066
6.56556
8.85194
11.5967
3.36799
2.84913
2.55261
2.54722
2.88582
3.62503
4.83066
6.56556
8.85195
11.5967
3.36801
2.84914
2.55263
2.54724
2.88583
3.62505
4.83068
6.56559
8.85198
11.5967
3.36804
2.84917
2.55266
2.54727
2.88586
3.62508
4.83072
6.56564
8.85205
11.5968
3.36809
2.84922
2.5527
2.54731
2.8859
3.62514
4.83078
6.56572
8.85215
11.5969
3.36815
2.84927
2.55275
2.54736
2.88596
3.6252
4.83087
6.56582
8.85227
11.5971
2.47479
2.16829
2.00678
2.04484
2.32664
2.89261
3.77933
5.00912
6.56705
8.36802
2.47475
2.16825
2.00675
2.0448
2.32659
2.89256
3.77926
5.00904
6.56695
8.36789
2.47473
2.16823
2.00672
2.04477
2.32656
2.89251
3.77921
5.00897
6.56687
8.3678
2.47471
2.16821
2.0067
2.04475
2.32654
2.89248
3.77917
5.00893
6.56682
8.36774
2.47471
2.16821
2.0067
2.04474
2.32653
2.89247
3.77916
5.00891
6.5668
8.36772
2.47472
2.16821
2.0067
2.04474
2.32653
2.89247
3.77916
5.00891
6.5668
8.36773
2.47473
2.16823
2.00671
2.04476
2.32654
2.89249
3.77918
5.00894
6.56683
8.36776
2.47476
2.16825
2.00674
2.04478
2.32657
2.89252
3.77922
5.00898
6.56689
8.36783
2.4748
2.16829
2.00677
2.04482
2.32661
2.89257
3.77927
5.00905
6.56697
8.36793
2.47485
2.16834
2.00682
2.04486
2.32666
2.89263
3.77934
5.00914
6.56708
8.36807
1.79094
1.61498
1.53616
1.59297
1.81761
2.23673
2.86918
3.71899
4.76352
5.94138
1.79092
1.61495
1.53613
1.59293
1.81757
2.23668
2.86912
3.71892
4.76344
5.94128
1.7909
1.61493
1.53611
1.59291
1.81754
2.23664
2.86908
3.71887
4.76338
5.94121
1.79088
1.61492
1.5361
1.59289
1.81752
2.23662
2.86905
3.71884
4.76334
5.94117
1.79088
1.61492
1.53609
1.59289
1.81751
2.23661
2.86904
3.71882
4.76332
5.94115
1.79089
1.61492
1.5361
1.59289
1.81752
2.23661
2.86904
3.71883
4.76333
5.94115
1.7909
1.61493
1.53611
1.5929
1.81753
2.23663
2.86906
3.71885
4.76335
5.94119
1.79092
1.61495
1.53613
1.59292
1.81755
2.23665
2.86909
3.71889
4.7634
5.94124
1.79095
1.61498
1.53616
1.59295
1.81759
2.23669
2.86914
3.71894
4.76347
5.94133
1.79099
1.61502
1.5362
1.59299
1.81763
2.23674
2.8692
3.71902
4.76356
5.94143
1.28336
1.18838
1.15853
1.21978
1.3942
1.6984
2.14103
2.71838
3.40908
4.17126
1.28333
1.18835
1.15851
1.21976
1.39417
1.69836
2.14098
2.71832
3.40902
4.17119
1.28332
1.18834
1.15849
1.21974
1.39414
1.69833
2.14095
2.71828
3.40897
4.17114
1.28331
1.18833
1.15848
1.21972
1.39413
1.69832
2.14093
2.71826
3.40894
4.1711
1.28331
1.18832
1.15848
1.21972
1.39412
1.69831
2.14092
2.71825
3.40893
4.17109
1.28331
1.18833
1.15848
1.21972
1.39413
1.69831
2.14092
2.71825
3.40894
4.17109
1.28332
1.18834
1.15849
1.21973
1.39414
1.69832
2.14094
2.71827
3.40896
4.17112
1.28334
1.18836
1.15851
1.21975
1.39416
1.69835
2.14096
2.7183
3.409
4.17117
1.28336
1.18838
1.15853
1.21978
1.39418
1.69838
2.141
2.71835
3.40905
4.17123
1.2834
1.18841
1.15856
1.21981
1.39422
1.69842
2.14105
2.71841
3.40913
4.17132
0.920915
0.878247
0.877719
0.937458
1.07276
1.29379
1.60327
1.9937
2.4451
2.92611
0.920897
0.878228
0.877698
0.937434
1.07274
1.29376
1.60323
1.99366
2.44505
2.92605
0.920884
0.878215
0.877683
0.937417
1.07272
1.29374
1.6032
1.99362
2.44501
2.92601
0.920877
0.878207
0.877675
0.937408
1.07271
1.29372
1.60319
1.99361
2.44499
2.92598
0.920876
0.878205
0.877672
0.937404
1.0727
1.29372
1.60318
1.9936
2.44498
2.92597
0.92088
0.878209
0.877675
0.937407
1.0727
1.29372
1.60318
1.9936
2.44499
2.92598
0.920889
0.878218
0.877684
0.937416
1.07271
1.29373
1.6032
1.99362
2.445
2.926
0.920903
0.878232
0.877699
0.937431
1.07273
1.29375
1.60322
1.99364
2.44504
2.92604
0.920924
0.878252
0.877719
0.937452
1.07275
1.29378
1.60325
1.99368
2.44508
2.92609
0.920949
0.878277
0.877745
0.93748
1.07278
1.29381
1.60329
1.99373
2.44514
2.92616
0.679094
0.67373
0.69184
0.749339
0.858448
1.02578
1.25054
1.5222
1.81827
2.10496
0.67908
0.673714
0.691823
0.749319
0.858425
1.02576
1.25051
1.52216
1.81823
2.10491
0.67907
0.673704
0.691811
0.749306
0.85841
1.02574
1.25049
1.52214
1.8182
2.10488
0.679064
0.673698
0.691805
0.749298
0.8584
1.02573
1.25048
1.52212
1.81818
2.10486
0.679063
0.673696
0.691803
0.749295
0.858397
1.02572
1.25047
1.52211
1.81818
2.10486
0.679066
0.673699
0.691805
0.749298
0.858399
1.02572
1.25047
1.52212
1.81818
2.10486
0.679074
0.673707
0.691813
0.749306
0.858408
1.02573
1.25049
1.52213
1.8182
2.10488
0.679086
0.673719
0.691825
0.749319
0.858422
1.02575
1.25051
1.52215
1.81822
2.10491
0.679102
0.673736
0.691843
0.749337
0.858443
1.02577
1.25053
1.52219
1.81826
2.10495
0.679123
0.673756
0.691864
0.749361
0.858469
1.02581
1.25057
1.52223
1.81831
2.10501
0.546116
0.569351
0.598791
0.655421
0.751584
0.892591
1.0758
1.28796
1.50026
1.65767
0.546106
0.56934
0.598779
0.655406
0.751567
0.892571
1.07578
1.28793
1.50023
1.65764
0.546098
0.569331
0.598769
0.655395
0.751554
0.892556
1.07576
1.28791
1.5002
1.65761
0.546093
0.569326
0.598763
0.655388
0.751546
0.892546
1.07575
1.2879
1.50019
1.6576
0.546093
0.569325
0.598761
0.655386
0.751543
0.892543
1.07574
1.2879
1.50019
1.65759
0.546095
0.569328
0.598764
0.655388
0.751545
0.892545
1.07574
1.2879
1.50019
1.6576
0.546102
0.569335
0.598771
0.655396
0.751553
0.892554
1.07576
1.28791
1.5002
1.65761
0.546112
0.569345
0.598782
0.655408
0.751567
0.89257
1.07577
1.28793
1.50023
1.65764
0.546126
0.56936
0.598798
0.655425
0.751585
0.892591
1.0758
1.28796
1.50026
1.65768
0.546143
0.569378
0.598817
0.655446
0.751609
0.892619
1.07583
1.288
1.5003
1.65772
41.4191
48.1143
51.6548
53.768
55.1
55.9557
56.5037
56.8458
57.0443
57.1353
41.4187
48.1138
51.6544
53.7675
55.0995
55.9552
56.5032
56.8453
57.0438
57.1349
41.4185
48.1135
51.6541
53.7672
55.0992
55.9548
56.5029
56.845
57.0435
57.1347
41.4183
48.1134
51.6539
53.767
55.099
55.9546
56.5027
56.8448
57.0434
57.1345
41.4182
48.1133
51.6538
53.7669
55.0989
55.9546
56.5026
56.8448
57.0433
57.1345
41.4182
48.1133
51.6538
53.767
55.099
55.9546
56.5027
56.8448
57.0434
57.1345
41.4183
48.1134
51.6539
53.7671
55.0991
55.9548
56.5028
56.845
57.0435
57.1347
41.4185
48.1136
51.6542
53.7673
55.0994
55.955
56.5031
56.8453
57.0438
57.135
41.4187
48.1139
51.6545
53.7677
55.0997
55.9554
56.5035
56.8456
57.0442
57.1354
41.419
48.1142
51.6548
53.768
55.1001
55.9558
56.5039
56.8461
57.0446
57.1358
28.6756
34.0493
37.4416
39.5897
40.9658
41.8515
42.4176
42.77
42.9739
43.0673
28.6753
34.049
37.4412
39.5893
40.9654
41.8511
42.4172
42.7696
42.9735
43.067
28.6751
34.0487
37.441
39.589
40.9651
41.8508
42.417
42.7694
42.9733
43.0668
28.6749
34.0486
37.4408
39.5889
40.965
41.8507
42.4168
42.7692
42.9732
43.0667
28.6749
34.0485
37.4407
39.5888
40.9649
41.8506
42.4168
42.7691
42.9731
43.0666
28.6749
34.0485
37.4408
39.5888
40.9649
41.8506
42.4168
42.7692
42.9732
43.0667
28.6749
34.0486
37.4409
39.589
40.965
41.8508
42.4169
42.7693
42.9733
43.0668
28.6751
34.0488
37.4411
39.5892
40.9653
41.851
42.4172
42.7696
42.9736
43.0671
28.6753
34.049
37.4413
39.5894
40.9656
41.8513
42.4175
42.7699
42.9739
43.0674
28.6755
34.0493
37.4417
39.5898
40.966
41.8517
42.4179
42.7703
42.9743
43.0679
20.3722
24.128
26.8325
28.688
29.9331
30.756
31.2903
31.6258
31.8211
31.9107
20.3719
24.1277
26.8322
28.6877
29.9328
30.7557
31.29
31.6255
31.8208
31.9105
20.3718
24.1275
26.832
28.6875
29.9325
30.7555
31.2898
31.6253
31.8206
31.9103
20.3716
24.1274
26.8319
28.6874
29.9324
30.7554
31.2896
31.6252
31.8205
31.9102
20.3716
24.1274
26.8318
28.6873
29.9323
30.7553
31.2896
31.6252
31.8204
31.9102
20.3716
24.1274
26.8319
28.6873
29.9324
30.7554
31.2896
31.6252
31.8205
31.9102
20.3717
24.1275
26.832
28.6874
29.9325
30.7555
31.2897
31.6253
31.8206
31.9104
20.3718
24.1276
26.8321
28.6876
29.9327
30.7557
31.2899
31.6255
31.8208
31.9106
20.372
24.1278
26.8323
28.6879
29.9329
30.7559
31.2902
31.6258
31.8211
31.9109
20.3722
24.1281
26.8326
28.6882
29.9333
30.7563
31.2906
31.6262
31.8215
31.9113
14.4935
17.036
19.0275
20.488
21.5162
22.2191
22.6862
22.9842
23.1594
23.2403
14.4933
17.0358
19.0273
20.4877
21.516
22.2189
22.6859
22.984
23.1591
23.2401
14.4932
17.0356
19.0272
20.4876
21.5158
22.2187
22.6858
22.9838
23.159
23.2399
14.4931
17.0356
19.0271
20.4875
21.5157
22.2186
22.6857
22.9837
23.1589
23.2399
14.4931
17.0355
19.027
20.4874
21.5156
22.2186
22.6856
22.9837
23.1589
23.2398
14.4931
17.0355
19.027
20.4874
21.5157
22.2186
22.6857
22.9837
23.1589
23.2399
14.4931
17.0356
19.0271
20.4875
21.5158
22.2187
22.6858
22.9838
23.159
23.24
14.4932
17.0357
19.0273
20.4877
21.5159
22.2189
22.6859
22.984
23.1592
23.2402
14.4934
17.0359
19.0274
20.4879
21.5161
22.2191
22.6862
22.9842
23.1594
23.2404
14.4936
17.0361
19.0277
20.4881
21.5164
22.2194
22.6865
22.9846
23.1598
23.2408
10.2341
11.9357
13.3421
14.4268
15.2233
15.7861
16.1695
16.4188
16.5671
16.6362
10.2339
11.9356
13.3419
14.4266
15.2231
15.7859
16.1693
16.4186
16.5669
16.636
10.2338
11.9355
13.3418
14.4265
15.223
15.7858
16.1692
16.4184
16.5668
16.6359
10.2337
11.9354
13.3417
14.4264
15.2229
15.7857
16.1691
16.4184
16.5668
16.6359
10.2337
11.9354
13.3416
14.4264
15.2229
15.7857
16.1691
16.4183
16.5667
16.6358
10.2337
11.9354
13.3417
14.4264
15.2229
15.7857
16.1691
16.4184
16.5668
16.6359
10.2338
11.9354
13.3417
14.4264
15.223
15.7858
16.1692
16.4185
16.5669
16.636
10.2339
11.9355
13.3418
14.4266
15.2231
15.7859
16.1694
16.4186
16.567
16.6361
10.234
11.9357
13.342
14.4267
15.2233
15.7861
16.1696
16.4188
16.5672
16.6363
10.2341
11.9358
13.3422
14.427
15.2235
15.7864
16.1698
16.4191
16.5675
16.6366
7.15132
8.27833
9.24341
10.0167
10.6048
11.0329
11.3318
11.5298
11.6492
11.7052
7.15121
8.2782
9.24327
10.0166
10.6046
11.0328
11.3317
11.5296
11.6491
11.7051
7.15113
8.27812
9.24318
10.0165
10.6045
11.0327
11.3316
11.5295
11.649
11.7051
7.15108
8.27806
9.24312
10.0164
10.6045
11.0326
11.3315
11.5295
11.6489
11.705
7.15106
8.27804
9.2431
10.0164
10.6045
11.0326
11.3315
11.5294
11.6489
11.705
7.15107
8.27805
9.24311
10.0164
10.6045
11.0326
11.3315
11.5295
11.6489
11.705
7.15111
8.2781
9.24316
10.0165
10.6045
11.0327
11.3316
11.5296
11.649
11.7051
7.15118
8.27818
9.24325
10.0166
10.6046
11.0328
11.3317
11.5297
11.6491
11.7052
7.15128
8.27829
9.24338
10.0167
10.6048
11.033
11.3319
11.5298
11.6493
11.7054
7.1514
8.27843
9.24354
10.0169
10.605
11.0332
11.3321
11.5301
11.6495
11.7056
4.94756
5.68052
6.325
6.85749
7.27476
7.58683
7.80969
7.96002
8.05195
8.09543
4.94748
5.68043
6.3249
6.85739
7.27465
7.58671
7.80958
7.95991
8.05184
8.09535
4.94742
5.68037
6.32483
6.85731
7.27457
7.58663
7.8095
7.95983
8.05177
8.09529
4.94738
5.68032
6.32478
6.85727
7.27453
7.58659
7.80945
7.95979
8.05173
8.09525
4.94736
5.68031
6.32477
6.85725
7.27451
7.58658
7.80944
7.95978
8.05172
8.09525
4.94737
5.68032
6.32478
6.85727
7.27453
7.5866
7.80946
7.9598
8.05175
8.09528
4.9474
5.68036
6.32482
6.85731
7.27458
7.58665
7.80952