/*--------------------------------*- C++ -*----------------------------------*\
  =========                 |
  \\      /  F ield         | OpenFOAM: The Open Source CFD Toolbox
   \\    /   O peration     | Website:  https://openfoam.org
    \\  /    A nd           | Version:  6
     \\/     M anipulation  |
\*---------------------------------------------------------------------------*/
FoamFile
{
    version     2.0;
    format      ascii;
    class       volScalarField;
    location    "0.755";
    object      T;
}
// * * * * * * * * * * * * * * * * * * * * * * * * * * * * * * * * * * * * * //

dimensions      [0 0 0 1 0 0 0];

internalField   nonuniform List<scalar> 
7000
(
106.322
106.321
106.317
106.312
106.306
106.299
106.292
106.286
106.282
106.28
106.322
106.321
106.317
106.312
106.306
106.299
106.292
106.286
106.282
106.28
106.322
106.321
106.317
106.312
106.306
106.299
106.292
106.286
106.282
106.28
106.322
106.321
106.317
106.312
106.306
106.299
106.292
106.286
106.282
106.28
106.322
106.321
106.317
106.312
106.306
106.299
106.292
106.286
106.282
106.28
106.322
106.321
106.317
106.312
106.306
106.299
106.292
106.286
106.282
106.28
106.322
106.321
106.317
106.312
106.306
106.299
106.292
106.286
106.282
106.28
106.322
106.321
106.317
106.312
106.306
106.299
106.292
106.286
106.282
106.28
106.322
106.321
106.317
106.312
106.306
106.299
106.292
106.286
106.282
106.28
106.322
106.321
106.317
106.312
106.306
106.299
106.292
106.286
106.282
106.28
98.992
98.9863
98.9753
98.9598
98.9409
98.9201
98.8995
98.8812
98.8674
98.86
98.992
98.9863
98.9753
98.9598
98.9409
98.9201
98.8995
98.8812
98.8674
98.86
98.992
98.9863
98.9753
98.9598
98.9408
98.9201
98.8995
98.8811
98.8674
98.86
98.992
98.9863
98.9753
98.9598
98.9408
98.9201
98.8994
98.8811
98.8674
98.86
98.992
98.9863
98.9753
98.9598
98.9408
98.9201
98.8994
98.8811
98.8674
98.8599
98.992
98.9863
98.9753
98.9598
98.9408
98.9201
98.8994
98.8811
98.8674
98.8599
98.992
98.9863
98.9753
98.9598
98.9408
98.9201
98.8994
98.8811
98.8674
98.8599
98.992
98.9863
98.9753
98.9598
98.9408
98.9201
98.8994
98.8811
98.8674
98.86
98.992
98.9863
98.9753
98.9598
98.9408
98.9201
98.8995
98.8811
98.8674
98.86
98.992
98.9863
98.9753
98.9598
98.9409
98.9201
98.8995
98.8812
98.8674
98.86
91.7353
91.7256
91.7067
91.6799
91.647
91.6107
91.5744
91.5419
91.5172
91.5039
91.7353
91.7255
91.7067
91.6798
91.647
91.6107
91.5744
91.5418
91.5172
91.5038
91.7353
91.7255
91.7066
91.6798
91.647
91.6107
91.5743
91.5418
91.5172
91.5038
91.7352
91.7255
91.7066
91.6798
91.647
91.6107
91.5743
91.5418
91.5172
91.5038
91.7352
91.7255
91.7066
91.6798
91.6469
91.6107
91.5743
91.5418
91.5172
91.5038
91.7352
91.7255
91.7066
91.6798
91.6469
91.6107
91.5743
91.5418
91.5171
91.5038
91.7352
91.7255
91.7066
91.6798
91.6469
91.6107
91.5743
91.5418
91.5172
91.5038
91.7352
91.7255
91.7066
91.6798
91.647
91.6107
91.5743
91.5418
91.5172
91.5038
91.7353
91.7255
91.7066
91.6798
91.647
91.6107
91.5743
91.5418
91.5172
91.5038
91.7353
91.7255
91.7066
91.6798
91.647
91.6107
91.5744
91.5418
91.5172
91.5038
84.6004
84.5862
84.5587
84.5193
84.4706
84.4162
84.3611
84.311
84.2726
84.2516
84.6004
84.5862
84.5586
84.5193
84.4706
84.4162
84.3611
84.311
84.2726
84.2516
84.6004
84.5862
84.5586
84.5192
84.4705
84.4162
84.361
84.311
84.2726
84.2515
84.6004
84.5862
84.5586
84.5192
84.4705
84.4162
84.361
84.311
84.2725
84.2515
84.6004
84.5862
84.5586
84.5192
84.4705
84.4162
84.361
84.311
84.2725
84.2515
84.6004
84.5862
84.5586
84.5192
84.4705
84.4162
84.361
84.311
84.2725
84.2515
84.6004
84.5862
84.5586
84.5192
84.4705
84.4162
84.361
84.311
84.2725
84.2515
84.6004
84.5862
84.5586
84.5192
84.4705
84.4162
84.361
84.311
84.2725
84.2515
84.6004
84.5862
84.5586
84.5192
84.4705
84.4162
84.361
84.311
84.2726
84.2515
84.6004
84.5862
84.5586
84.5193
84.4706
84.4162
84.3611
84.311
84.2726
84.2516
77.6339
77.6149
77.5777
77.5241
77.457
77.381
77.3024
77.2295
77.1723
77.1405
77.6339
77.6149
77.5777
77.524
77.457
77.381
77.3024
77.2295
77.1723
77.1405
77.6339
77.6148
77.5776
77.524
77.457
77.381
77.3023
77.2295
77.1723
77.1405
77.6339
77.6148
77.5776
77.524
77.457
77.3809
77.3023
77.2295
77.1723
77.1404
77.6338
77.6148
77.5776
77.524
77.4569
77.3809
77.3023
77.2295
77.1723
77.1404
77.6338
77.6148
77.5776
77.524
77.4569
77.3809
77.3023
77.2294
77.1722
77.1404
77.6338
77.6148
77.5776
77.524
77.4569
77.3809
77.3023
77.2295
77.1723
77.1404
77.6338
77.6148
77.5776
77.524
77.457
77.3809
77.3023
77.2295
77.1723
77.1405
77.6339
77.6148
77.5776
77.524
77.457
77.381
77.3023
77.2295
77.1723
77.1405
77.6339
77.6149
77.5777
77.5241
77.457
77.381
77.3024
77.2295
77.1723
77.1405
70.8801
70.8559
70.8082
70.7387
70.6504
70.5482
70.4397
70.3359
70.2516
70.2033
70.8801
70.8558
70.8081
70.7386
70.6504
70.5482
70.4397
70.3359
70.2516
70.2033
70.8801
70.8558
70.8081
70.7386
70.6503
70.5482
70.4396
70.3358
70.2515
70.2032
70.88
70.8558
70.8081
70.7386
70.6503
70.5481
70.4396
70.3358
70.2515
70.2032
70.88
70.8558
70.8081
70.7386
70.6503
70.5481
70.4396
70.3358
70.2515
70.2032
70.88
70.8558
70.8081
70.7386
70.6503
70.5481
70.4396
70.3358
70.2515
70.2032
70.88
70.8558
70.8081
70.7386
70.6503
70.5481
70.4396
70.3358
70.2515
70.2032
70.88
70.8558
70.8081
70.7386
70.6503
70.5481
70.4396
70.3358
70.2515
70.2032
70.8801
70.8558
70.8081
70.7386
70.6504
70.5482
70.4396
70.3358
70.2516
70.2033
70.8801
70.8558
70.8081
70.7387
70.6504
70.5482
70.4397
70.3359
70.2516
70.2033
64.3804
64.3508
64.2922
64.2056
64.0936
63.9603
63.8136
63.6668
63.5411
63.4652
64.3804
64.3508
64.2921
64.2056
64.0935
63.9603
63.8136
63.6667
63.541
63.4651
64.3803
64.3507
64.2921
64.2056
64.0935
63.9602
63.8135
63.6667
63.541
63.4651
64.3803
64.3507
64.2921
64.2055
64.0935
63.9602
63.8135
63.6667
63.541
63.4651
64.3803
64.3507
64.292
64.2055
64.0935
63.9602
63.8135
63.6667
63.541
63.4651
64.3803
64.3507
64.292
64.2055
64.0935
63.9602
63.8135
63.6667
63.541
63.4651
64.3803
64.3507
64.2921
64.2055
64.0935
63.9602
63.8135
63.6667
63.541
63.4651
64.3803
64.3507
64.2921
64.2055
64.0935
63.9602
63.8135
63.6667
63.541
63.4651
64.3803
64.3507
64.2921
64.2056
64.0935
63.9603
63.8135
63.6667
63.541
63.4651
64.3804
64.3508
64.2921
64.2056
64.0936
63.9603
63.8136
63.6668
63.5411
63.4652
58.1725
58.1379
58.0688
57.9653
57.8283
57.6599
57.4657
57.2587
57.0663
56.9386
58.1725
58.1379
58.0687
57.9653
57.8283
57.6599
57.4657
57.2586
57.0663
56.9386
58.1725
58.1378
58.0687
57.9652
57.8282
57.6599
57.4657
57.2586
57.0662
56.9385
58.1724
58.1378
58.0687
57.9652
57.8282
57.6598
57.4656
57.2586
57.0662
56.9385
58.1724
58.1378
58.0687
57.9652
57.8282
57.6598
57.4656
57.2586
57.0662
56.9385
58.1724
58.1378
58.0687
57.9652
57.8282
57.6598
57.4656
57.2586
57.0662
56.9385
58.1724
58.1378
58.0687
57.9652
57.8282
57.6598
57.4656
57.2586
57.0662
56.9385
58.1724
58.1378
58.0687
57.9652
57.8282
57.6598
57.4656
57.2586
57.0662
56.9385
58.1725
58.1378
58.0687
57.9653
57.8282
57.6599
57.4657
57.2586
57.0663
56.9386
58.1725
58.1379
58.0687
57.9653
57.8283
57.6599
57.4657
57.2587
57.0663
56.9386
52.2896
52.251
52.1733
52.0553
51.8954
51.6915
51.4426
51.1538
50.8502
50.6111
52.2896
52.251
52.1732
52.0553
51.8954
51.6914
51.4426
51.1538
50.8502
50.611
52.2895
52.2509
52.1732
52.0552
51.8953
51.6914
51.4425
51.1537
50.8501
50.611
52.2895
52.2509
52.1732
52.0552
51.8953
51.6914
51.4425
51.1537
50.8501
50.611
52.2895
52.2509
52.1732
52.0552
51.8953
51.6913
51.4425
51.1537
50.8501
50.6109
52.2895
52.2509
52.1732
52.0552
51.8953
51.6913
51.4425
51.1537
50.8501
50.6109
52.2895
52.2509
52.1732
52.0552
51.8953
51.6914
51.4425
51.1537
50.8501
50.6109
52.2895
52.2509
52.1732
52.0552
51.8953
51.6914
51.4425
51.1537
50.8501
50.611
52.2895
52.2509
52.1732
52.0553
51.8953
51.6914
51.4425
51.1538
50.8502
50.611
52.2896
52.251
52.1733
52.0553
51.8954
51.6915
51.4426
51.1538
50.8502
50.6111
46.7591
46.7184
46.6359
46.5093
46.3339
46.1022
45.8017
45.415
44.9297
44.4107
46.759
46.7183
46.6359
46.5092
46.3339
46.1021
45.8016
45.4149
44.9296
44.4107
46.759
46.7183
46.6358
46.5092
46.3338
46.1021
45.8016
45.4149
44.9295
44.4106
46.759
46.7183
46.6358
46.5091
46.3338
46.102
45.8016
45.4149
44.9295
44.4106
46.759
46.7182
46.6358
46.5091
46.3338
46.102
45.8015
45.4148
44.9295
44.4106
46.759
46.7182
46.6358
46.5091
46.3338
46.102
45.8015
45.4148
44.9295
44.4106
46.759
46.7183
46.6358
46.5091
46.3338
46.102
45.8015
45.4149
44.9295
44.4106
46.759
46.7183
46.6358
46.5092
46.3338
46.1021
45.8016
45.4149
44.9295
44.4106
46.759
46.7183
46.6358
46.5092
46.3338
46.1021
45.8016
45.4149
44.9296
44.4107
46.759
46.7183
46.6359
46.5092
46.3339
46.1021
45.8017
45.415
44.9296
44.4107
41.6017
41.5616
41.4801
41.3542
41.1779
40.9395
40.6157
40.1564
39.4388
38.1011
41.6017
41.5615
41.48
41.3542
41.1779
40.9395
40.6156
40.1564
39.4387
38.1011
41.6016
41.5615
41.48
41.3541
41.1778
40.9394
40.6156
40.1563
39.4387
38.101
41.6016
41.5615
41.48
41.3541
41.1778
40.9394
40.6155
40.1563
39.4387
38.101
41.6016
41.5614
41.48
41.3541
41.1778
40.9394
40.6155
40.1563
39.4386
38.101
41.6016
41.5614
41.48
41.3541
41.1778
40.9394
40.6155
40.1563
39.4386
38.101
41.6016
41.5614
41.48
41.3541
41.1778
40.9394
40.6155
40.1563
39.4387
38.101
41.6016
41.5615
41.48
41.3541
41.1778
40.9394
40.6156
40.1563
39.4387
38.101
41.6016
41.5615
41.48
41.3542
41.1779
40.9394
40.6156
40.1564
39.4387
38.101
41.6017
41.5615
41.4801
41.3542
41.1779
40.9395
40.6157
40.1564
39.4388
38.1011
36.8305
36.7941
36.7205
36.6073
36.45
36.2388
35.9554
35.5639
34.9987
34.1598
36.8304
36.794
36.7204
36.6073
36.4499
36.2388
35.9553
35.5639
34.9986
34.1597
36.8304
36.794
36.7204
36.6072
36.4499
36.2387
35.9553
35.5638
34.9985
34.1596
36.8303
36.7939
36.7203
36.6072
36.4498
36.2387
35.9552
35.5638
34.9985
34.1596
36.8303
36.7939
36.7203
36.6072
36.4498
36.2387
35.9552
35.5638
34.9985
34.1596
36.8303
36.7939
36.7203
36.6072
36.4498
36.2387
35.9552
35.5638
34.9985
34.1596
36.8303
36.7939
36.7203
36.6072
36.4498
36.2387
35.9552
35.5638
34.9985
34.1596
36.8303
36.794
36.7203
36.6072
36.4499
36.2387
35.9553
35.5638
34.9985
34.1596
36.8304
36.794
36.7204
36.6073
36.4499
36.2388
35.9553
35.5639
34.9986
34.1597
36.8304
36.794
36.7204
36.6073
36.4499
36.2388
35.9554
35.5639
34.9986
34.1597
32.4502
32.4206
32.3614
32.2725
32.1529
32
31.8086
31.5712
31.2845
30.9787
32.4501
32.4205
32.3614
32.2725
32.1529
31.9999
31.8085
31.5711
31.2844
30.9786
32.4501
32.4205
32.3613
32.2724
32.1528
31.9999
31.8085
31.5711
31.2844
30.9785
32.45
32.4204
32.3613
32.2724
32.1528
31.9998
31.8084
31.5711
31.2843
30.9785
32.45
32.4204
32.3613
32.2724
32.1528
31.9998
31.8084
31.571
31.2843
30.9785
32.45
32.4204
32.3613
32.2724
32.1528
31.9998
31.8084
31.571
31.2843
30.9785
32.45
32.4204
32.3613
32.2724
32.1528
31.9998
31.8084
31.5711
31.2843
30.9785
32.4501
32.4205
32.3613
32.2724
32.1528
31.9999
31.8085
31.5711
31.2844
30.9785
32.4501
32.4205
32.3614
32.2725
32.1529
31.9999
31.8085
31.5711
31.2844
30.9786
32.4501
32.4205
32.3614
32.2725
32.1529
32
31.8086
31.5712
31.2845
30.9787
28.4577
28.4372
28.3976
28.3413
28.2723
28.1962
28.1218
28.0639
28.0531
28.1557
28.4577
28.4372
28.3975
28.3412
28.2722
28.1961
28.1217
28.0638
28.053
28.1557
28.4576
28.4371
28.3975
28.3412
28.2722
28.1961
28.1217
28.0638
28.0529
28.1556
28.4576
28.4371
28.3975
28.3411
28.2721
28.1961
28.1216
28.0638
28.0529
28.1556
28.4576
28.4371
28.3974
28.3411
28.2721
28.1961
28.1216
28.0637
28.0529
28.1555
28.4576
28.4371
28.3974
28.3411
28.2721
28.1961
28.1216
28.0637
28.0529
28.1555
28.4576
28.4371
28.3974
28.3411
28.2721
28.1961
28.1216
28.0638
28.0529
28.1556
28.4576
28.4371
28.3975
28.3412
28.2721
28.1961
28.1216
28.0638
28.0529
28.1556
28.4577
28.4372
28.3975
28.3412
28.2722
28.1961
28.1217
28.0638
28.053
28.1556
28.4577
28.4372
28.3976
28.3413
28.2722
28.1962
28.1217
28.0639
28.053
28.1557
24.8431
24.8329
24.8152
24.7954
24.7822
24.7888
24.8347
24.9487
25.1751
25.5815
24.843
24.8328
24.8152
24.7954
24.7822
24.7888
24.8346
24.9486
25.175
25.5814
24.843
24.8328
24.8151
24.7953
24.7821
24.7887
24.8346
24.9486
25.175
25.5814
24.8429
24.8328
24.8151
24.7953
24.7821
24.7887
24.8345
24.9486
25.1749
25.5813
24.8429
24.8328
24.8151
24.7953
24.7821
24.7887
24.8345
24.9486
25.1749
25.5813
24.8429
24.8328
24.8151
24.7953
24.7821
24.7887
24.8345
24.9485
25.1749
25.5813
24.8429
24.8328
24.8151
24.7953
24.7821
24.7887
24.8345
24.9486
25.1749
25.5813
24.8429
24.8328
24.8151
24.7953
24.7821
24.7887
24.8345
24.9486
25.175
25.5814
24.843
24.8328
24.8152
24.7953
24.7822
24.7888
24.8346
24.9486
25.175
25.5814
24.843
24.8329
24.8152
24.7954
24.7822
24.7888
24.8347
24.9487
25.1751
25.5815
21.5904
21.5906
21.5948
21.6108
21.6516
21.7362
21.8922
22.1572
22.5812
23.2246
21.5904
21.5906
21.5947
21.6108
21.6515
21.7361
21.8921
22.1572
22.5811
23.2246
21.5903
21.5905
21.5947
21.6107
21.6515
21.7361
21.892
22.1571
22.5811
23.2245
21.5903
21.5905
21.5947
21.6107
21.6514
21.7361
21.892
22.1571
22.581
23.2245
21.5903
21.5905
21.5947
21.6107
21.6514
21.736
21.892
22.1571
22.581
23.2245
21.5903
21.5905
21.5947
21.6107
21.6514
21.736
21.892
22.1571
22.581
23.2245
21.5903
21.5905
21.5947
21.6107
21.6514
21.7361
21.892
22.1571
22.581
23.2245
21.5903
21.5905
21.5947
21.6107
21.6515
21.7361
21.892
22.1571
22.5811
23.2245
21.5904
21.5906
21.5947
21.6108
21.6515
21.7361
21.8921
22.1572
22.5811
23.2246
21.5904
21.5906
21.5948
21.6108
21.6515
21.7362
21.8921
22.1572
22.5812
23.2246
18.6803
18.6897
18.7132
18.7604
18.8472
18.9974
19.2447
19.6345
20.2235
21.0711
18.6803
18.6897
18.7131
18.7603
18.8471
18.9973
19.2446
19.6345
20.2235
21.071
18.6802
18.6896
18.7131
18.7603
18.8471
18.9973
19.2446
19.6344
20.2234
21.071
18.6802
18.6896
18.7131
18.7603
18.8471
18.9973
19.2445
19.6344
20.2234
21.0709
18.6802
18.6896
18.713
18.7602
18.8471
18.9972
19.2445
19.6344
20.2234
21.0709
18.6802
18.6896
18.713
18.7602
18.8471
18.9972
19.2445
19.6344
20.2234
21.0709
18.6802
18.6896
18.7131
18.7603
18.8471
18.9973
19.2445
19.6344
20.2234
21.0709
18.6802
18.6896
18.7131
18.7603
18.8471
18.9973
19.2446
19.6344
20.2234
21.071
18.6803
18.6897
18.7131
18.7603
18.8471
18.9973
19.2446
19.6345
20.2235
21.071
18.6803
18.6897
18.7132
18.7604
18.8472
18.9974
19.2447
19.6345
20.2235
21.0711
16.0909
16.1075
16.1457
16.2163
16.3367
16.5335
16.8454
17.3268
18.0501
19.0952
16.0909
16.1075
16.1457
16.2162
16.3366
16.5334
16.8453
17.3268
18.0501
19.0952
16.0909
16.1074
16.1457
16.2162
16.3366
16.5334
16.8453
17.3267
18.05
19.0951
16.0908
16.1074
16.1456
16.2162
16.3365
16.5334
16.8452
17.3267
18.05
19.0951
16.0908
16.1074
16.1456
16.2162
16.3365
16.5333
16.8452
17.3267
18.05
19.0951
16.0908
16.1074
16.1456
16.2162
16.3365
16.5333
16.8452
17.3267
18.05
19.0951
16.0908
16.1074
16.1456
16.2162
16.3365
16.5334
16.8452
17.3267
18.05
19.0951
16.0909
16.1074
16.1457
16.2162
16.3366
16.5334
16.8453
17.3268
18.05
19.0951
16.0909
16.1075
16.1457
16.2162
16.3366
16.5334
16.8453
17.3268
18.0501
19.0952
16.0909
16.1075
16.1457
16.2163
16.3367
16.5335
16.8454
17.3269
18.0502
19.0952
13.7998
13.8209
13.8683
13.9523
14.0904
14.3094
14.6496
15.1734
15.9798
17.2206
13.7997
13.8209
13.8682
13.9522
14.0904
14.3093
14.6495
15.1734
15.9797
17.2205
13.7997
13.8209
13.8682
13.9522
14.0903
14.3093
14.6495
15.1734
15.9797
17.2205
13.7997
13.8208
13.8682
13.9522
14.0903
14.3092
14.6495
15.1733
15.9796
17.2205
13.7997
13.8208
13.8682
13.9522
14.0903
14.3092
14.6494
15.1733
15.9796
17.2204
13.7997
13.8208
13.8682
13.9522
14.0903
14.3092
14.6495
15.1733
15.9796
17.2204
13.7997
13.8208
13.8682
13.9522
14.0903
14.3093
14.6495
15.1733
15.9796
17.2205
13.7997
13.8209
13.8682
13.9522
14.0903
14.3093
14.6495
15.1734
15.9797
17.2205
13.7997
13.8209
13.8682
13.9523
14.0904
14.3093
14.6495
15.1734
15.9797
17.2205
13.7998
13.8209
13.8683
13.9523
14.0904
14.3094
14.6496
15.1735
15.9798
17.2206
11.7848
11.8078
11.8584
11.9456
12.0847
12.2984
12.6215
13.1107
13.8759
15.1962
11.7847
11.8078
11.8583
11.9456
12.0847
12.2984
12.6215
13.1106
13.8758
15.1961
11.7847
11.8077
11.8583
11.9456
12.0846
12.2984
12.6214
13.1106
13.8758
15.1961
11.7847
11.8077
11.8583
11.9455
12.0846
12.2983
12.6214
13.1106
13.8758
15.1961
11.7847
11.8077
11.8583
11.9455
12.0846
12.2983
12.6214
13.1105
13.8758
15.1961
11.7847
11.8077
11.8583
11.9455
12.0846
12.2983
12.6214
13.1105
13.8758
15.1961
11.7847
11.8077
11.8583
11.9455
12.0846
12.2983
12.6214
13.1106
13.8758
15.1961
11.7847
11.8077
11.8583
11.9456
12.0846
12.2984
12.6214
13.1106
13.8758
15.1961
11.7847
11.8078
11.8583
11.9456
12.0847
12.2984
12.6215
13.1106
13.8758
15.1962
11.7847
11.8078
11.8584
11.9456
12.0847
12.2985
12.6215
13.1107
13.8759
15.1962
34.8593
33.9549
34.6909
36.8437
40.4004
45.4858
52.3646
61.5066
73.7631
90.8382
34.8592
33.9548
34.6908
36.8436
40.4003
45.4857
52.3644
61.5064
73.7629
90.838
34.8591
33.9548
34.6907
36.8435
40.4002
45.4856
52.3643
61.5063
73.7628
90.8379
34.8591
33.9547
34.6907
36.8434
40.4002
45.4855
52.3643
61.5063
73.7627
90.8379
34.8591
33.9547
34.6906
36.8434
40.4002
45.4855
52.3642
61.5062
73.7627
90.8378
34.859
33.9547
34.6906
36.8434
40.4001
45.4855
52.3642
61.5062
73.7627
90.8378
34.8591
33.9547
34.6906
36.8434
40.4002
45.4855
52.3643
61.5063
73.7627
90.8378
34.8591
33.9547
34.6907
36.8434
40.4002
45.4855
52.3643
61.5063
73.7628
90.8379
34.8591
33.9548
34.6907
36.8435
40.4003
45.4856
52.3644
61.5064
73.7628
90.838
34.8592
33.9548
34.6908
36.8436
40.4003
45.4857
52.3644
61.5065
73.7629
90.8381
33.0479
32.8939
33.9026
36.1158
39.5946
44.4607
50.9139
59.2469
69.8384
82.999
33.0478
32.8938
33.9025
36.1157
39.5945
44.4606
50.9138
59.2468
69.8383
82.9989
33.0478
32.8937
33.9024
36.1156
39.5944
44.4605
50.9137
59.2467
69.8382
82.9988
33.0477
32.8936
33.9024
36.1156
39.5944
44.4605
50.9136
59.2466
69.8381
82.9987
33.0477
32.8936
33.9023
36.1156
39.5943
44.4604
50.9136
59.2466
69.8381
82.9987
33.0477
32.8936
33.9023
36.1156
39.5943
44.4604
50.9136
59.2466
69.8381
82.9987
33.0477
32.8936
33.9023
36.1156
39.5944
44.4604
50.9136
59.2466
69.8381
82.9987
33.0477
32.8937
33.9024
36.1156
39.5944
44.4605
50.9137
59.2467
69.8382
82.9988
33.0478
32.8937
33.9024
36.1157
39.5945
44.4605
50.9137
59.2467
69.8382
82.9988
33.0479
32.8938
33.9025
36.1158
39.5946
44.4606
50.9138
59.2468
69.8384
82.999
30.8124
31.2511
32.5379
34.7971
38.1221
42.6142
48.3928
55.58
64.235
74.1699
30.8123
31.251
32.5378
34.797
38.122
42.6141
48.3927
55.5799
64.2348
74.1698
30.8122
31.2509
32.5377
34.7969
38.1219
42.614
48.3926
55.5798
64.2347
74.1697
30.8122
31.2509
32.5377
34.7969
38.1218
42.6139
48.3926
55.5797
64.2347
74.1696
30.8121
31.2509
32.5376
34.7968
38.1218
42.6139
48.3925
55.5797
64.2346
74.1696
30.8121
31.2509
32.5376
34.7968
38.1218
42.6139
48.3925
55.5797
64.2346
74.1696
30.8122
31.2509
32.5376
34.7968
38.1218
42.6139
48.3925
55.5797
64.2347
74.1696
30.8122
31.2509
32.5377
34.7969
38.1219
42.614
48.3926
55.5797
64.2347
74.1697
30.8122
31.251
32.5377
34.797
38.1219
42.6141
48.3927
55.5798
64.2348
74.1698
30.8123
31.251
32.5378
34.797
38.122
42.6142
48.3928
55.5799
64.2349
74.1699
28.5098
29.3417
30.8269
33.0837
36.1984
40.2412
45.2662
51.289
58.2337
65.833
28.5097
29.3416
30.8268
33.0836
36.1983
40.2411
45.266
51.2889
58.2336
65.8329
28.5096
29.3415
30.8267
33.0835
36.1982
40.241
45.266
51.2888
58.2335
65.8328
28.5096
29.3415
30.8267
33.0835
36.1981
40.241
45.2659
51.2888
58.2334
65.8327
28.5096
29.3415
30.8266
33.0834
36.1981
40.2409
45.2659
51.2887
58.2334
65.8327
28.5096
29.3415
30.8266
33.0834
36.1981
40.2409
45.2659
51.2887
58.2334
65.8327
28.5096
29.3415
30.8266
33.0834
36.1981
40.241
45.2659
51.2888
58.2334
65.8327
28.5096
29.3415
30.8267
33.0835
36.1982
40.241
45.2659
51.2888
58.2335
65.8328
28.5097
29.3416
30.8268
33.0836
36.1983
40.2411
45.266
51.2889
58.2336
65.8329
28.5098
29.3417
30.8268
33.0837
36.1984
40.2412
45.2661
51.289
58.2337
65.833
26.2673
27.3581
28.9662
31.178
34.0557
37.6382
41.9351
46.9095
52.4481
58.324
26.2672
27.358
28.9661
31.1779
34.0556
37.6381
41.935
46.9094
52.448
58.3239
26.2672
27.3579
28.966
31.1778
34.0555
37.638
41.9349
46.9093
52.4479
58.3238
26.2671
27.3579
28.966
31.1777
34.0555
37.638
41.9349
46.9092
52.4478
58.3237
26.2671
27.3579
28.9659
31.1777
34.0554
37.638
41.9349
46.9092
52.4478
58.3237
26.2671
27.3579
28.9659
31.1777
34.0554
37.638
41.9348
46.9092
52.4478
58.3237
26.2671
27.3579
28.9659
31.1777
34.0554
37.638
41.9349
46.9092
52.4478
58.3237
26.2672
27.3579
28.966
31.1778
34.0555
37.638
41.9349
46.9093
52.4479
58.3238
26.2672
27.358
28.9661
31.1779
34.0556
37.6381
41.935
46.9094
52.448
58.3239
26.2673
27.3581
28.9661
31.1779
34.0557
37.6382
41.9351
46.9095
52.4481
58.324
24.1536
25.431
27.1173
29.2645
31.9088
35.0631
38.7088
42.7856
47.1802
51.7222
24.1536
25.4309
27.1172
29.2644
31.9087
35.063
38.7087
42.7855
47.1801
51.7221
24.1535
25.4309
27.1171
29.2644
31.9086
35.0629
38.7086
42.7854
47.18
51.722
24.1535
25.4308
27.1171
29.2643
31.9086
35.0628
38.7086
42.7853
47.1799
51.7219
24.1534
25.4308
27.1171
29.2643
31.9085
35.0628
38.7086
42.7853
47.1799
51.7219
24.1534
25.4308
27.1171
29.2643
31.9085
35.0628
38.7086
42.7853
47.1799
51.7219
24.1535
25.4308
27.1171
29.2643
31.9086
35.0628
38.7086
42.7853
47.1799
51.722
24.1535
25.4309
27.1171
29.2643
31.9086
35.0629
38.7086
42.7854
47.18
51.722
24.1535
25.4309
27.1172
29.2644
31.9087
35.063
38.7087
42.7855
47.1801
51.7221
24.1536
25.431
27.1173
29.2645
31.9088
35.0631
38.7088
42.7856
47.1802
51.7222
22.2175
23.661
25.415
27.5035
29.9429
32.7277
35.821
39.1489
42.6023
46.0525
22.2174
23.6609
25.4149
27.5034
29.9428
32.7276
35.8209
39.1488
42.6021
46.0523
22.2173
23.6608
25.4149
27.5034
29.9427
32.7275
35.8208
39.1487
42.602
46.0523
22.2173
23.6608
25.4148
27.5033
29.9427
32.7275
35.8208
39.1487
42.602
46.0522
22.2173
23.6607
25.4148
27.5033
29.9427
32.7275
35.8207
39.1486
42.602
46.0522
22.2173
23.6608
25.4148
27.5033
29.9427
32.7275
35.8207
39.1486
42.602
46.0522
22.2173
23.6608
25.4148
27.5033
29.9427
32.7275
35.8208
39.1487
42.602
46.0522
22.2173
23.6608
25.4149
27.5034
29.9427
32.7275
35.8208
39.1487
42.6021
46.0523
22.2174
23.6609
25.4149
27.5034
29.9428
32.7276
35.8209
39.1488
42.6021
46.0524
22.2175
23.661
25.415
27.5035
29.9429
32.7277
35.821
39.1489
42.6023
46.0525
20.4992
22.1365
23.9766
26.032
28.3129
30.8041
33.4552
36.1764
38.8463
41.3429
20.4991
22.1364
23.9765
26.032
28.3128
30.804
33.4551
36.1763
38.8462
41.3427
20.4991
22.1364
23.9765
26.0319
28.3127
30.804
33.455
36.1762
38.8461
41.3427
20.499
22.1363
23.9764
26.0318
28.3126
30.8039
33.455
36.1762
38.8461
41.3426
20.499
22.1363
23.9764
26.0318
28.3126
30.8039
33.455
36.1762
38.8461
41.3426
20.499
22.1363
23.9764
26.0318
28.3126
30.8039
33.455
36.1762
38.8461
41.3426
20.499
22.1363
23.9764
26.0319
28.3126
30.8039
33.455
36.1762
38.8461
41.3426
20.4991
22.1364
23.9765
26.0319
28.3127
30.804
33.4551
36.1763
38.8461
41.3427
20.4991
22.1364
23.9765
26.032
28.3128
30.804
33.4551
36.1764
38.8462
41.3428
20.4992
22.1365
23.9766
26.0321
28.3129
30.8041
33.4553
36.1765
38.8464
41.3429
19.0493
20.9547
22.9122
24.967
27.1447
29.4311
31.7643
34.0307
36.0646
37.6728
19.0492
20.9546
22.9121
24.9669
27.1447
29.431
31.7642
34.0306
36.0645
37.6727
19.0492
20.9545
22.912
24.9668
27.1446
29.431
31.7642
34.0305
36.0644
37.6726
19.0491
20.9545
22.912
24.9668
27.1445
29.4309
31.7641
34.0305
36.0644
37.6725
19.0491
20.9545
22.912
24.9667
27.1445
29.4309
31.7641
34.0304
36.0644
37.6725
19.0491
20.9545
22.912
24.9667
27.1445
29.4309
31.7641
34.0304
36.0644
37.6725
19.0491
20.9545
22.912
24.9668
27.1446
29.4309
31.7641
34.0305
36.0644
37.6725
19.0492
20.9546
22.912
24.9668
27.1446
29.431
31.7642
34.0305
36.0645
37.6726
19.0492
20.9546
22.9121
24.9669
27.1447
29.4311
31.7643
34.0306
36.0646
37.6727
19.0493
20.9547
22.9122
24.967
27.1448
29.4312
31.7644
34.0307
36.0647
37.6728
18.0095
20.256
22.3318
24.4038
26.5336
28.7141
30.8763
32.8813
34.4942
35.3123
18.0094
20.2559
22.3317
24.4037
26.5336
28.714
30.8762
32.8812
34.4941
35.3122
18.0094
20.2559
22.3317
24.4037
26.5335
28.714
30.8761
32.8812
34.494
35.3121
18.0093
20.2558
22.3316
24.4036
26.5335
28.7139
30.8761
32.8811
34.494
35.3121
18.0093
20.2558
22.3316
24.4036
26.5334
28.7139
30.8761
32.8811
34.494
35.312
18.0093
20.2558
22.3316
24.4036
26.5334
28.7139
30.8761
32.8811
34.494
35.3121
18.0093
20.2558
22.3316
24.4036
26.5335
28.714
30.8761
32.8811
34.494
35.3121
18.0094
20.2559
22.3317
24.4037
26.5335
28.714
30.8762
32.8812
34.4941
35.3121
18.0094
20.2559
22.3317
24.4038
26.5336
28.7141
30.8762
32.8813
34.4941
35.3122
18.0095
20.256
22.3318
24.4038
26.5337
28.7142
30.8764
32.8814
34.4943
35.3124
116.681
128.973
136.508
141.783
145.686
148.617
150.789
152.33
153.32
153.804
116.681
128.973
136.507
141.783
145.686
148.617
150.789
152.33
153.32
153.804
116.681
128.972
136.507
141.783
145.686
148.617
150.789
152.33
153.32
153.804
116.681
128.972
136.507
141.782
145.686
148.617
150.789
152.33
153.32
153.803
116.681
128.972
136.507
141.782
145.686
148.617
150.789
152.33
153.319
153.803
116.681
128.972
136.507
141.782
145.686
148.617
150.789
152.33
153.319
153.803
116.681
128.972
136.507
141.782
145.686
148.617
150.789
152.33
153.32
153.804
116.681
128.972
136.507
141.783
145.686
148.617
150.789
152.33
153.32
153.804
116.681
128.973
136.507
141.783
145.686
148.617
150.789
152.33
153.32
153.804
116.681
128.973
136.508
141.783
145.686
148.617
150.789
152.33
153.32
153.804
98.0751
109.046
116.804
122.434
126.613
129.736
132.038
133.664
134.704
135.212
98.0749
109.046
116.803
122.434
126.613
129.736
132.038
133.664
134.704
135.212
98.0748
109.046
116.803
122.434
126.613
129.736
132.038
133.663
134.704
135.212
98.0748
109.046
116.803
122.434
126.613
129.736
132.038
133.663
134.704
135.212
98.0747
109.046
116.803
122.434
126.613
129.736
132.037
133.663
134.704
135.212
98.0747
109.046
116.803
122.434
126.613
129.736
132.038
133.663
134.704
135.212
98.0747
109.046
116.803
122.434
126.613
129.736
132.038
133.663
134.704
135.212
98.0748
109.046
116.803
122.434
126.613
129.736
132.038
133.663
134.704
135.212
98.0749
109.046
116.803
122.434
126.613
129.736
132.038
133.664
134.704
135.212
98.075
109.046
116.804
122.434
126.613
129.736
132.038
133.664
134.704
135.212
84.5299
93.3142
100.23
105.558
109.636
112.73
115.027
116.656
117.7
118.21
84.5297
93.3141
100.23
105.558
109.636
112.73
115.027
116.655
117.7
118.21
84.5296
93.314
100.23
105.558
109.636
112.729
115.027
116.655
117.699
118.21
84.5295
93.3139
100.229
105.558
109.636
112.729
115.027
116.655
117.699
118.21
84.5295
93.3138
100.229
105.558
109.636
112.729
115.026
116.655
117.699
118.21
84.5295
93.3138
100.229
105.558
109.636
112.729
115.026
116.655
117.699
118.21
84.5295
93.3139
100.229
105.558
109.636
112.729
115.027
116.655
117.699
118.21
84.5296
93.3139
100.23
105.558
109.636
112.729
115.027
116.655
117.699
118.21
84.5297
93.314
100.23
105.558
109.636
112.73
115.027
116.655
117.7
118.21
84.5298
93.3142
100.23
105.558
109.636
112.73
115.027
116.656
117.7
118.21
73.5086
80.4265
86.2423
90.9522
94.6807
97.5716
99.7483
101.305
102.309
102.8
73.5084
80.4264
86.2422
90.952
94.6805
97.5714
99.7482
101.305
102.309
102.8
73.5083
80.4262
86.2421
90.9519
94.6804
97.5713
99.7481
101.305
102.308
102.8
73.5083
80.4262
86.242
90.9519
94.6803
97.5712
99.748
101.305
102.308
102.8
73.5082
80.4261
86.242
90.9518
94.6803
97.5712
99.748
101.305
102.308
102.8
73.5082
80.4261
86.242
90.9518
94.6803
97.5712
99.748
101.305
102.308
102.8
73.5083
80.4262
86.242
90.9519
94.6803
97.5712
99.748
101.305
102.308
102.8
73.5083
80.4262
86.2421
90.9519
94.6804
97.5713
99.7481
101.305
102.308
102.8
73.5084
80.4263
86.2422
90.9521
94.6805
97.5714
99.7482
101.305
102.309
102.8
73.5086
80.4265
86.2423
90.9522
94.6807
97.5716
99.7484
101.305
102.309
102.8
64.1796
69.6026
74.3463
78.3338
81.5868
84.1666
86.1409
87.5689
88.496
88.9521
64.1794
69.6024
74.3462
78.3337
81.5866
84.1664
86.1407
87.5688
88.4959
88.952
64.1793
69.6023
74.3461
78.3335
81.5865
84.1663
86.1406
87.5687
88.4958
88.9519
64.1793
69.6022
74.346
78.3335
81.5865
84.1663
86.1406
87.5686
88.4957
88.9519
64.1792
69.6022
74.346
78.3334
81.5864
84.1662
86.1405
87.5686
88.4957
88.9519
64.1792
69.6022
74.346
78.3334
81.5864
84.1662
86.1405
87.5686
88.4957
88.9519
64.1793
69.6022
74.346
78.3335
81.5865
84.1663
86.1406
87.5686
88.4957
88.9519
64.1793
69.6023
74.3461
78.3336
81.5865
84.1663
86.1407
87.5687
88.4958
88.952
64.1794
69.6024
74.3462
78.3337
81.5867
84.1665
86.1408
87.5688
88.4959
88.9521
64.1796
69.6026
74.3463
78.3338
81.5868
84.1666
86.1409
87.569
88.4961
88.9523
56.1988
60.3991
64.1705
67.4338
70.1672
72.3827
74.1072
75.37
76.1967
76.6054
56.1987
60.399
64.1704
67.4336
70.167
72.3826
74.1071
75.3699
76.1966
76.6053
56.1986
60.3989
64.1703
67.4335
70.1669
72.3825
74.1069
75.3698
76.1965
76.6052
56.1985
60.3988
64.1702
67.4335
70.1669
72.3824
74.1069
75.3697
76.1964
76.6052
56.1985
60.3988
64.1702
67.4334
70.1668
72.3824
74.1069
75.3697
76.1964
76.6052
56.1985
60.3988
64.1702
67.4334
70.1668
72.3824
74.1069
75.3697
76.1964
76.6052
56.1985
60.3988
64.1702
67.4335
70.1669
72.3824
74.1069
75.3698
76.1965
76.6052
56.1986
60.3989
64.1703
67.4335
70.167
72.3825
74.107
75.3698
76.1965
76.6053
56.1987
60.399
64.1704
67.4337
70.1671
72.3826
74.1071
75.3699
76.1967
76.6054
56.1988
60.3991
64.1705
67.4338
70.1672
72.3828
74.1073
75.3701
76.1968
76.6056
49.3866
52.5399
55.4386
58.0176
60.2353
62.0734
63.5296
64.6102
65.324
65.6788
49.3865
52.5398
55.4385
58.0175
60.2352
62.0733
63.5295
64.61
65.3239
65.6787
49.3864
52.5397
55.4384
58.0174
60.2351
62.0732
63.5294
64.6099
65.3238
65.6786
49.3863
52.5396
55.4383
58.0173
60.235
62.0731
63.5293
64.6099
65.3237
65.6785
49.3863
52.5396
55.4383
58.0173
60.235
62.0731
63.5293
64.6099
65.3237
65.6785
49.3863
52.5396
55.4383
58.0173
60.235
62.0731
63.5293
64.6099
65.3237
65.6785
49.3863
52.5396
55.4383
58.0173
60.235
62.0731
63.5293
64.6099
65.3238
65.6786
49.3864
52.5397
55.4384
58.0174
60.2351
62.0732
63.5294
64.61
65.3238
65.6787
49.3865
52.5398
55.4385
58.0175
60.2352
62.0733
63.5295
64.6101
65.3239
65.6788
49.3866
52.5399
55.4386
58.0176
60.2354
62.0735
63.5297
64.6103
65.3241
65.6789
43.6209
45.8203
47.9287
49.8807
51.6151
53.09
54.2817
55.1787
55.7772
56.0763
43.6208
45.8202
47.9285
49.8805
51.615
53.0899
54.2816