/*--------------------------------*- C++ -*----------------------------------*\
  =========                 |
  \\      /  F ield         | OpenFOAM: The Open Source CFD Toolbox
   \\    /   O peration     | Website:  https://openfoam.org
    \\  /    A nd           | Version:  6
     \\/     M anipulation  |
\*---------------------------------------------------------------------------*/
FoamFile
{
    version     2.0;
    format      ascii;
    class       volScalarField;
    location    "0.1";
    object      T;
}
// * * * * * * * * * * * * * * * * * * * * * * * * * * * * * * * * * * * * * //

dimensions      [0 0 0 1 0 0 0];

internalField   nonuniform List<scalar> 
7000
(
100.121
100.12
100.12
100.12
100.12
100.12
100.12
100.12
100.12
100.12
100.12
100.12
100.12
100.12
100.12
100.12
100.12
100.12
100.12
100.12
100.12
100.12
100.12
100.12
100.12
100.12
100.12
100.12
100.12
100.12
100.12
100.12
100.12
100.12
100.12
100.12
100.12
100.12
100.12
100.12
100.12
100.12
100.12
100.12
100.12
100.12
100.12
100.12
100.12
100.12
100.12
100.12
100.12
100.12
100.12
100.12
100.12
100.12
100.12
100.12
100.12
100.12
100.12
100.12
100.12
100.12
100.12
100.12
100.12
100.12
100.12
100.12
100.12
100.12
100.12
100.12
100.12
100.12
100.12
100.12
100.12
100.12
100.12
100.12
100.12
100.12
100.12
100.12
100.12
100.12
100.12
100.12
100.12
100.12
100.12
100.12
100.12
100.12
100.12
100.12
80.8628
80.8626
80.8624
80.8623
80.8622
80.8622
80.8622
80.8623
80.8623
80.8624
80.8626
80.8623
80.8622
80.8621
80.862
80.862
80.862
80.862
80.8621
80.8622
80.8624
80.8622
80.862
80.8619
80.8618
80.8618
80.8618
80.8619
80.862
80.8621
80.8623
80.8621
80.8619
80.8618
80.8617
80.8617
80.8617
80.8618
80.8619
80.862
80.8623
80.862
80.8619
80.8617
80.8617
80.8617
80.8617
80.8617
80.8618
80.862
80.8623
80.862
80.8619
80.8617
80.8617
80.8617
80.8617
80.8618
80.8619
80.862
80.8623
80.8621
80.8619
80.8618
80.8617
80.8617
80.8618
80.8618
80.8619
80.8621
80.8624
80.8621
80.862
80.8619
80.8618
80.8618
80.8618
80.8619
80.862
80.8622
80.8625
80.8623
80.8621
80.862
80.862
80.862
80.862
80.8621
80.8622
80.8623
80.8626
80.8624
80.8623
80.8622
80.8621
80.8621
80.8622
80.8622
80.8623
80.8625
63.0323
63.032
63.0317
63.0316
63.0314
63.0314
63.0314
63.0314
63.0315
63.0316
63.032
63.0316
63.0314
63.0312
63.0311
63.0311
63.031
63.0311
63.0312
63.0313
63.0317
63.0314
63.0312
63.031
63.0309
63.0308
63.0308
63.0309
63.031
63.0312
63.0316
63.0313
63.031
63.0308
63.0307
63.0307
63.0307
63.0307
63.0308
63.0311
63.0315
63.0312
63.0309
63.0308
63.0307
63.0306
63.0306
63.0307
63.0308
63.031
63.0315
63.0312
63.031
63.0308
63.0307
63.0306
63.0306
63.0307
63.0308
63.031
63.0316
63.0313
63.031
63.0309
63.0308
63.0307
63.0307
63.0308
63.0309
63.0311
63.0317
63.0314
63.0312
63.031
63.0309
63.0309
63.0309
63.0309
63.0311
63.0313
63.0319
63.0316
63.0314
63.0312
63.0311
63.0311
63.0311
63.0312
63.0313
63.0315
63.0321
63.0318
63.0316
63.0315
63.0314
63.0314
63.0314
63.0314
63.0316
63.0318
47.3454
47.345
47.3447
47.3445
47.3443
47.3442
47.3441
47.3439
47.3439
47.344
47.345
47.3446
47.3443
47.3441
47.3439
47.3438
47.3437
47.3436
47.3436
47.3437
47.3447
47.3443
47.3441
47.3438
47.3437
47.3435
47.3434
47.3433
47.3433
47.3435
47.3446
47.3442
47.3439
47.3437
47.3435
47.3434
47.3433
47.3432
47.3432
47.3434
47.3445
47.3441
47.3438
47.3436
47.3434
47.3433
47.3432
47.3431
47.3432
47.3433
47.3445
47.3441
47.3438
47.3436
47.3435
47.3433
47.3432
47.3432
47.3432
47.3434
47.3446
47.3442
47.3439
47.3437
47.3436
47.3434
47.3434
47.3433
47.3433
47.3435
47.3447
47.3444
47.3441
47.3439
47.3438
47.3436
47.3435
47.3435
47.3435
47.3437
47.3449
47.3446
47.3443
47.3442
47.344
47.3439
47.3438
47.3438
47.3438
47.344
47.3452
47.3449
47.3447
47.3445
47.3444
47.3443
47.3442
47.3441
47.3441
47.3443
34.2266
34.2262
34.2259
34.2257
34.2254
34.2251
34.2247
34.2242
34.2237
34.2235
34.2263
34.2259
34.2256
34.2253
34.225
34.2247
34.2243
34.2238
34.2234
34.2233
34.226
34.2256
34.2253
34.225
34.2248
34.2244
34.224
34.2236
34.2232
34.2231
34.2258
34.2254
34.2251
34.2249
34.2246
34.2243
34.2239
34.2234
34.223
34.223
34.2257
34.2254
34.225
34.2248
34.2245
34.2242
34.2238
34.2234
34.223
34.2229
34.2258
34.2254
34.2251
34.2248
34.2245
34.2242
34.2239
34.2234
34.223
34.223
34.2259
34.2255
34.2252
34.2249
34.2247
34.2244
34.224
34.2235
34.2232
34.2231
34.226
34.2256
34.2254
34.2251
34.2249
34.2246
34.2242
34.2238
34.2234
34.2233
34.2263
34.2259
34.2256
34.2254
34.2252
34.2249
34.2245
34.2241
34.2237
34.2236
34.2265
34.2263
34.226
34.2258
34.2256
34.2253
34.2249
34.2245
34.2241
34.224
23.7927
23.7923
23.792
23.7916
23.7911
23.7904
23.7894
23.788
23.7864
23.7854
23.7923
23.792
23.7916
23.7913
23.7908
23.7901
23.7891
23.7876
23.7861
23.7852
23.7921
23.7917
23.7914
23.791
23.7906
23.7899
23.7888
23.7874
23.7859
23.785
23.7919
23.7916
23.7912
23.7909
23.7904
23.7897
23.7887
23.7873
23.7858
23.7849
23.7919
23.7915
23.7912
23.7908
23.7904
23.7897
23.7886
23.7872
23.7858
23.7849
23.7919
23.7915
23.7912
23.7908
23.7904
23.7897
23.7887
23.7873
23.7858
23.7849
23.792
23.7916
23.7913
23.7909
23.7905
23.7898
23.7888
23.7874
23.7859
23.785
23.7921
23.7918
23.7915
23.7911
23.7907
23.79
23.789
23.7876
23.7861
23.7853
23.7924
23.792
23.7918
23.7914
23.791
23.7903
23.7893
23.7879
23.7864
23.7856
23.7927
23.7924
23.7921
23.7918
23.7914
23.7907
23.7897
23.7883
23.7868
23.786
15.8952
15.8949
15.8945
15.894
15.8932
15.8917
15.8893
15.8857
15.8814
15.8781
15.8949
15.8946
15.8942
15.8937
15.8929
15.8914
15.889
15.8854
15.8812
15.878
15.8947
15.8944
15.894
15.8935
15.8927
15.8912
15.8888
15.8853
15.881
15.8778
15.8946
15.8943
15.8939
15.8934
15.8926
15.8911
15.8887
15.8852
15.8809
15.8777
15.8946
15.8942
15.8938
15.8933
15.8925
15.8911
15.8887
15.8851
15.8809
15.8777
15.8946
15.8942
15.8939
15.8934
15.8925
15.8911
15.8887
15.8852
15.8809
15.8777
15.8947
15.8943
15.894
15.8935
15.8926
15.8912
15.8888
15.8853
15.881
15.8779
15.8948
15.8945
15.8941
15.8936
15.8928
15.8914
15.889
15.8855
15.8812
15.878
15.895
15.8947
15.8944
15.8939
15.8931
15.8917
15.8893
15.8857
15.8815
15.8783
15.8953
15.895
15.8947
15.8942
15.8934
15.892
15.8896
15.8861
15.8819
15.8787
10.2024
10.2021
10.2016
10.2009
10.1994
10.1967
10.1916
10.1834
10.1724
10.1626
10.2022
10.2018
10.2014
10.2006
10.1992
10.1965
10.1914
10.1832
10.1722
10.1625
10.202
10.2017
10.2012
10.2005
10.1991
10.1963
10.1913
10.1831
10.1721
10.1624
10.2019
10.2016
10.2011
10.2004
10.199
10.1962
10.1912
10.183
10.172
10.1623
10.2019
10.2015
10.2011
10.2003
10.1989
10.1962
10.1912
10.183
10.172
10.1623
10.2019
10.2016
10.2011
10.2004
10.199
10.1962
10.1912
10.183
10.172
10.1623
10.202
10.2016
10.2012
10.2005
10.199
10.1963
10.1913
10.1831
10.1721
10.1624
10.2021
10.2018
10.2013
10.2006
10.1992
10.1965
10.1915
10.1833
10.1723
10.1626
10.2023
10.202
10.2016
10.2008
10.1994
10.1967
10.1917
10.1835
10.1725
10.1628
10.2025
10.2022
10.2018
10.2011
10.1997
10.197
10.192
10.1838
10.1728
10.1631
6.29091
6.2906
6.29006
6.28898
6.28671
6.28194
6.27247
6.2552
6.22829
6.19913
6.29075
6.29043
6.28989
6.28882
6.28655
6.28178
6.27231
6.25504
6.22815
6.19903
6.29063
6.29031
6.28978
6.2887
6.28643
6.28167
6.2722
6.25494
6.22806
6.19896
6.29056
6.29024
6.28971
6.28863
6.28636
6.28161
6.27214
6.25488
6.22801
6.19891
6.29053
6.29022
6.28968
6.28861
6.28634
6.28159
6.27212
6.25487
6.228
6.1989
6.29055
6.29023
6.2897
6.28863
6.28637
6.28161
6.27215
6.2549
6.22803
6.19893
6.29061
6.2903
6.28977
6.2887
6.28644
6.28169
6.27222
6.25498
6.22811
6.19901
6.29071
6.29041
6.28988
6.28882
6.28656
6.28181
6.27235
6.2551
6.22823
6.19913
6.29086
6.29057
6.29005
6.289
6.28674
6.28199
6.27253
6.25528
6.22841
6.19931
6.29103
6.29078
6.29028
6.28923
6.28697
6.28222
6.27276
6.25551
6.22864
6.19954
3.72693
3.72662
3.72598
3.72457
3.72136
3.71418
3.69858
3.66632
3.60527
3.51447
3.72681
3.7265
3.72587
3.72446
3.72125
3.71407
3.69847
3.66622
3.60518
3.5144
3.72673
3.72642
3.72579
3.72438
3.72117
3.71399
3.6984
3.66615
3.60512
3.51435
3.72668
3.72637
3.72574
3.72433
3.72113
3.71395
3.69835
3.66611
3.60509
3.51432
3.72667
3.72636
3.72572
3.72432
3.72111
3.71393
3.69834
3.6661
3.60508
3.51432
3.72668
3.72637
3.72574
3.72433
3.72113
3.71396
3.69837
3.66613
3.60511
3.51434
3.72673
3.72642
3.72579
3.72439
3.72119
3.71401
3.69842
3.66618
3.60516
3.5144
3.7268
3.7265
3.72588
3.72448
3.72128
3.7141
3.69851
3.66628
3.60525
3.51448
3.72691
3.72662
3.726
3.7246
3.72141
3.71423
3.69864
3.66641
3.60538
3.51461
3.72704
3.72678
3.72617
3.72477
3.72158
3.71441
3.69882
3.66658
3.60555
3.51477
2.12193
2.12163
2.12094
2.11932
2.1155
2.10654
2.08573
2.03721
1.92057
1.61789
2.12185
2.12156
2.12087
2.11925
2.11543
2.10647
2.08566
2.03714
1.92051
1.61785
2.1218
2.1215
2.12082
2.1192
2.11538
2.10642
2.08561
2.0371
1.92047
1.61782
2.12177
2.12147
2.12078
2.11917
2.11535
2.10639
2.08559
2.03708
1.92045
1.61781
2.12176
2.12146
2.12078
2.11916
2.11534
2.10638
2.08558
2.03707
1.92045
1.6178
2.12177
2.12147
2.12079
2.11917
2.11535
2.1064
2.0856
2.03709
1.92047
1.61782
2.1218
2.12151
2.12082
2.11921
2.11539
2.10644
2.08563
2.03713
1.9205
1.61785
2.12186
2.12157
2.12088
2.11927
2.11545
2.1065
2.0857
2.03719
1.92056
1.6179
2.12193
2.12165
2.12097
2.11936
2.11554
2.10659
2.08579
2.03728
1.92064
1.61797
2.12202
2.12176
2.12109
2.11948
2.11566
2.10671
2.08591
2.03739
1.92076
1.61807
1.16151
1.16125
1.1606
1.15902
1.15531
1.14668
1.12707
1.0835
0.989379
0.796494
1.16147
1.1612
1.16055
1.15898
1.15526
1.14663
1.12702
1.08346
0.989347
0.79647
1.16143
1.16117
1.16052
1.15895
1.15523
1.1466
1.127
1.08343
0.989325
0.796454
1.16141
1.16115
1.1605
1.15893
1.15521
1.14659
1.12698
1.08342
0.989313
0.796445
1.16141
1.16115
1.16049
1.15892
1.15521
1.14658
1.12698
1.08342
0.989312
0.796445
1.16142
1.16115
1.1605
1.15893
1.15522
1.14659
1.12699
1.08343
0.989323
0.796454
1.16144
1.16118
1.16053
1.15896
1.15524
1.14662
1.12701
1.08345
0.989346
0.796473
1.16148
1.16122
1.16057
1.159
1.15529
1.14666
1.12705
1.08349
0.989382
0.796503
1.16153
1.16127
1.16062
1.15906
1.15535
1.14672
1.12711
1.08355
0.989435
0.796546
1.16159
1.16134
1.1607
1.15914
1.15542
1.1468
1.12719
1.08363
0.989504
0.796604
0.611576
0.611364
0.610818
0.609514
0.606493
0.599711
0.585059
0.554887
0.496756
0.396306
0.611548
0.611336
0.61079
0.609487
0.606466
0.599685
0.585035
0.554865
0.496737
0.396292
0.611529
0.611317
0.610771
0.609468
0.606448
0.599667
0.585018
0.55485
0.496725
0.396283
0.611518
0.611306
0.61076
0.609457
0.606438
0.599658
0.585009
0.554842
0.496718
0.396278
0.611515
0.611303
0.610758
0.609455
0.606436
0.599656
0.585008
0.554841
0.496718
0.396278
0.611521
0.611309
0.610764
0.609462
0.606442
0.599663
0.585015
0.554848
0.496725
0.396284
0.611535
0.611324
0.610779
0.609478
0.606458
0.599679
0.585031
0.554864
0.496739
0.396295
0.611558
0.611348
0.610804
0.609503
0.606485
0.599705
0.585057
0.554888
0.496761
0.396313
0.61159
0.611382
0.61084
0.60954
0.606522
0.599742
0.585093
0.554923
0.496792
0.396339
0.611629
0.611427
0.610888
0.609589
0.60657
0.599791
0.585141
0.554968
0.496834
0.396374
0.309931
0.309775
0.309372
0.308424
0.306295
0.301708
0.292329
0.274357
0.242822
0.194248
0.309915
0.30976
0.309356
0.308409
0.30628
0.301694
0.292315
0.274345
0.242812
0.19424
0.309905
0.309749
0.309345
0.308399
0.306269
0.301684
0.292306
0.274337
0.242805
0.194235
0.309898
0.309743
0.309339
0.308393
0.306264
0.301679
0.292301
0.274333
0.242802
0.194233
0.309897
0.309742
0.309338
0.308392
0.306263
0.301678
0.292301
0.274333
0.242802
0.194233
0.309901
0.309745
0.309342
0.308396
0.306267
0.301682
0.292305
0.274337
0.242806
0.194236
0.309909
0.309754
0.309351
0.308405
0.306277
0.301692
0.292315
0.274346
0.242814
0.194243
0.309923
0.309769
0.309366
0.308421
0.306292
0.301708
0.29233
0.274361
0.242827
0.194254
0.309942
0.309789
0.309388
0.308443
0.306314
0.301729
0.292351
0.274381
0.242845
0.194268
0.309965
0.309816
0.309416
0.308471
0.306343
0.301758
0.292379
0.274407
0.242869
0.194288
0.151269
0.151165
0.150897
0.150281
0.14894
0.146171
0.140792
0.131105
0.115298
0.0927837
0.151261
0.151157
0.150888
0.150272
0.148932
0.146164
0.140785
0.131098
0.115293
0.0927795
0.151255
0.151151
0.150883
0.150267
0.148927
0.146158
0.14078
0.131094
0.115289
0.0927768
0.151252
0.151148
0.15088
0.150264
0.148924
0.146156
0.140778
0.131092
0.115288
0.0927755
0.151251
0.151148
0.150879
0.150263
0.148923
0.146156
0.140778
0.131092
0.115288
0.0927758
0.151253
0.15115
0.150881
0.150266
0.148926
0.146158
0.14078
0.131094
0.11529
0.0927777
0.151258
0.151155
0.150887
0.150271
0.148931
0.146164
0.140785
0.131099
0.115295
0.0927815
0.151266
0.151163
0.150895
0.15028
0.14894
0.146172
0.140794
0.131107
0.115302
0.0927874
0.151277
0.151175
0.150907
0.150292
0.148953
0.146185
0.140806
0.131119
0.115312
0.0927957
0.151291
0.15119
0.150924
0.150309
0.148969
0.146201
0.140821
0.131133
0.115325
0.0928067
0.0711562
0.0710925
0.0709292
0.0705639
0.0697945
0.068266
0.0654282
0.0605755
0.053091
0.0429969
0.0711518
0.0710882
0.0709249
0.0705597
0.0697904
0.0682621
0.0654246
0.0605723
0.0530883
0.0429948
0.0711488
0.0710852
0.070922
0.0705569
0.0697877
0.0682595
0.0654222
0.0605701
0.0530865
0.0429934
0.0711472
0.0710836
0.0709205
0.0705554
0.0697862
0.0682581
0.065421
0.0605691
0.0530857
0.0429928
0.071147
0.0710834
0.0709203
0.0705552
0.0697862
0.0682581
0.065421
0.0605692
0.0530858
0.042993
0.0711482
0.0710847
0.0709217
0.0705566
0.0697876
0.0682596
0.0654224
0.0605706
0.053087
0.042994
0.071151
0.0710875
0.0709246
0.0705596
0.0697906
0.0682625
0.0654253
0.0605733
0.0530895
0.0429961
0.0711553
0.071092
0.0709292
0.0705643
0.0697954
0.0682673
0.0654299
0.0605776
0.0530933
0.0429992
0.0711612
0.0710983
0.0709358
0.070571
0.0698021
0.0682739
0.0654363
0.0605835
0.0530986
0.0430037
0.0711684
0.0711067
0.0709445
0.0705798
0.0698109
0.0682825
0.0654446
0.0605913
0.0531056
0.0430095
0.0322826
0.0322465
0.0321549
0.0319548
0.031546
0.0307618
0.0293624
0.0270698
0.0236862
0.0192998
0.0322805
0.0322444
0.0321528
0.0319527
0.0315439
0.0307599
0.0293606
0.0270682
0.0236848
0.0192988
0.032279
0.0322429
0.0321514
0.0319513
0.0315426
0.0307586
0.0293594
0.0270672
0.023684
0.0192981
0.0322783
0.0322422
0.0321506
0.0319506
0.0315419
0.030758
0.0293589
0.0270667
0.0236836
0.0192978
0.0322782
0.0322421
0.0321506
0.0319506
0.0315419
0.030758
0.0293589
0.0270668
0.0236837
0.0192979
0.0322789
0.0322428
0.0321513
0.0319513
0.0315427
0.0307588
0.0293597
0.0270675
0.0236843
0.0192985
0.0322803
0.0322443
0.0321528
0.0319529
0.0315443
0.0307603
0.0293612
0.0270689
0.0236856
0.0192996
0.0322826
0.0322466
0.0321553
0.0319554
0.0315467
0.0307628
0.0293635
0.0270711
0.0236876
0.0193012
0.0322857
0.0322499
0.0321587
0.0319588
0.0315502
0.0307662
0.0293668
0.0270741
0.0236903
0.0193035
0.0322894
0.0322542
0.0321632
0.0319634
0.0315547
0.0307706
0.0293711
0.0270781
0.0236938
0.0193065
0.0141368
0.0141176
0.0140697
0.0139674
0.013764
0.0133862
0.0127345
0.0117049
0.0102386
0.00839611
0.0141357
0.0141166
0.0140687
0.0139664
0.0137631
0.0133853
0.0127337
0.0117041
0.010238
0.00839561
0.0141351
0.0141159
0.014068
0.0139657
0.0137625
0.0133847
0.0127332
0.0117037
0.0102376
0.0083953
0.0141347
0.0141156
0.0140677
0.0139654
0.0137622
0.0133844
0.0127329
0.0117034
0.0102374
0.00839516
0.0141347
0.0141156
0.0140677
0.0139654
0.0137622
0.0133844
0.012733
0.0117035
0.0102375
0.00839523
0.014135
0.0141159
0.0140681
0.0139658
0.0137626
0.0133848
0.0127333
0.0117039
0.0102378
0.00839551
0.0141358
0.0141167
0.0140688
0.0139666
0.0137633
0.0133856
0.0127341
0.0117045
0.0102384
0.00839604
0.0141369
0.0141178
0.01407
0.0139678
0.0137646
0.0133868
0.0127352
0.0117056
0.0102394
0.00839685
0.0141384
0.0141195
0.0140717
0.0139695
0.0137663
0.0133885
0.0127369
0.0117071
0.0102407
0.00839797
0.0141403
0.0141216
0.014074
0.0139718
0.0137685
0.0133907
0.012739
0.0117091
0.0102425
0.00839944
0.00597984
0.00597031
0.00594676
0.00589752
0.00580217
0.00562993
0.00534191
0.00490151
0.00429599
0.0035639
0.00597937
0.00596986
0.00594631
0.00589708
0.00580174
0.00562952
0.00534153
0.00490118
0.0042957
0.00356367
0.00597907
0.00596955
0.00594601
0.00589678
0.00580146
0.00562926
0.00534129
0.00490096
0.00429552
0.00356353
0.00597891
0.0059694
0.00594586
0.00589664
0.00580132
0.00562913
0.00534118
0.00490087
0.00429545
0.00356347
0.00597891
0.0059694
0.00594587
0.00589665
0.00580134
0.00562916
0.00534121
0.0049009
0.00429548
0.0035635
0.00597909
0.00596958
0.00594605
0.00589684
0.00580153
0.00562935
0.00534139
0.00490108
0.00429564
0.00356364
0.00597944
0.00596994
0.00594642
0.00589722
0.00580191
0.00562972
0.00534175
0.00490141
0.00429594
0.0035639
0.00597998
0.0059705
0.00594699
0.0058978
0.00580249
0.00563029
0.0053423
0.00490192
0.0042964
0.00356429
0.00598072
0.00597128
0.0059478
0.00589862
0.0058033
0.00563109
0.00534306
0.00490263
0.00429703
0.00356483
0.00598162
0.0059723
0.00594886
0.00589969
0.00580437
0.00563213
0.00534406
0.00490355
0.00429785
0.00356552
0.00244526
0.00244078
0.00242984
0.00240742
0.00236503
0.00229049
0.00216957
0.00199147
0.00176049
0.00151865
0.00244505
0.00244058
0.00242964
0.00240723
0.00236485
0.00229031
0.0021694
0.00199133
0.00176036
0.00151854
0.00244492
0.00244045
0.00242951
0.0024071
0.00236472
0.0022902
0.0021693
0.00199123
0.00176028
0.00151848
0.00244485
0.00244038
0.00242945
0.00240704
0.00236467
0.00229014
0.00216925
0.0019912
0.00176025
0.00151845
0.00244486
0.00244039
0.00242946
0.00240705
0.00236468
0.00229016
0.00216927
0.00199121
0.00176027
0.00151847
0.00244494
0.00244047
0.00242954
0.00240714
0.00236477
0.00229025
0.00216935
0.0019913
0.00176035
0.00151854
0.0024451
0.00244064
0.00242971
0.00240731
0.00236494
0.00229042
0.00216952
0.00199145
0.00176048
0.00151866
0.00244536
0.0024409
0.00242998
0.00240758
0.00236521
0.00229068
0.00216977
0.00199168
0.00176069
0.00151885
0.00244569
0.00244125
0.00243035
0.00240795
0.00236558
0.00229104
0.00217012
0.001992
0.00176098
0.0015191
0.00244611
0.00244172
0.00243083
0.00240844
0.00236607
0.00229152
0.00217057
0.00199242
0.00176136
0.00151943
0.718619
0.32652
0.153202
0.0835639
0.0738191
0.1194
0.251746
0.557795
1.23603
2.73972
0.718599
0.326509
0.153196
0.0835583
0.0738118
0.119388
0.251721
0.557749
1.23595
2.73956
0.718585
0.326501
0.153191
0.0835548
0.0738071
0.119379
0.251706
0.557719
1.23589
2.73946
0.718577
0.326498
0.153189
0.0835529
0.0738044
0.119375
0.251696
0.557702
1.23586
2.7394
0.718577
0.326498
0.153189
0.0835527
0.0738036
0.119373
0.251693
0.557696
1.23585
2.73938
0.718585
0.326503
0.153192
0.0835541
0.0738044
0.119374
0.251694
0.557699
1.23586
2.7394
0.718602
0.326512
0.153197
0.0835571
0.0738068
0.119377
0.2517
0.55771
1.23588
2.73944
0.718629
0.326526
0.153205
0.0835617
0.0738105
0.119381
0.251709
0.557728
1.23592
2.73951
0.718666
0.326546
0.153215
0.0835678
0.0738153
0.119388
0.25172
0.55775
1.23596
2.73961
0.718713
0.32657
0.153228
0.083575
0.0738205
0.119394
0.251731
0.557772
1.23601
2.73971
0.458696
0.237846
0.120622
0.0694022
0.0629823
0.100802
0.206243
0.436566
0.898577
1.74758
0.458681
0.237837
0.120616
0.0693976
0.0629762
0.100792
0.206224
0.436529
0.898514
1.74748
0.458671
0.237832
0.120613
0.0693945
0.0629721
0.100785
0.20621
0.436506
0.898472
1.74741
0.458666
0.237829
0.120611
0.0693929
0.0629698
0.10078
0.206203
0.436492
0.898448
1.74737
0.458667
0.237829
0.120611
0.0693928
0.0629691
0.100779
0.2062
0.436487
0.89844
1.74736
0.458673
0.237833
0.120613
0.069394
0.0629699
0.10078
0.206201
0.436489
0.898445
1.74737
0.458685
0.23784
0.120618
0.0693966
0.062972
0.100782
0.206206
0.436499
0.898463
1.7474
0.458705
0.237852
0.120624
0.0694007
0.0629754
0.100787
0.206214
0.436514
0.898493
1.74745
0.458732
0.237868
0.120634
0.0694064
0.06298
0.100793
0.206225
0.436535
0.898532
1.74753
0.458769
0.237889
0.120646
0.0694137
0.0629858
0.1008
0.206238
0.43656
0.898581
1.74762
0.256586
0.147222
0.0809342
0.0498135
0.046868
0.0738205
0.144916
0.29017
0.554477
0.976609
0.256577
0.147216
0.0809303
0.0498101
0.0468634
0.0738127
0.144901
0.290146
0.554437
0.976549
0.256571
0.147212
0.0809277
0.0498078
0.0468603
0.0738074
0.144892
0.290129
0.554409
0.976507
0.256568
0.14721
0.0809265
0.0498066
0.0468585
0.0738043
0.144886
0.290119
0.554394
0.976482
0.256568
0.14721
0.0809266
0.0498065
0.046858
0.0738032
0.144884
0.290116
0.554388
0.976474
0.256572
0.147213
0.0809283
0.0498074
0.0468586
0.0738038
0.144885
0.290118
0.554392
0.976481
0.25658
0.147218
0.0809315
0.0498095
0.0468604
0.073806
0.144889
0.290125
0.554404
0.976502
0.256593
0.147226
0.0809365
0.0498127
0.0468631
0.0738096
0.144896
0.290136
0.554426
0.976538
0.256611
0.147238
0.0809435
0.0498173
0.046867
0.0738147
0.144904
0.290153
0.554455
0.976587
0.256635
0.147253
0.0809528
0.0498232
0.046872
0.0738213
0.144916
0.290174
0.554493
0.976653
0.133884
0.0825438
0.0486389
0.0319592
0.0311535
0.0482063
0.0907046
0.17237
0.309654
0.508941
0.133879
0.0825402
0.0486363
0.0319569
0.0311504
0.0482011
0.0906956
0.172355
0.309631
0.508907
0.133875
0.0825379
0.0486347
0.0319553
0.0311482
0.0481975
0.0906895
0.172345
0.309614
0.508884
0.133874
0.0825368
0.0486339
0.0319545
0.031147
0.0481954
0.0906858
0.172338
0.309605
0.50887
0.133874
0.0825371
0.048634
0.0319544
0.0311467
0.0481947
0.0906845
0.172336
0.309601
0.508865
0.133877
0.0825388
0.0486351
0.0319551
0.0311472
0.0481952
0.0906852
0.172338
0.309604
0.508869
0.133882
0.0825422
0.0486373
0.0319566
0.0311484
0.0481968
0.0906879
0.172342
0.309612
0.508882
0.133889
0.0825474
0.0486407
0.0319589
0.0311505
0.0481995
0.0906925
0.172351
0.309626
0.508904
0.1339
0.0825548
0.0486454
0.0319621
0.0311533
0.0482033
0.0906989
0.172362
0.309645
0.508935
0.133915
0.0825647
0.0486517
0.0319664
0.0311571
0.0482082
0.0907072
0.172377
0.309671
0.508977
0.0664439
0.0431503
0.0269297
0.0187579
0.0188616
0.0286792
0.0518855
0.0942101
0.161123
0.252188
0.066441
0.0431483
0.0269282
0.0187564
0.0188596
0.028676
0.0518802
0.0942015
0.16111
0.25217
0.066439
0.0431469
0.0269272
0.0187555
0.0188583
0.0286739
0.0518765
0.0941955
0.161101
0.252157
0.0664381
0.0431463
0.0269267
0.0187549
0.0188575
0.0286726
0.0518743
0.094192
0.161096
0.25215
0.0664384
0.0431465
0.0269268
0.0187549
0.0188573
0.0286721
0.0518735
0.0941908
0.161094
0.252147
0.0664398
0.0431476
0.0269275
0.0187554
0.0188577
0.0286725
0.051874
0.0941917
0.161096
0.25215
0.0664427
0.0431496
0.0269289
0.0187563
0.0188585
0.0286736
0.0518758
0.0941947
0.161101
0.252158
0.0664472
0.0431527
0.026931
0.0187578
0.0188599
0.0286754
0.0518788
0.0941998
0.161109
0.25217
0.0664535
0.0431571
0.0269339
0.0187599
0.0188618
0.028678
0.051883
0.094207
0.161121
0.252189
0.0664619
0.043163
0.0269378
0.0187627
0.0188644
0.0286813
0.0518886
0.0942166
0.161137
0.252213
0.0316025
0.0213401
0.0139658
0.0102309
0.0105577
0.0157915
0.0275902
0.0481956
0.0792721
0.119733
0.0316009
0.021339
0.0139649
0.0102301
0.0105565
0.0157897
0.0275872
0.0481909
0.0792653
0.119724
0.0315999
0.0213383
0.0139644
0.0102295
0.0105558
0.0157884
0.0275852
0.0481877
0.0792605
0.119717
0.0315995
0.021338
0.0139641
0.0102292
0.0105553
0.0157877
0.0275839
0.0481858
0.0792577
0.119714
0.0315996
0.0213381
0.0139642
0.0102292
0.0105552
0.0157875
0.0275835
0.0481852
0.0792568
0.119712
0.0316005
0.0213387
0.0139646
0.0102295
0.0105554
0.0157877
0.0275839
0.0481858
0.0792578
0.119714
0.031602
0.0213398
0.0139654
0.0102301
0.010556
0.0157884
0.0275849
0.0481875
0.0792606
0.119718
0.0316045
0.0213416
0.0139666
0.010231
0.0105568
0.0157895
0.0275867
0.0481905
0.0792654
0.119725
0.0316079
0.0213441
0.0139683
0.0102322
0.010558
0.0157911
0.0275893
0.0481948
0.0792722
0.119735
0.0316125
0.0213473
0.0139706
0.0102339
0.0105596
0.0157932
0.0275927
0.0482004
0.0792812
0.119749
0.0144632
0.0100709
0.00685887
0.00524672
0.00553073
0.00814852
0.0138074
0.0233405
0.037201
0.0546868
0.0144625
0.0100704
0.00685841
0.00524625
0.0055301
0.00814755
0.0138059
0.0233382
0.0371976
0.0546822
0.014462
0.01007
0.00685811
0.00524594
0.00552968
0.00814688
0.0138048
0.0233365
0.0371952
0.054679
0.0144617
0.0100699
0.00685798
0.00524579
0.00552944
0.00814649
0.0138041
0.0233355
0.0371938
0.0546772
0.0144618
0.0100699
0.00685802
0.00524578
0.00552939
0.00814637
0.0138039
0.0233352
0.0371934
0.0546767
0.0144623
0.0100703
0.00685824
0.00524594
0.00552951
0.0081465
0.0138041
0.0233356
0.0371939
0.0546775
0.0144631
0.0100709
0.00685868
0.00524627
0.00552982
0.0081469
0.0138048
0.0233366
0.0371955
0.0546797
0.0144644
0.0100718
0.00685936
0.0052468
0.00553033
0.00814756
0.0138058
0.0233382
0.037198
0.0546835
0.0144662
0.0100731
0.0068603
0.00524752
0.00553104
0.00814849
0.0138073
0.0233406
0.0372017
0.0546888
0.0144685
0.0100748
0.00686154
0.00524847
0.00553197
0.00814972
0.0138092
0.0233437
0.0372066
0.0546959
0.00640138
0.00457784
0.00322962
0.00256642
0.00275378
0.0040006
0.00659543
0.0108325
0.0168068
0.0241487
0.006401
0.00457755
0.00322939
0.00256617
0.00275346
0.0040001
0.00659465
0.0108314
0.0168051
0.0241465
0.00640077
0.00457737
0.00322924
0.00256601
0.00275324
0.00399975
0.00659411
0.0108306
0.016804
0.024145
0.00640067
0.0045773
0.00322917
0.00256593
0.00275311
0.00399955
0.0065938
0.0108301
0.0168033
0.0241441
0.00640072
0.00457734
0.00322919
0.00256593
0.00275309
0.0039995
0.0065937
0.0108299
0.0168031
0.0241439
0.00640095
0.00457751
0.00322932
0.00256602
0.00275316
0.00399958
0.00659382
0.0108301
0.0168034
0.0241444
0.00640137
0.00457783
0.00322955
0.0025662
0.00275333
0.0039998
0.00659415
0.0108307
0.0168042
0.0241455
0.00640201
0.00457831
0.0032299
0.00256648
0.00275361
0.00400016
0.00659471
0.0108315
0.0168056
0.0241474
0.00640291
0.00457898
0.0032304
0.00256688
0.00275401
0.00400068
0.0065955
0.0108328
0.0168075
0.0241501
0.00640407
0.00457986
0.00323104
0.00256739
0.00275452
0.00400135
0.00659654
0.0108344
0.01681
0.0241537
0.00280301
0.00207188
0.00151669
0.00125055
0.00136346
0.00195359
0.00313635
0.005007
0.00755195
0.0105438
0.00280282
0.00207173
0.00151657
0.00125042
0.00136329
0.00195333
0.00313595
0.00500642
0.00755115
0.0105428
0.00280271
0.00207165
0.00151649
0.00125034
0.00136318
0.00195315
0.00313568
0.00500603
0.00755061
0.0105421
0.00280267
0.00207161
0.00151646
0.0012503
0.00136311
0.00195305
0.00313553
0.0050058
0.00755029
0.0105417
0.0028027
0.00207164
0.00151647
0.0012503
0.0013631
0.00195303
0.00313548
0.00500574
0.00755021
0.0105416
0.00280281
0.00207172
0.00151654
0.00125035
0.00136314
0.00195307
0.00313555
0.00500584
0.00755038
0.0105418
0.00280302
0.00207189
0.00151666
0.00125045
0.00136324
0.0019532
0.00313573
0.00500612
0.00755079
0.0105424
0.00280334
0.00207213
0.00151685
0.0012506
0.00136339
0.0019534
0.00313603
0.00500658
0.00755147
0.0105433
0.00280378
0.00207247
0.00151711
0.00125081
0.00136361
0.00195368
0.00313646
0.00500724
0.00755244
0.0105447
0.00280435
0.00207291
0.00151744
0.00125108
0.00136389
0.00195404
0.00313701
0.00500809
0.00755371
0.0105464
0.00140392
0.00110793
0.000847456
0.000723874
0.000800246
0.00113248
0.00177439
0.00275289
0.00400556
0.00526105
0.00140383
0.00110786
0.000847392
0.000723803
0.000800151
0.00113234
0.00177417
0.00275258
0.00400515
0.00526056
0.00140378
0.00110781
0.000847349
0.000723754
0.000800083
0.00113224
0.00177402
0.00275236
0.00400486
0.0052602
0.00140375
0.00110779
0.00084733
0.00072373
0.000800045
0.00113218
0.00177393
0.00275223
0.00400468
0.00525999
0.00140377
0.00110781
0.00084734
0.000723733
0.00080004
0.00113216
0.00177391
0.0027522
0.00400465
0.00525995
0.00140384
0.00110786
0.000847381
0.000723764
0.000800068
0.0011322
0.00177395
0.00275227
0.00400475
0.00526009
0.00140396
0.00110796
0.000847457
0.000723827
0.000800131
0.00113227
0.00177407
0.00275244
0.004005
0.00526042
0.00140413
0.0011081
0.000847572
0.000723924
0.00080023
0.0011324
0.00177426
0.00275273
0.0040054
0.00526095
0.00140438
0.0011083
0.000847729
0.000724057
0.000800367
0.00113258
0.00177452
0.00275313
0.00400598
0.00526169
0.00140468
0.00110855
0.000847924
0.000724222
0.000800538
0.0011328
0.00177485
0.00275363
0.0040067
0.00526266
6.17591
7.33238
7.77803
7.96342
8.04297
8.07726
8.09194
8.0982
8.10088
8.10198
6.17561
7.33204
7.77767
7.96305
8.0426
8.07689
8.09158
8.09784
8.10055
8.10171
6.17544
7.33183
7.77745
7.96283
8.04238
8.07667
8.09136
8.09763
8.10036
8.10155
6.17534
7.33172
7.77733
7.96271
8.04225
8.07655
8.09125
8.09753
8.10026
8.10146
6.1753
7.33168
7.77729
7.96267
8.04222
8.07652
8.09122
8.0975
8.10024
8.10145
6.17533
7.33171
7.77733
7.96271
8.04227
8.07657
8.09128
8.09757
8.10031
8.10151
6.17542
7.33182
7.77745
7.96285
8.04241
8.07671
8.09142
8.09772
8.10046
8.10167
6.17557
7.33201
7.77766
7.96307
8.04263
8.07695
8.09166
8.09795
8.1007
8.10191
6.17577
7.33226
7.77795
7.96337
8.04295
8.07727
8.09198
8.09828
8.10102
8.10224
6.17599
7.33256
7.77828
7.96372
8.04331
8.07763
8.09235
8.09865
8.1014
8.10261
3.03952
3.77678
4.13644
4.30292
4.37787
4.41088
4.42513
4.43118
4.43372
4.43475
3.03936
3.7766
4.13625
4.30272
4.37767
4.41068
4.42493
4.43098
4.43354
4.43461
3.03926
3.77648
4.13612
4.30258
4.37753
4.41054
4.42479
4.43085
4.43343
4.43451
3.0392
3.77641
4.13604
4.3025
4.37745
4.41046
4.42472
4.43079
4.43336
4.43445
3.03918
3.77639
4.13602
4.30248
4.37743
4.41044
4.4247
4.43077
4.43335
4.43445
3.0392
3.77641
4.13605
4.30251
4.37746
4.41048
4.42474
4.43081
4.4334
4.43449
3.03925
3.77648
4.13613
4.3026
4.37755
4.41057
4.42484
4.43091
4.4335
4.43459
3.03934
3.77659
4.13626
4.30274
4.3777
4.41072
4.42499
4.43107
4.43365
4.43475
3.03946
3.77675
4.13644
4.30293
4.3779
4.41093
4.4252
4.43128
4.43387
4.43496
3.03962
3.77696
4.13668
4.30319
4.37817
4.4112
4.42547
4.43155
4.43414
4.43524
1.51185
1.89606
2.11827
2.23358
2.28958
2.31552
2.32709
2.33211
2.33423
2.33507
1.51177
1.89596
2.11817
2.23347
2.28947
2.3154
2.32698
2.332
2.33413
2.335
1.51171
1.8959
2.11809
2.23339
2.28939
2.31533
2.3269
2.33192
2.33406
2.33494
1.51168
1.89586
2.11805
2.23335
2.28934
2.31528
2.32686
2.33188
2.33403
2.33491
1.51167
1.89584
2.11803
2.23334
2.28933
2.31527
2.32685
2.33188
2.33402
2.3349
1.51168
1.89586
2.11805
2.23336
2.28935
2.31529
2.32687
2.3319
2.33405
2.33493
1.51171
1.8959
2.1181
2.23341
2.28941
2.31535
2.32693
2.33196
2.33411
2.33499
1.51177
1.89597
2.11818
2.23349
2.2895
2.31544
2.32703