/*--------------------------------*- C++ -*----------------------------------*\
  =========                 |
  \\      /  F ield         | OpenFOAM: The Open Source CFD Toolbox
   \\    /   O peration     | Website:  https://openfoam.org
    \\  /    A nd           | Version:  6
     \\/     M anipulation  |
\*---------------------------------------------------------------------------*/
FoamFile
{
    version     2.0;
    format      ascii;
    class       volScalarField;
    location    "600";
    object      p;
}
// * * * * * * * * * * * * * * * * * * * * * * * * * * * * * * * * * * * * * //

dimensions      [0 2 -2 0 0 0 0];

internalField   nonuniform List<scalar> 
7000
(
0.0377735
0.0355334
0.0350101
0.0347786
0.0346646
0.0346782
0.0348182
0.0350716
0.0356117
0.037873
0.0355328
0.033292
0.0327704
0.0325399
0.0324268
0.0324415
0.0325825
0.0328365
0.0333758
0.0356392
0.0350082
0.0327693
0.0322479
0.0320179
0.0319056
0.031921
0.0320627
0.0323173
0.032857
0.0351197
0.0347754
0.0325374
0.0320166
0.0317875
0.0316762
0.0316927
0.0318355
0.0320908
0.032631
0.0348946
0.0346596
0.0324227
0.0319026
0.0316745
0.0315644
0.0315823
0.0317263
0.0319826
0.0325235
0.0347886
0.0346712
0.0324353
0.0319159
0.0316889
0.0315801
0.0315993
0.0317447
0.0320021
0.0325438
0.0348105
0.0348087
0.0325739
0.0320552
0.0318291
0.0317215
0.031742
0.0318887
0.0321472
0.0326896
0.034958
0.0350592
0.0328252
0.032307
0.0320816
0.0319748
0.0319964
0.0321442
0.0324036
0.0329466
0.0352167
0.0355959
0.0333614
0.0328436
0.0326187
0.0325127
0.032535
0.0326835
0.0329435
0.0334868
0.0357596
0.0378527
0.0356206
0.0351024
0.0348783
0.0347736
0.0347974
0.0349473
0.0352088
0.0357547
0.0380285
0.0348033
0.0333932
0.0334116
0.0331837
0.033068
0.0330825
0.0332262
0.0334786
0.0334736
0.0349114
0.0333936
0.0319843
0.0320066
0.0317793
0.0316649
0.0316807
0.031826
0.03208
0.032072
0.0335116
0.0334104
0.0320051
0.0320265
0.0317997
0.0316857
0.0317021
0.0318479
0.0321023
0.0320951
0.0335321
0.0331808
0.0317763
0.0317982
0.0315725
0.0314598
0.0314775
0.0316246
0.0318797
0.0318728
0.0333124
0.0330633
0.0316602
0.0316827
0.0314582
0.031347
0.0313663
0.0315149
0.0317714
0.0317648
0.0332074
0.0330754
0.031674
0.031697
0.0314738
0.0313642
0.0313851
0.0315356
0.0317936
0.0317873
0.0332333
0.0332161
0.0318166
0.0318402
0.0316182
0.0315101
0.0315328
0.031685
0.0319445
0.0319387
0.0333882
0.0334648
0.0320673
0.0320912
0.03187
0.0317632
0.0317873
0.031941
0.032202
0.0321964
0.0336487
0.0334559
0.032056
0.0320808
0.0318599
0.0317536
0.0317781
0.0319324
0.0321936
0.0321868
0.0336447
0.0348888
0.0334915
0.0335142
0.0332957
0.0331919
0.0332193
0.0333763
0.0336398
0.0336383
0.0351008
0.0322914
0.0314765
0.0318183
0.0316068
0.031548
0.0315643
0.031655
0.0318963
0.0315684
0.0324208
0.0314776
0.030668
0.0310157
0.0308042
0.0307474
0.0307654
0.0308576
0.0311019
0.0307684
0.0316194
0.0318173
0.0310138
0.0313596
0.0311489
0.0310925
0.0311111
0.031204
0.0314485
0.0311167
0.0319631
0.031604
0.0308009
0.0311475
0.0309386
0.0308839
0.0309044
0.0309992
0.0312454
0.0309135
0.0317647
0.0315433
0.0307426
0.0310897
0.0308825
0.0308299
0.0308527
0.03095
0.0311985
0.030867
0.0317226
0.0315568
0.0307586
0.0311064
0.0309011
0.0308507
0.0308761
0.0309761
0.0312271
0.030896
0.0317574
0.031644
0.0308481
0.0311966
0.0309932
0.0309452
0.0309732
0.0310759
0.0313296
0.030999
0.0318668
0.0318805
0.0310883
0.0314371
0.0312351
0.0311893
0.0312196
0.0313249
0.0315812
0.0312515
0.0321233
0.0315472
0.0307506
0.0311012
0.0308993
0.0308542
0.0308851
0.0309909
0.0312483
0.0309156
0.0317964
0.0323931
0.0315967
0.0319433
0.031746
0.0317043
0.0317395
0.0318502
0.0321101
0.0317856
0.0326787
0.0309552
0.0303678
0.0307305
0.030506
0.0305174
0.0305366
0.0305623
0.0308246
0.0304785
0.0311174
0.0303694
0.0297908
0.0301603
0.0299351
0.0299495
0.0299706
0.029997
0.0302635
0.0299107
0.0305437
0.030729
0.0301575
0.0305239
0.0303001
0.0303148
0.0303365
0.0303639
0.0306306
0.0302805
0.0309081
0.0305027
0.0299311
0.030299
0.0300776
0.0300947
0.0301191
0.0301493
0.0304187
0.0300683
0.030703
0.0305119
0.0299444
0.0303128
0.0300938
0.0301137
0.0301413
0.030175
0.030448
0.0300981
0.0307386
0.0305274
0.0299632
0.0303324
0.0301162
0.0301394
0.0301706
0.0302082
0.0304852
0.0301358
0.0307856
0.0305485
0.0299868
0.030357
0.0301437
0.0301703
0.0302054
0.0302471
0.0305283
0.0301794
0.0308404
0.0308039
0.030248
0.0306183
0.0304075
0.0304374
0.0304762
0.0305219
0.0308074
0.0304599
0.0311279
0.0304499
0.0298891
0.0302622
0.0300513
0.0300822
0.0301219
0.0301684
0.0304555
0.0301037
0.030784
0.0310774
0.0305151
0.030884
0.03068
0.0307153
0.0307613
0.0308155
0.0311065
0.0307652
0.0314653
0.0300096
0.0295292
0.0298361
0.029596
0.0296547
0.029678
0.0296634
0.0299503
0.0296658
0.0302157
0.0295305
0.0290618
0.0293751
0.0291337
0.029196
0.029221
0.0292058
0.0294979
0.0292056
0.029745
0.0298329
0.0293709
0.0296801
0.0294406
0.0295031
0.0295287
0.0295147
0.0298074
0.029519
0.030053
0.0295908
0.0291288
0.02944
0.0292034
0.029269
0.0292982
0.0292881
0.0295852
0.0292962
0.0298397
0.0296464
0.0291902
0.0295018
0.0292685
0.0293377
0.0293712
0.0293658
0.0296683
0.0293798
0.0299318
0.0296641
0.0292123
0.0295249
0.0292954
0.0293692
0.0294078
0.029408
0.0297168
0.0294287
0.0299957
0.0296428
0.0291937
0.0295078
0.0292824
0.029361
0.0294052
0.0294113
0.0297268
0.0294391
0.0300255
0.0299205
0.0294792
0.0297935
0.0295721
0.0296556
0.0297055
0.0297178
0.0300396
0.0297546
0.0303536
0.0296229
0.0291773
0.0294952
0.0292738
0.0293589
0.0294102
0.0294235
0.0297484
0.0294567
0.0300702
0.0301526
0.0297054
0.03002
0.0298081
0.029899
0.0299592
0.0299844
0.030315
0.0300341
0.0306783
0.02898
0.0286067
0.0288868
0.0286544
0.0287419
0.0287706
0.0287357
0.0290274
0.0287766
0.0292455
0.0286071
0.0282486
0.0285342
0.0283001
0.0283913
0.0284207
0.0283834
0.0286798
0.0284211
0.0288704
0.0288804
0.0285284
0.0288091
0.0285771
0.028668
0.028698
0.0286626
0.0289604
0.0287075
0.029151
0.0286456
0.0282939
0.0285771
0.0283484
0.0284433
0.0284778
0.0284475
0.0287521
0.028498
0.028953
0.0287284
0.0283841
0.0286675
0.0284431
0.0285427
0.0285829
0.028559
0.0288711
0.0286174
0.0290855
0.0287484
0.0284098
0.0286944
0.0284753
0.0285809
0.0286285
0.0286127
0.0289344
0.028681
0.0291747
0.0287036
0.0283684
0.0286552
0.0284416
0.028554
0.0286096
0.0286027
0.0289346
0.028682
0.0292092
0.0289808
0.0286556
0.0289426
0.0287352
0.0288545
0.0289186
0.028921
0.0292628
0.0290136
0.0295652
0.0287104
0.0283818
0.0286731
0.0284658
0.0285876
0.0286537
0.0286577
0.0290034
0.0287454
0.0293186
0.0291427
0.0288119
0.0291011
0.0289062
0.0290361
0.0291151
0.0291356
0.029491
0.0292466
0.0298578
0.0278884
0.0276147
0.0278815
0.0276716
0.0277787
0.0278137
0.0277703
0.0280533
0.0278252
0.0282288
0.0276134
0.0273576
0.0276287
0.0274164
0.0275262
0.0275598
0.0275104
0.027797
0.0275615
0.0279347
0.0278709
0.0276208
0.0278863
0.0276763
0.0277851
0.0278192
0.0277722
0.028062
0.0278358
0.0282046
0.0276575
0.0274087
0.0276769
0.0274707
0.0275842
0.0276237
0.0275828
0.0278822
0.0276545
0.0280358
0.0277573
0.0275176
0.0277857
0.0275849
0.0277042
0.027751
0.0277187
0.0280295
0.0278017
0.0282036
0.0277796
0.0275471
0.0278167
0.0276229
0.0277504
0.0278077
0.0277875
0.0281137
0.0278865
0.0283323
0.0277207
0.0274929
0.0277654
0.0275791
0.027716
0.0277852
0.0277787
0.0281218
0.0278961
0.0284003
0.0279829
0.0277671
0.0280403
0.0278628
0.0280097
0.0280917
0.0280998
0.0284586
0.0282386
0.0287886
0.0277262
0.0275082
0.027786
0.0276091
0.0277598
0.0278454
0.0278563
0.0282224
0.027991
0.0285665
0.0280685
0.0278486
0.0281263
0.0279652
0.0281278
0.0282312
0.0282657
0.0286474
0.0284252
0.0290474
0.0268339
0.0266329
0.0268773
0.0266902
0.0268089
0.026851
0.0268076
0.0270875
0.0268948
0.0272638
0.0266295
0.0264491
0.0266958
0.0265053
0.0266243
0.0266607
0.0266054
0.0268848
0.0266924
0.0270269
0.0268617
0.0266861
0.0269266
0.0267383
0.0268555
0.0268919
0.0268394
0.0271252
0.0269499
0.0272829
0.0266702
0.026497
0.0267403
0.0265563
0.0266787
0.026721
0.0266751
0.0269733
0.0267969
0.0271379
0.0267788
0.0266162
0.0268591
0.0266819
0.0268113
0.026863
0.0268284
0.0271432
0.0269651
0.0273355
0.0268034
0.02665
0.0268949
0.0267269
0.0268675
0.0269341
0.0269178
0.0272567
0.0270793
0.0275264
0.0267384
0.0265917
0.0268403
0.0266824
0.0268362
0.0269204
0.0269256
0.027292
0.0271164
0.0276705
0.0269857
0.0268533
0.0271034
0.0269579
0.027126
0.0272292
0.0272572
0.0276489
0.0274799
0.0281173
0.0267515
0.0266188
0.0268739
0.02673
0.0269038
0.0270131
0.0270468
0.0274497
0.0272628
0.0279389
0.0270314
0.0268974
0.0271547
0.0270305
0.0272212
0.0273553
0.0274211
0.027847
0.0276701
0.0283666
0.0258212
0.0256705
0.0258855
0.0257186
0.0258419
0.0258915
0.0258567
0.0261383
0.0259929
0.0263496
0.025664
0.0255356
0.0257501
0.0255781
0.0256972
0.0257339
0.0256754
0.0259484
0.0258232
0.0261765
0.0258641
0.0257389
0.0259467
0.0257766
0.0258927
0.0259281
0.0258709
0.0261523
0.0260572
0.0264207
0.0256918
0.0255705
0.0257809
0.0256154
0.0257364
0.0257767
0.0257234
0.0260181
0.0259211
0.0262802
0.0258018
0.0256926
0.0259021
0.0257447
0.0258737
0.0259249
0.0258851
0.0262039
0.0261004
0.026493
0.0258288
0.025731
0.025943
0.0257975
0.0259412
0.026013
0.0260001
0.0263587
0.0262548
0.0267787
0.0257645
0.0256757
0.0258925
0.0257605
0.0259223
0.0260197
0.0260406
0.0264452
0.0263445
0.0270551
0.0259989
0.0259272
0.0261469
0.0260316
0.0262135
0.026339
0.0263959
0.0268421
0.0267463
0.0275944
0.0257947
0.0257246
0.0259496
0.0258376
0.0260283
0.0261643
0.0262326
0.0266989
0.0265838
0.027468
0.0260337
0.025965
0.0261956
0.0261084
0.026323
0.0264931
0.0266047
0.0271096
0.026997
0.0278341
0.0248109
0.0246983
0.0248854
0.0247384
0.0248608
0.0249182
0.0248937
0.0251784
0.0251476
0.0253904
0.0246878
0.0245984
0.0247817
0.0246269
0.0247384
0.0247716
0.024705
0.024962
0.0249875
0.0254045
0.0248574
0.0247696
0.0249458
0.0247925
0.0248994
0.0249287
0.0248583
0.025121
0.025196
0.0256209
0.0247044
0.0246221
0.0248004
0.0246516
0.0247622
0.0247925
0.0247171
0.0249877
0.0250581
0.0254533
0.0248112
0.0247421
0.024919
0.0247797
0.0248987
0.0249401
0.0248787
0.0251786
0.0252346
0.0256264
0.0248407
0.0247854
0.0249654
0.0248412
0.0249791
0.0250478
0.0250248
0.0253876
0.0254458
0.0260661
0.024781
0.0247377
0.0249238
0.0248173
0.0249795
0.0250846
0.0251136
0.0255513
0.0256125
0.0265869
0.0250033
0.02498
0.0251707
0.0250863
0.0252762
0.0254219
0.0255065
0.0260115
0.0260662
0.0272291
0.0248271
0.0248084
0.0250051
0.0249266
0.0251294
0.0252927
0.025399
0.0259427
0.0259793
0.0271641
0.0250387
0.0250233
0.025229
0.0251809
0.0254166
0.0256255
0.0257886
0.0263895
0.0264576
0.0273485
0.0237849
0.0237045
0.0238684
0.0237419
0.0238596
0.0239232
0.0239144
0.0241643
0.0242466
0.024717
0.0236881
0.0236308
0.023787
0.0236491
0.0237471
0.0237724
0.0236938
0.0238729
0.0240101
0.0248035
0.0238317
0.0237743
0.0239231
0.023786
0.0238776
0.0238957
0.0237998
0.0239604
0.0241448
0.0247808
0.0236984
0.0236477
0.0237977
0.0236645
0.0237568
0.0237676
0.0236463
0.0237849
0.0239208
0.0243921
0.0237991
0.0237624
0.0239103
0.0237873
0.0238873
0.0239063
0.0237902
0.0239569
0.0240235
0.0243584
0.0238307
0.0238102
0.0239617
0.0238572
0.02398
0.0240319
0.0239654
0.0242302
0.0242752
0.0249739
0.0237774
0.0237719
0.0239308
0.0238486
0.0240025
0.0241019
0.024111
0.024501
0.0245221
0.0258109
0.0239859
0.0240037
0.0241692
0.0241153
0.0243058
0.0244603
0.0245524
0.0250584
0.0250362
0.0265871
0.0238344
0.0238589
0.0240311
0.0239867
0.0241961
0.0243785
0.024511
0.0250891
0.0250712
0.0266844
0.0240226
0.0240546
0.0242401
0.024233
0.0244865
0.0247314
0.0249406
0.0255934
0.0257499
0.0270753
0.0227407
0.022688
0.0228324
0.0227267
0.0228364
0.0228987
0.0229122
0.0231052
0.0230407
0.0245569
0.0226633
0.0226331
0.0227657
0.0226444
0.0227237
0.022731
0.0226359
0.0226596
0.022481
0.0236762
0.0227841
0.0227522
0.0228776
0.0227564
0.0228275
0.0228232
0.0226869
0.0226152
0.0223901
0.0230883
0.0226696
0.0226455
0.0227707
0.0226521
0.0227194
0.0226961
0.0224954
0.022331
0.0219284
0.0218157
0.0227623
0.0227525
0.0228747
0.0227667
0.0228406
0.0228203
0.0226043
0.0224571
0.0219233
0.0212199
0.0227957
0.0228041
0.0229305
0.0228446
0.0229457
0.0229629
0.0228036
0.0228068
0.0222189
0.0215878
0.0227491
0.0227755
0.0229105
0.0228521
0.022992
0.0230678
0.0230072
0.0232163
0.0225454
0.0221496
0.0229448
0.0229973
0.0231415
0.0231183
0.0233053
0.0234536
0.0235102
0.0239282
0.0232705
0.0231621
0.0228143
0.0228772
0.0230294
0.0230206
0.0232349
0.0234276
0.0235561
0.0241216
0.0236228
0.024056
0.022986
0.0230586
0.0232281
0.0232641
0.0235362
0.0238145
0.0240582
0.0247343
0.0246258
0.0257812
0.0216831
0.0216566
0.0217855
0.0217028
0.0218062
0.0218548
0.0218756
0.0220685
0.0215128
0.0225287
0.0216195
0.0216141
0.0217272
0.0216246
0.0216865
0.0216647
0.0215457
0.0214646
0.0206698
0.0210206
0.0217205
0.0217117
0.0218182
0.0217151
0.021767
0.0217322
0.0215584
0.0212996
0.0203995
0.0200752
0.0216228
0.0216224
0.021727
0.0216244
0.0216668
0.0216033
0.021325
0.0208759
0.0197808
0.0184678
0.0217059
0.0217193
0.02182
0.0217281
0.0217763
0.0217146
0.0213964
0.0209434
0.0198031
0.0178733
0.0217404
0.0217736
0.0218791
0.0218129
0.0218939
0.0218773
0.0216137
0.0213785
0.0202643
0.0183175
0.0217003
0.021754
0.0218692
0.0218359
0.0219651
0.0220193
0.0218666
0.021942
0.0208736
0.0188821
0.0218825
0.0219651
0.0220922
0.0221017
0.0222907
0.0224377
0.0224344
0.0228328
0.0219922
0.0204611
0.0217719
0.021867
0.0220037
0.0220337
0.0222609
0.0224735
0.0225814
0.0232157
0.0227267
0.0222228
0.021927
0.0220357
0.0221944
0.0222775
0.0225778
0.0229027
0.0231838
0.023981
0.0237932
0.0239737
0.0206075
0.0206072
0.0207255
0.0206707
0.0207803
0.0208215
0.0208218
0.0211078
0.0204068
0.0204697
0.0205529
0.0205721
0.0206712
0.0205932
0.0206507
0.0206089
0.0204529
0.02037
0.019347
0.0185631
0.0206367
0.0206513
0.0207451
0.020667
0.0207136
0.0206616
0.0204591
0.0201233
0.0188786
0.0174721
0.0205536
0.0205767
0.020667
0.0205875
0.0206187
0.0205352
0.0202154
0.0195925
0.0180711
0.0158645
0.020626
0.0206615
0.0207474
0.0206787
0.0207163
0.0206436
0.0202812
0.0196291
0.0180941
0.0152171
0.0206608
0.0207169
0.0208083
0.0207688
0.0208471
0.0208373
0.0205386
0.0201848
0.0188777
0.0159283
0.0206259
0.0207041
0.0208063
0.0208052
0.0209435
0.0210273
0.0208643
0.0209684
0.0201773
0.01774
0.0207957
0.0209045
0.0210213
0.0210706
0.0212837
0.0214893
0.0215268
0.0221062
0.0219334
0.0210239
0.020702
0.020827
0.0209558
0.0210329
0.0212969
0.021594
0.021792
0.0226943
0.0230531
0.0237345
0.020845
0.0209842
0.0211391
0.0212768
0.021629
0.0220629
0.0224747
0.0235926
0.0242156
0.0250298
0.0195126
0.0195414
0.0196558
0.0196387
0.0197797
0.019865
0.0198815
0.0203481
0.0200676
0.019502
0.0194643
0.0195103
0.0196025
0.0195598
0.0196389
0.0196274
0.0194856
0.0195119
0.0188643
0.0173391
0.0195343
0.0195746
0.0196634
0.0196218
0.019689
0.0196666
0.0195027
0.0192367
0.0181715
0.0161632
0.0194636
0.0195118
0.0195957
0.0195507
0.0195955
0.0195388
0.0192694
0.0186575
0.0171185
0.0144049
0.0195247
0.0195831
0.0196623
0.0196283
0.0196795
0.0196472
0.0193517
0.0186943
0.0171212
0.0136863
0.019559
0.0196377
0.0197235
0.0197219
0.0198222
0.0198804
0.0196735
0.0193965
0.0183693
0.0156374
0.0195277
0.0196289
0.0197268
0.0197685
0.0199427
0.0201311
0.02011
0.0204399
0.0205113
0.0199806
0.0196833
0.0198158
0.0199309
0.0200302
0.0202957
0.0206423
0.0208873
0.0218468
0.022886
0.0253999
0.019605
0.0197549
0.0198836
0.0200171
0.0203454
0.0208075
0.0212557
0.0226238
0.0242976
0.0285376
0.0197313
0.0198969
0.020055
0.0202541
0.0206812
0.0212952
0.0219821
0.0235885
0.0254991
0.0287734
0.0183894
0.0184492
0.0185658
0.0185976
0.0187974
0.0189967
0.0191225
0.0197931
0.020273
0.0195315
0.0183447
0.0184192
0.0185114
0.0185165
0.0186469
0.0187356
0.018723
0.0189328
0.0190184
0.0173092
0.0184036
0.0184718
0.0185629
0.0185711
0.0186898
0.0187615
0.0187587
0.018719
0.0181698
0.0160534
0.0183429
0.0184172
0.0185017
0.0185038
0.018591
0.0186175
0.018528
0.0181619
0.0169567
0.0141576
0.0183919
0.0184727
0.018552
0.0185633
0.0186519
0.0187067
0.0186058
0.0181894
0.0169329
0.0137167
0.0184242
0.0185233
0.0186091
0.0186526
0.018791
0.0189557
0.0189585
0.0189439
0.0183811
0.0171132
0.018394
0.0185138
0.0186117
0.0186996
0.0189184
0.0192425
0.0194664
0.020108
0.020859
0.0236441
0.0185351
0.0186847
0.0188008
0.0189489
0.0192686
0.0197753
0.0202993
0.0216524
0.0234782
0.0304104
0.0184685
0.0186372
0.0187678
0.0189532
0.0193414
0.0199744
0.0207196
0.0225245
0.025144
0.0336803
0.0185804
0.0187617
0.018922
0.0191742
0.0196652
0.0204573
0.0214469
0.0234736
0.0265603
0.0330391
0.0172348
0.0173249
0.0174457
0.0175316
0.0178031
0.0181641
0.0184976
0.019368
0.0209088
0.0208656
0.0171931
0.0172954
0.0173906
0.0174511
0.017653
0.0178949
0.0181295
0.0186032
0.0197286
0.0188337
0.0172443
0.0173399
0.0174369
0.0175037
0.0176988
0.0179156
0.0181835
0.0185479
0.0188752
0.0173948
0.0171915
0.0172901
0.0173783
0.0174352
0.0175881
0.0177385
0.0179244
0.0180522
0.0175959
0.0153899
0.0172281
0.017328
0.0174093
0.0174701
0.0176101
0.0177711
0.0179286
0.0179794
0.0173011
0.0148398
0.0172571
0.0173706
0.0174564
0.0175423
0.0177161
0.0179734
0.0181956
0.0185458
0.0181692
0.0181557
0.0172253
0.0173549
0.0174502
0.0175733
0.0178153
0.0182253
0.018647
0.0195346
0.0200469
0.0249008
0.0173486
0.0175037
0.0176151
0.0177927
0.0181286
0.0187165
0.0194115
0.0209534
0.0224505
0.0319973
0.0172911
0.017463
0.017586
0.0177971
0.0181951
0.0189001
0.0197926
0.0217538
0.0244378
0.0355706
0.0173817
0.0175626
0.017713
0.0179858
0.0184803
0.0193397
0.0204767
0.0226283
0.0262503
0.0356177
0.0160386
0.0161507
0.0162691
0.0164001
0.0167261
0.017237
0.0178395
0.0188577
0.0216958
0.0243518
0.0159995
0.0161223
0.0162165
0.0163272
0.0165967
0.016996
0.0175508
0.0183354
0.0208843
0.0228478
0.0160454
0.0161624
0.0162625
0.0163843
0.0166604
0.0170371
0.0176281
0.0185337
0.0203923
0.0214624
0.0159982
0.0161143
0.0162029
0.0163102
0.0165354
0.0168238
0.0173161
0.0181432
0.0192095
0.0194423
0.0160222
0.0161324
0.0162115
0.0163134
0.0165036
0.0167629
0.0171677
0.0178722
0.0183007
0.0178382
0.0160457
0.0161621
0.0162405
0.0163519
0.0165391
0.0168352
0.0171861
0.0179536
0.0176748
0.0179642
0.0160092
0.0161333
0.0162145
0.0163449
0.0165624
0.0169525
0.0173911
0.0183881
0.0179052
0.0214855
0.0161135
0.0162549
0.0163457
0.0165141
0.0167959
0.0173197
0.0179352
0.0193575
0.0195476
0.0279432
0.0160607
0.0162155
0.0163117
0.016501
0.0168222
0.0174309
0.0181892
0.0198873
0.0216782
0.0329607
0.0161312
0.0162863
0.0164033
0.0166425
0.0170428
0.0177865
0.0188015
0.0205616
0.0236952
0.0349195
0.0148001
0.0149178
0.0150165
0.0151606
0.0154791
0.0160347
0.0168833
0.0177913
0.0213247
0.0317774
0.0147659
0.0148948
0.0149749
0.01511
0.0154035
0.0158906
0.0167557
0.0176865
0.0212362
0.0316547
0.0148099
0.014936
0.0150284
0.0151831
0.0155089
0.0160053
0.0168967
0.0182077
0.0216185
0.0313077
0.0147673
0.0148888
0.014969
0.0151072
0.0153842
0.0157898
0.0165491
0.0179931
0.0208899
0.0288523
0.0147799
0.0148883
0.014957
0.0150814
0.0153043
0.0156387
0.0162183
0.0175308
0.0194567
0.0242109
0.0147972
0.0149022
0.0149634
0.0150767
0.0152487
0.0155287
0.0158732
0.0169825
0.0172097
0.0184469
0.0147536
0.0148551
0.0149091
0.0150148
0.0151593
0.0154268
0.0156778
0.0166469
0.0153975
0.017085
0.0148355
0.014943
0.0149966
0.0151146
0.0152736
0.0155937
0.0158871
0.0168999
0.0155481
0.0219306
0.0147845
0.0148973
0.0149458
0.0150637
0.0152228
0.0155743
0.0159477
0.0169104
0.0170496
0.0283169
0.0148288
0.0149326
0.0149926
0.0151413
0.0153493
0.0157906
0.0164043
0.0172333
0.0185674
0.0317804
0.0135164
0.0136154
0.0136701
0.0137794
0.0139991
0.0143829
0.0152898
0.0160284
0.0166445
0.0334789
0.0134889
0.0136032
0.0136499
0.0137674
0.0140087
0.0144139
0.0154453
0.0165158
0.0179513
0.0374662
0.0135333
0.01365
0.0137176
0.0138655
0.0141711
0.0146584
0.0157288
0.0173574
0.0199873
0.0414111
0.0134947
0.0136048
0.0136625
0.013797
0.0140706
0.0145091
0.015431
0.0173963
0.0207806
0.0417305
0.0134981
0.0135902
0.013638
0.0137564
0.0139747
0.0143355
0.015008
0.0169015
0.0201159
0.0365038
0.0135095
0.0135891
0.013624
0.013714
0.0138427
0.014069
0.0143321
0.0158444
0.0171362
0.0253161
0.0134584
0.0135223
0.01354
0.0135953
0.0136381
0.0137281
0.0136983
0.0147735
0.0131446
0.0167117
0.0135186
0.0135755
0.0135821
0.0136215
0.0136211
0.0136545
0.0135014
0.0141456
0.0106109
0.0150163
0.0134666
0.0135203
0.01351
0.0135235
0.0134725
0.01345
0.0132658
0.0134001
0.00969856
0.0173648
0.0134874
0.013519
0.0135075
0.0135259
0.0134782
0.013448
0.0134425
0.0131406
0.00945771
0.0197527
0.0242025
0.0246172
0.022046
0.020782
0.0203052
0.020175
0.0219783
0.0251003
0.0269808
0.0273055
0.023985
0.023507
0.0215654
0.0203466
0.0189747
0.0188959
0.0227568
0.0280239
0.0302701
0.0300139
0.0224642
0.021722
0.0208796
0.0200519
0.0185964
0.0197828
0.026059
0.0327329
0.0349841
0.0336827
0.0207789
0.0204319
0.020018
0.0203646
0.0202583
0.0224141
0.0284317
0.0337211
0.0356369
0.0348503
0.0204669
0.021387
0.021153
0.0222184
0.0234559
0.0254845
0.028869
0.0310038
0.0321602
0.0325664
0.0222322
0.024889
0.0249235
0.0251527
0.0259576
0.0271585
0.0279829
0.0278572
0.0283881
0.0290217
0.0248959
0.028974
0.0289089
0.0275037
0.0268048
0.0271252
0.0270618
0.0264363
0.0267539
0.0267873
0.0272597
0.0318601
0.0315581
0.0290368
0.0270937
0.0271277
0.0275472
0.0272546
0.0273017
0.0264588
0.0279226
0.0314672
0.031663
0.0293881
0.0275334
0.0274876
0.0282626
0.028373
0.0284686
0.0272865
0.0265888
0.0291458
0.0303791
0.0294206
0.0284049
0.0283278
0.0285907
0.0286408
0.0291575
0.0280667
0.0247732
0.024372
0.0211466
0.0191857
0.0181527
0.0169431
0.018339
0.0216622
0.0238719
0.0243207
0.0233276
0.0219658
0.0200805
0.0179487
0.0151609
0.0138778
0.0168983
0.0218467
0.0244845
0.024807
0.0209425
0.0195691
0.0190373
0.0171145
0.014275
0.0144984
0.0189945
0.0245415
0.0267561
0.0268081
0.0183412
0.0178044
0.0170655
0.0165266
0.0156286
0.0175047
0.0218079
0.0253361
0.0267309
0.0273572
0.0180682
0.0185547
0.0178055
0.0181353
0.0192926
0.021071
0.0232534
0.0239288
0.0246577
0.0257458
0.0198819
0.0213197
0.0215502
0.0218428
0.0229311
0.0235479
0.0233204
0.0224574
0.0229208
0.0240527
0.0220929
0.024298
0.0252791
0.0245515
0.0240135
0.0238293
0.0228532
0.0219129
0.0226504
0.0240682
0.0241629
0.026343
0.0275088
0.0260504
0.0242315
0.0236256
0.0237574
0.023781
0.0246861
0.026144
0.0253866
0.0264929
0.0275992
0.0263482
0.024612
0.0242042
0.0253206
0.0264047
0.0275357
0.028609
0.0252671
0.0263655
0.0273724
0.026861
0.0259619
0.026066
0.0270115
0.0277828
0.0291373
0.0300475
0.0237584
0.0227991
0.0192685
0.0164325
0.01544
0.0148028
0.016545
0.0198995
0.0222007
0.0220484
0.0216153
0.020372
0.0180007
0.0147314
0.01188
0.0112036
0.0137551
0.0180842
0.0205531
0.020263
0.018617
0.0181621
0.0170183
0.0143724
0.0113418
0.0110107
0.0134499
0.0172235
0.0190614
0.0199081
0.0156042
0.0160637
0.0145952
0.0131342
0.0124691
0.013764
0.0155394
0.0164606
0.0175677
0.019142
0.014936
0.0159879
0.0149582
0.0146717
0.0154742
0.0168077
0.0167403
0.0157347
0.0165609
0.0180776
0.0163455
0.0178768
0.0180992
0.0183231
0.0192151
0.0190548
0.0173352
0.0159549
0.0167735
0.0179639
0.0184144
0.0203698
0.0218478
0.0214745
0.0209592
0.020052
0.0182805
0.0170534
0.0180034
0.0191383
0.0204875
0.022114
0.0239975
0.0228996
0.0212119
0.0202887
0.0198492
0.0196605
0.0206712
0.0218275
0.0218356
0.0226333
0.0240628
0.0229886
0.021507
0.0210579
0.0217974
0.0228024
0.0242009
0.0253099
0.0230654
0.0236196
0.0243062
0.0234349
0.0224212
0.0223974
0.0233966
0.024663
0.0266823
0.0278379
0.021919
0.0207612
0.0179072
0.0152585
0.0147545
0.0150597
0.0163435
0.0186171
0.0206112
0.0209646
0.0194937
0.018597
0.0161668
0.0126782
0.0106575
0.0112908
0.0127966
0.0152719
0.0165142
0.0163212
0.0165324
0.0166307
0.0150842
0.012273
0.00954551
0.00994587
0.0108016
0.0114612
0.0119941
0.0132763
0.0135315
0.014268
0.0124668
0.0109119
0.0104043
0.0116049
0.0108629
0.00857005
0.00953186
0.0114604
0.0126091
0.0137021
0.0124829
0.0119491
0.0123449
0.0123401
0.00953199
0.00784542
0.00928511
0.010994
0.0144035
0.0156844
0.0151767
0.0147945
0.0144065
0.0122351
0.00949912
0.0088939
0.0106228
0.0120015
0.0174731
0.0186126
0.0189076
0.017398
0.0153284
0.0132319
0.0114392
0.0111314
0.01292
0.01391
0.0204208
0.0208142
0.0210398
0.0183507
0.0157105
0.0146825
0.0146028
0.0149243
0.0159907
0.0164174
0.0225077
0.0216273
0.0207874
0.0181515
0.0163154
0.0161913
0.0172584
0.0183228
0.0194434
0.019808
0.0239889
0.022693
0.0209577
0.0182273
0.0168861
0.0172642
0.0186828
0.0201506
0.0220043
0.0225442
0.0206463
0.0194459
0.0179404
0.0164805
0.0165158
0.017044
0.0175223
0.0180025
0.0191019
0.0194131
0.0179966
0.0173552
0.0155989
0.0131038
0.0123787
0.0136334
0.0141053
0.0135894
0.0127933
0.0132747
0.0153841
0.0155422
0.014097
0.0119007
0.0103088
0.0117779
0.0109739
0.00770138
0.00658719
0.00814152
0.0127427
0.0132455
0.0116777
0.0107496
0.0112331
0.0112396
0.00743151
0.00334151
0.00432387
0.00576038
0.0123905
0.0127102
0.0114769
0.0110164
0.0117972
0.0082588
0.00365652
0.00302578
0.00469971
0.00584381
0.0151861
0.0149583
0.0135959
0.0128127
0.0103576
0.00577941
0.00339385
0.00404331
0.0065962
0.00765386
0.0194358
0.0183064
0.0168522
0.0134662
0.00911334
0.00640276
0.00529477
0.00643804
0.00913278
0.00987593
0.0236791
0.0211082
0.0186366
0.0133687
0.0094212
0.0084378
0.00948884
0.0109302
0.0123082
0.0122654
0.0268036
0.0226625
0.0180881
0.0128611
0.0102966
0.0106987
0.0127933
0.0144745
0.0155334
0.0155111
0.0282393
0.0242663
0.0182748
0.0127982
0.0107895
0.0118577
0.0143664
0.0163781
0.0179476
0.0180608
0.0202971
0.0193298
0.0190261
0.0186683
0.0189441
0.0186172
0.0189892
0.0176813
0.0164268
0.0145125
0.0174845
0.0172769
0.0166775
0.0158044
0.016395
0.0165912
0.0162555
0.0129919
0.00952124
0.00937606
0.0151989
0.0156053
0.0147168
0.0139479
0.0148832
0.0151011
0.0122656
0.00609633
0.00325677
0.00397115
0.0127942
0.0134047
0.0122875
0.0126352
0.015304
0.0123067
0.00571488
0.00102106
0.00149599
0.00162472
0.0123933
0.0126909
0.0116405
0.01199
0.0124069
0.0056947
0.000877465
0.000865881
0.00285311
0.00254816
0.0152371
0.0148534
0.013163
0.012171
0.00721823
0.00183733
0.000449603
0.00200987
0.00526026
0.00518398
0.0202274
0.0184657
0.0156794
0.0104637
0.00461643
0.00205267
0.00219516
0.00471535
0.00781518
0.00760811
0.025433
0.0218269
0.0168673
0.00920445
0.00447624
0.00401484
0.0065698
0.0092843
0.0110185
0.0102507
0.0292168
0.0238281
0.0161599
0.00859091
0.00533578
0.00646877
0.00999408
0.0127134
0.0139651
0.0135614
0.0314419
0.0260109
0.0166232
0.00884357
0.00630979
0.00794375
0.0117266
0.0146321
0.0160371
0.015678
0.0209892
0.0200252
0.020101
0.020205
0.0205978
0.020668
0.0219424
0.0175027
0.0109215
0.00460042
0.0182891
0.0183188
0.0185416
0.0185383
0.0194991
0.0200913
0.0202558
0.0136282
0.00596904
0.00245287
0.016112
0.0168868
0.0166408
0.0169177
0.0193264
0.0191038
0.0160447
0.00714575
0.00107422
-0.00133601
0.0134833
0.0148327
0.0140524
0.0151149
0.018402
0.0149317
0.00798485
0.00195325
0.000678863
-0.00258043
0.011645
0.0132938
0.0126917
0.0143923
0.0131423
0.00667611
0.00230229
0.00174477
0.00327228
0.000173958
0.0140734
0.0149318
0.0137566
0.0131891
0.00689954
0.0019814
0.00115148
0.00328007
0.00631922
0.0042605
0.0197484
0.018672
0.015629
0.0097281
0.00360083
0.00134372
0.00279611
0.00627309
0.00921224
0.0074775
0.0251703
0.0221543
0.0162292
0.00750108
0.00301217
0.00288249
0.0064992
0.0104003
0.0125164
0.0107866
0.0284246
0.0240612
0.0155821
0.00679041
0.00377279
0.00522234
0.00969882
0.0133953
0.0149661
0.0138518
0.0313236
0.026609
0.0164945
0.00744574
0.0050674
0.0070957
0.0115487
0.0150263
0.0161987
0.0150363
0.0234157
0.0212015
0.0204388
0.0215997
0.0240744
0.0267401
0.0275773
0.0167562
0.00143105
-0.00896397
0.0210864
0.0203668
0.0202671
0.020404
0.0220492
0.0263738
0.0269803
0.0142927
-0.000521173
-0.00847556
0.0186941
0.0190868
0.0195335
0.0196323
0.021768
0.0247929
0.023361
0.0100921
-0.00196195
-0.00930248
0.0154972
0.0173462
0.017587
0.0186443
0.0206248
0.0209896
0.0150465
0.0062595
0.000527486
-0.00754265
0.0119285
0.0151747
0.0154124
0.0181739
0.017325
0.0128465
0.0082564
0.00649796
0.00577862
-0.00124966
0.0123761
0.0149589
0.0153939
0.016485
0.0117874
0.0068784
0.00607826
0.00830646
0.0105661
0.0058598
0.0166531
0.0172532
0.0166878
0.0131278
0.00705752
0.00487459
0.00711524
0.011346
0.0147191
0.0114168
0.0211748
0.0203574
0.0174289
0.0103992
0.00551318
0.00537357
0.00949395
0.0145747
0.0181513
0.015883
0.0252476
0.0227815
0.0174655
0.00932227
0.00540986
0.00678984
0.0116036
0.0162278
0.0191497
0.017716
0.0291428
0.0262162
0.0191739
0.0105477
0.00690203
0.00852252
0.0128339
0.0166256
0.0182888
0.0165601
0.0324278
0.0230754
0.0187915
0.0243763
0.031789
0.0351245
0.0331444
0.017983
-0.00098046
-0.00136779
0.0312484
0.022626
0.0184877
0.0208743
0.027443
0.0351771
0.0336303
0.0159972
-0.00226667
-0.00302992
0.0295046
0.0217128
0.0193257
0.0210803
0.0256471
0.0327825
0.0314492
0.0139431
-0.00266591
-0.00357847
0.0246922
0.0195842
0.0189794
0.0218184
0.0261883
0.0304618
0.0245209
0.00985032
-0.000675485
-0.000348391
0.0168263
0.0158457
0.0173568
0.0223131
0.0265674
0.0240422
0.0165862
0.00971766
0.00558075
0.00751988
0.0114952
0.0129609
0.0173593
0.0228714
0.0224825
0.0165117
0.0128341
0.011936
0.0126521
0.0159683
0.0126873
0.0145226
0.0196042
0.0213257
0.0163012
0.0125014
0.0131647
0.015486
0.0188734
0.0228691
0.0165411
0.018401
0.0211592
0.0182231
0.0124541
0.0111906
0.0143369
0.0180518
0.0229447
0.0271822
0.0219095
0.02184
0.0217114
0.0167419
0.0110636
0.010672
0.0141312
0.0178604
0.0228383
0.0261318
0.0271957
0.0251378
0.0232272
0.0185977
0.0136814
0.0124842
0.0143321
0.0166557
0.0204335
0.0230641
0.0576598
0.0318346
0.0191779
0.0275362
0.0352883
0.0371305
0.0340066
0.0243579
0.0297714
0.0839029
0.0650228
0.0309462
0.0158381
0.0240553
0.0345535
0.038943
0.035042
0.0226398
0.0281533
0.0824449
0.0702335
0.0324435
0.018084
0.0254123
0.0342313
0.0382504
0.0346222
0.0217038
0.0275779
0.084107
0.0664173
0.0312283
0.021649
0.0287094
0.0354369
0.0381076
0.0329417
0.0178295
0.0266949
0.091226
0.0510751
0.0255942
0.0235801
0.03146
0.0364525
0.0370523