/*--------------------------------*- C++ -*----------------------------------*\
  =========                 |
  \\      /  F ield         | OpenFOAM: The Open Source CFD Toolbox
   \\    /   O peration     | Website:  https://openfoam.org
    \\  /    A nd           | Version:  6
     \\/     M anipulation  |
\*---------------------------------------------------------------------------*/
FoamFile
{
    version     2.0;
    format      ascii;
    class       surfaceScalarField;
    location    "600";
    object      phi;
}
// * * * * * * * * * * * * * * * * * * * * * * * * * * * * * * * * * * * * * //

dimensions      [0 3 -1 0 0 0 0];

internalField   nonuniform List<scalar> 
19500
(
1.56037e-07
1.56123e-07
9.96887e-05
1.68573e-08
1.56186e-07
9.99839e-05
1.10342e-08
1.56198e-07
9.98505e-05
5.52096e-09
1.56149e-07
9.98503e-05
-9.25318e-10
1.56103e-07
9.98513e-05
-7.29154e-09
1.56048e-07
9.98513e-05
-1.25337e-08
1.55992e-07
9.98502e-05
-1.79316e-08
1.5596e-07
9.98504e-05
-1.57567e-07
1.559e-07
9.99847e-05
1.55751e-07
9.96875e-05
1.56099e-07
1.70309e-08
9.99839e-05
1.67728e-08
1.69458e-08
0.000100279
1.10015e-08
1.69256e-08
0.000100146
5.47739e-09
1.69096e-08
0.000100146
-9.72755e-10
1.68926e-08
0.000100147
-7.33807e-09
1.68798e-08
0.000100147
-1.25724e-08
1.68748e-08
0.000100145
-1.78863e-08
1.68765e-08
0.000100145
-1.5772e-07
1.6895e-08
0.00010028
1.69304e-08
9.9982e-05
1.56107e-07
1.12634e-08
9.98506e-05
1.67535e-08
1.12273e-08
0.000100146
1.09765e-08
1.11975e-08
0.000100012
5.45883e-09
1.11647e-08
0.000100012
-9.9226e-10
1.11284e-08
0.000100013
-7.3552e-09
1.10944e-08
0.000100013
-1.25714e-08
1.10674e-08
0.000100012
-1.78682e-08
1.10525e-08
0.000100012
-1.57793e-07
1.10524e-08
0.000100147
1.09945e-08
9.98491e-05
1.56051e-07
5.80358e-09
9.98503e-05
1.67349e-08
5.75286e-09
0.000100146
1.09445e-08
5.72565e-09
0.000100012
5.42446e-09
5.68696e-09
0.000100012
-1.02579e-09
5.64094e-09
0.000100013
-7.38408e-09
5.59365e-09
0.000100013
-1.25864e-08
5.551e-09
0.000100012
-1.7866e-08
5.52045e-09
0.000100012
-1.57848e-07
5.49914e-09
0.000100147
5.41947e-09
9.98487e-05
1.55994e-07
-6.01346e-10
9.98513e-05
1.67111e-08
-6.59682e-10
0.000100147
1.09053e-08
-6.91811e-10
0.000100013
5.37889e-09
-7.33216e-10
0.000100013
-1.07259e-09
-7.83842e-10
0.000100014
-7.42736e-09
-8.37464e-10
0.000100014
-1.2616e-08
-8.88141e-10
0.000100013
-1.78737e-08
-9.27537e-10
0.000100013
-1.57945e-07
-9.55255e-10
0.000100148
-1.0498e-09
9.98495e-05
1.55924e-07
-6.94378e-09
9.98514e-05
1.66873e-08
-7.00439e-09
0.000100147
1.08645e-08
-7.03802e-09
0.000100013
5.32809e-09
-7.07789e-09
0.000100013
-1.1264e-09
-7.12787e-09
0.000100014
-7.47941e-09
-7.18239e-09
0.000100014
-1.26566e-08
-7.23584e-09
0.000100013
-1.7892e-08
-7.28003e-09
0.000100013
-1.58055e-07
-7.31227e-09
0.000100148
-7.40965e-09
9.98492e-05
1.55848e-07
-1.21883e-08
9.98503e-05
1.66665e-08
-1.22437e-08
0.000100145
1.08268e-08
-1.2262e-08
0.000100012
5.2784e-09
-1.22912e-08
0.000100012
-1.18053e-09
-1.23305e-08
0.000100013
-7.53361e-09
-1.2376e-08
0.000100013
-1.27026e-08
-1.24236e-08
0.000100011
-1.79181e-08
-1.24657e-08
0.000100011
-1.58165e-07
-1.25045e-08
0.000100146
-1.25836e-08
9.98479e-05
1.55796e-07
-1.76091e-08
9.98506e-05
1.66501e-08
-1.75838e-08
0.000100145
1.07977e-08
-1.75902e-08
0.000100012
5.23748e-09
-1.76077e-08
0.000100012
-1.2261e-09
-1.76305e-08
0.000100013
-7.58077e-09
-1.76586e-08
0.000100013
-1.27453e-08
-1.76899e-08
0.000100011
-1.79436e-08
-1.77169e-08
0.000100012
-1.58273e-07
-1.77416e-08
0.000100147
-1.7883e-08
9.98479e-05
1.55707e-07
-1.57198e-07
9.99848e-05
1.6644e-08
-1.57381e-07
0.00010028
1.07791e-08
-1.57476e-07
0.000100147
5.20264e-09
-1.5754e-07
0.000100147
-1.26218e-09
-1.57637e-07
0.000100148
-7.61726e-09
-1.57739e-07
0.000100147
-1.27852e-08
-1.57836e-07
0.000100146
-1.79677e-08
-1.57931e-07
0.000100146
-1.58337e-07
-1.57989e-07
0.000100282
-1.58053e-07
9.99827e-05
1.55529e-07
9.96881e-05
1.66675e-08
9.99823e-05
1.07152e-08
9.98493e-05
5.12466e-09
9.98489e-05
-1.34866e-09
9.98497e-05
-7.70236e-09
9.98495e-05
-1.28517e-08
9.98482e-05
-1.81023e-08
9.98482e-05
-1.58401e-07
9.99832e-05
9.96843e-05
2.23375e-07
2.23377e-07
9.92454e-05
7.05058e-08
2.23541e-07
9.99169e-05
4.31727e-08
2.23289e-07
9.96584e-05
1.81768e-08
2.23244e-07
9.96559e-05
-1.23338e-09
2.23118e-07
9.96515e-05
-2.05329e-08
2.2294e-07
9.96516e-05
-4.52101e-08
2.2272e-07
9.96561e-05
-7.18234e-08
2.22478e-07
9.96585e-05
-2.24648e-07
2.22524e-07
9.9919e-05
2.22172e-07
9.92436e-05
2.23539e-07
7.06547e-08
9.99167e-05
7.05077e-08
7.0662e-08
0.000100589
4.30999e-08
7.05849e-08
0.00010033
1.80282e-08
7.04797e-08
0.000100328
-1.41799e-09
7.03703e-08
0.000100323
-2.07406e-08
7.02469e-08
0.000100323
-4.544e-08
7.01178e-08
0.000100327
-7.20482e-08
7.00266e-08
0.000100329
-2.24968e-07
6.99638e-08
0.00010059
6.97476e-08
9.99124e-05
2.23295e-07
4.33732e-08
9.96583e-05
7.04313e-08
4.33185e-08
0.00010033
4.30399e-08
4.32706e-08
0.000100071
1.7946e-08
4.31541e-08
0.000100069
-1.52913e-09
4.30175e-08
0.000100064
-2.08724e-08
4.28639e-08
0.000100064
-4.55617e-08
4.27069e-08
0.000100068
-7.21065e-08
4.25825e-08
0.00010007
-2.24899e-07
4.24751e-08
0.000100331
4.22272e-08
9.96546e-05
2.23269e-07
1.8408e-08
9.96558e-05
7.03397e-08
1.82987e-08
0.000100328
4.29236e-08
1.82492e-08
0.000100069
1.78122e-08
1.81392e-08
0.000100066
-1.67882e-09
1.79993e-08
0.000100062
-2.10247e-08
1.78406e-08
0.000100062
-4.56872e-08
1.76788e-08
0.000100066
-7.21835e-08
1.75459e-08
0.000100068
-2.25129e-07
1.74501e-08
0.000100329
1.72186e-08
9.96515e-05
2.23184e-07
-9.74109e-10
9.96514e-05
7.02652e-08
-1.09362e-09
0.000100323
4.28112e-08
-1.14837e-09
0.000100064
1.76727e-08
-1.24619e-09
0.000100062
-1.83679e-09
-1.37473e-09
0.000100057
-2.11852e-08
-1.51885e-09
0.000100057
-4.58254e-08
-1.66354e-09
0.000100061
-7.22768e-08
-1.78014e-09
0.000100063
-2.25325e-07
-1.84589e-09
0.000100324
-2.07079e-09
9.96463e-05
2.23073e-07
-2.02453e-08
9.96514e-05
7.02001e-08
-2.03637e-08
0.000100323
4.27092e-08
-2.04184e-08
0.000100064
1.75437e-08
-2.04956e-08
0.000100062
-1.98117e-09
-2.06015e-08
0.000100057
-2.13294e-08
-2.07191e-08
0.000100057
-4.59487e-08
-2.08363e-08
0.000100061
-7.23575e-08
-2.09317e-08
0.000100063
-2.25489e-07
-2.09721e-08
0.000100324
-2.1157e-08
9.96457e-05
2.22949e-07
-4.48707e-08
9.96559e-05
7.01503e-08
-4.50089e-08
0.000100327
4.2627e-08
-4.50486e-08
0.000100068
1.74364e-08
-4.50911e-08
0.000100066
-2.10012e-09
-4.51636e-08
0.000100061
-2.14471e-08
-4.52472e-08
0.000100061
-4.60518e-08
-4.53346e-08
0.000100065
-7.24282e-08
-4.54183e-08
0.000100067
-2.25596e-07
-4.54204e-08
0.000100328
-4.55497e-08
9.96496e-05
2.22805e-07
-7.15324e-08
9.96583e-05
7.01416e-08
-7.16621e-08
0.000100329
4.25849e-08
-7.164e-08
0.00010007
1.73685e-08
-7.16396e-08
0.000100068
-2.1789e-09
-7.1671e-08
0.000100063
-2.15292e-08
-7.17112e-08
0.000100063
-4.61374e-08
-7.17609e-08
0.000100067
-7.24737e-08
-7.17983e-08
0.000100068
-2.25635e-07
-7.18504e-08
0.00010033
-7.18811e-08
9.96514e-05
2.22956e-07
-2.24359e-07
9.99185e-05
7.01589e-08
-2.24661e-07
0.00010059
4.2551e-08
-2.24504e-07
0.000100331
1.73306e-08
-2.24632e-07
0.000100329
-2.20768e-09
-2.24732e-07
0.000100324
-2.15514e-08
-2.24821e-07
0.000100324
-4.61331e-08
-2.24873e-07
0.000100328
-7.2526e-08
-2.24881e-07
0.00010033
-2.25874e-07
-2.25098e-07
0.000100592
-2.25046e-07
9.99127e-05
2.22617e-07
9.92437e-05
7.00169e-08
9.99129e-05
4.2399e-08
9.96552e-05
1.71945e-08
9.96522e-05
-2.35145e-09
9.96473e-05
-2.16745e-08
9.96468e-05
-4.62235e-08
9.96506e-05
-7.25288e-08
9.96523e-05
-2.25819e-07
9.99141e-05
9.92348e-05
2.51778e-07
2.51801e-07
9.87454e-05
9.13532e-08
2.52146e-07
9.98288e-05
5.90095e-08
2.51378e-07
9.94431e-05
2.57333e-08
2.51383e-07
9.94416e-05
-2.13792e-09
2.5114e-07
9.94321e-05
-2.98257e-08
2.50843e-07
9.94323e-05
-6.25225e-08
2.50512e-07
9.94422e-05
-9.38089e-08
2.4998e-07
9.94437e-05
-2.54762e-07
2.50459e-07
9.98337e-05
2.4967e-07
9.87419e-05
2.52124e-07
9.13203e-08
9.98288e-05
9.15644e-08
9.15244e-08
0.000100914
5.89061e-08
9.13029e-08
0.000100527
2.54979e-08
9.10717e-08
0.000100525
-2.4704e-09
9.08433e-08
0.000100515
-3.02275e-08
9.05723e-08
0.000100515
-6.2991e-08
9.0277e-08
0.000100524
-9.44017e-08
9.00469e-08
0.000100524
-2.55494e-07
8.99907e-08
0.000100915
8.93352e-08
9.98201e-05
2.51361e-07
5.89402e-08
9.9443e-05
9.13413e-08
5.88384e-08
0.000100527
5.87768e-08
5.87316e-08
0.00010014
2.53138e-08
5.84668e-08
0.000100139
-2.70093e-09
5.81652e-08
0.000100129
-3.04853e-08
5.78176e-08
0.000100129
-6.32564e-08
5.74476e-08
0.000100138
-9.44653e-08
5.71349e-08
0.000100139
-2.55061e-07
5.69083e-08
0.000100529
5.63836e-08
9.94355e-05
2.51384e-07
2.56428e-08
9.94415e-05
9.11298e-08
2.54331e-08
0.000100525
5.85111e-08
2.5307e-08
0.000100139
2.50034e-08
2.5038e-08
0.000100137
-3.04808e-09
2.47093e-08
0.000100127
-3.08391e-08
2.43365e-08
0.000100127
-6.35691e-08
2.39469e-08
0.000100136
-9.46728e-08
2.3609e-08
0.000100137
-2.55584e-07
2.34153e-08
0.000100528
2.29087e-08
9.94324e-05
2.51187e-07
-2.21316e-09
9.94319e-05
9.09561e-08
-2.48328e-09
0.000100515
5.82494e-08
-2.61132e-09
0.000100129
2.46746e-08
-2.86581e-09
0.000100127
-3.42323e-09
-3.18698e-09
0.000100117
-3.12239e-08
-3.54258e-09
0.000100117
-6.3918e-08
-3.90436e-09
0.000100126
-9.49316e-08
-4.21866e-09
0.000100126
-2.55925e-07
-4.36052e-09
0.000100517
-4.8225e-09
9.94212e-05
2.5098e-07
-2.983e-08
9.94319e-05
9.07841e-08
-3.01346e-08
0.000100515
5.79928e-08
-3.02514e-08
0.000100129
2.43552e-08
-3.04677e-08
0.000100127
-3.7792e-09
-3.07508e-08
0.000100117
-3.15785e-08
-3.10569e-08
0.000100116
-6.4231e-08
-3.13612e-08
0.000100125
-9.5153e-08
-3.16316e-08
0.000100125
-2.56235e-07
-3.17053e-08
0.000100517
-3.20929e-08
9.94198e-05
2.50779e-07
-6.24238e-08
9.94416e-05
9.06253e-08
-6.27574e-08
0.000100524
5.77602e-08
-6.28573e-08
0.000100138
2.40684e-08
-6.30071e-08
0.000100136
-4.09197e-09
-6.32281e-08
0.000100126
-3.18824e-08
-6.34634e-08
0.000100125
-6.44978e-08
-6.36996e-08
0.000100134
-9.53185e-08
-6.39101e-08
0.000100134
-2.56506e-07
-6.39432e-08
0.000100526
-6.4178e-08
9.94281e-05
2.50421e-07
-9.35767e-08
9.94429e-05
9.05576e-08
-9.40752e-08
0.000100524
5.76102e-08
-9.39907e-08
0.000100139
2.38589e-08
-9.40468e-08
0.000100137
-4.32869e-09
-9.41833e-08
0.000100127
-3.21228e-08
-9.43273e-08
0.000100126
-6.47091e-08
-9.44589e-08
0.000100135
-9.54943e-08
-9.46254e-08
0.000100134
-2.56492e-07
-9.47418e-08
0.000100527
-9.46339e-08
9.94283e-05
2.51035e-07
-2.54208e-07
9.9832e-05
9.06404e-08
-2.54883e-07
0.000100915
5.75234e-08
-2.54282e-07
0.000100529
2.37718e-08
-2.54628e-07
0.000100527
-4.41019e-09
-2.54812e-07
0.000100517
-3.21775e-08
-2.54998e-07
0.000100517
-6.47456e-08
-2.55189e-07
0.000100526
-9.56138e-08
-2.55114e-07
0.000100526
-2.57223e-07
-2.55825e-07
0.000100919
-2.55744e-07
9.98194e-05
2.50299e-07
9.87418e-05
9.01142e-08
9.98209e-05
5.71568e-08
9.94366e-05
2.34222e-08
9.94342e-05
-4.73517e-09
9.94235e-05
-3.24639e-08
9.94224e-05
-6.49036e-08
9.94308e-05
-9.54686e-08
9.94306e-05
-2.57142e-07
9.98227e-05
9.87233e-05
2.68697e-07
2.6888e-07
9.82113e-05
1.0175e-07
2.69467e-07
9.973e-05
6.50461e-08
2.68151e-07
9.92154e-05
2.86317e-08
2.6824e-07
9.92136e-05
-3.39599e-09
2.67808e-07
9.92002e-05
-3.5102e-08
2.67368e-07
9.92006e-05
-7.06988e-08
2.66913e-07
9.92147e-05
-1.05766e-07
2.65984e-07
9.92167e-05
-2.74184e-07
2.66766e-07
9.97391e-05
2.65416e-07
9.82052e-05
2.69287e-07
1.01676e-07
9.97303e-05
1.02191e-07
1.02092e-07
0.000101252
6.49108e-08
1.0168e-07
0.000100734
2.83244e-08
1.01305e-07
0.000100733
-3.91734e-09
1.00945e-07
0.000100718
-3.58204e-08
1.00503e-07
0.000100718
-7.14823e-08
9.99879e-08
0.00010073
-1.06959e-07
9.95591e-08
0.00010073
-2.75428e-07
9.94827e-08
0.000101255
9.82327e-08
9.97148e-05
2.6797e-07
6.48901e-08
9.92156e-05
1.01774e-07
6.47309e-08
0.000100734
6.46941e-08
6.4547e-08
0.000100218
2.80169e-08
6.41124e-08
0.000100217
-4.27065e-09
6.36281e-08
0.000100203
-3.62065e-08
6.30577e-08
0.000100202
-7.19037e-08
6.24238e-08
0.000100216
-1.07068e-07
6.18463e-08
0.000100216
-2.74664e-07
6.14886e-08
0.000100739
6.0511e-08
9.92016e-05
2.6807e-07
2.84365e-08
9.92137e-05
1.01426e-07
2.81306e-08
0.000100732
6.42583e-08
2.79104e-08
0.000100217
2.74999e-08
2.74536e-08
0.000100215
-4.85441e-09
2.69117e-08
0.000100201
-3.68183e-08
2.62918e-08
0.0001002
-7.24727e-08
2.56269e-08
0.000100213
-1.0749e-07
2.50081e-08
0.000100213
-2.75647e-07
2.47364e-08
0.000100737
2.37444e-08
9.91967e-05
2.67689e-07
-3.56934e-09
9.92001e-05
1.01143e-07
-4.03653e-09
0.000100718
6.38324e-08
-4.22941e-09
0.000100202
2.69582e-08
-4.6723e-09
0.000100201
-5.4806e-09
-5.21515e-09
0.000100186
-3.74751e-08
-5.81548e-09
0.000100185
-7.3091e-08
-6.4362e-09
0.000100198
-1.07979e-07
-7.01137e-09
0.000100197
-2.76166e-07
-7.19855e-09
0.000100722
-8.07684e-09
9.918e-05
2.67368e-07
-3.52027e-08
9.92001e-05
1.00847e-07
-3.57855e-08
0.000100717
6.33999e-08
-3.5931e-08
0.000100202
2.64207e-08
-3.63172e-08
0.0001002
-6.0825e-09
-3.68075e-08
0.000100185
-3.8082e-08
-3.73316e-08
0.000100184
-7.36343e-08
-3.78556e-08
0.000100197
-1.08377e-07
-3.83339e-08
0.000100196
-2.76703e-07
-3.84463e-08
0.000100721
-3.9101e-08
9.91773e-05
2.6713e-07
-7.05984e-08
9.92138e-05
1.00557e-07
-7.11951e-08
0.00010073
6.29912e-08
-7.13234e-08
0.000100215
2.59238e-08
-7.16097e-08
0.000100213
-6.62126e-09
-7.20057e-08
0.000100198
-3.86058e-08
-7.24176e-08
0.000100197
-7.40754e-08
-7.28133e-08
0.000100209
-1.08683e-07
-7.32048e-08
0.000100208
-2.77205e-07
-7.31818e-08
0.000100734
-7.36398e-08
9.91886e-05
2.66483e-07
-1.0556e-07
9.92153e-05
1.00407e-07
-1.06514e-07
0.000100729
6.2701e-08
-1.06316e-07
0.000100215
2.55349e-08
-1.06452e-07
0.000100213
-7.06034e-09
-1.06718e-07
0.000100198
-3.90369e-08
-1.06982e-07
0.000100197
-7.44676e-08
-1.07233e-07
0.000100209
-1.0896e-07
-1.07497e-07
0.000100208
-2.77132e-07
-1.07728e-07
0.000100734
-1.07526e-07
9.9188e-05
2.67606e-07
-2.73105e-07
9.97358e-05
1.00613e-07
-2.74276e-07
0.000101254
6.26043e-08
-2.73179e-07
0.000100738
2.54486e-08
-2.73824e-07
0.000100736
-7.16013e-09
-2.74059e-07
0.000100722
-3.91417e-08
-2.74391e-07
0.000100721
-7.44658e-08
-2.74763e-07
0.000100733
-1.09203e-07
-2.74631e-07
0.000100732
-2.78323e-07
-2.75781e-07
0.000101261
-2.75612e-07
9.97121e-05
2.66332e-07
9.8205e-05
9.96103e-08
9.97161e-05
6.19239e-08
9.92039e-05
2.47466e-08
9.92004e-05
-7.78979e-09
9.91849e-05
-3.96062e-08
9.91828e-05
-7.48105e-08
9.91942e-05
-1.08917e-07
9.9193e-05
-2.78154e-07
9.97191e-05
9.8171e-05
2.81299e-07
2.81709e-07
9.76517e-05
1.10062e-07
2.82559e-07
9.96222e-05
6.89006e-08
2.80725e-07
9.89795e-05
3.01391e-08
2.80901e-07
9.89753e-05
-4.84168e-09
2.80209e-07
9.89588e-05
-3.9397e-08
2.79561e-07
9.89593e-05
-7.6885e-08
2.78955e-07
9.89771e-05
-1.15987e-07
2.77351e-07
9.8982e-05
-2.89482e-07
2.7833e-07
9.96384e-05
2.75914e-07
9.76423e-05
2.82158e-07
1.10003e-07
9.96234e-05
1.10706e-07
1.10596e-07
0.0001016
6.87085e-08
1.09995e-07
0.000100951
2.97473e-08
1.09451e-07
0.000100947
-5.62391e-09
1.08921e-07
0.000100929
-4.05483e-08
1.08246e-07
0.000100928
-7.82058e-08
1.07436e-07
0.000100944
-1.17842e-07
1.06634e-07
0.000100944
-2.91718e-07
1.06428e-07
0.000101605
1.04273e-07
9.95976e-05
2.8031e-07
6.87298e-08
9.89802e-05
1.10098e-07
6.84729e-08
0.00010095
6.83975e-08
6.82095e-08
0.000100306
2.92908e-08
6.75659e-08
0.000100302
-6.13752e-09
6.68551e-08
0.000100284
-4.11119e-08
6.59908e-08
0.000100284
-7.89111e-08
6.4995e-08
0.0001003
-1.18127e-07
6.39789e-08
0.000100302
-2.90958e-07
6.33802e-08
0.00010096
6.16131e-08
9.89564e-05
2.80484e-07
2.99147e-08
9.89758e-05
1.09589e-07
2.94838e-08
0.000100946
6.77521e-08
2.91574e-08
0.000100302
2.85084e-08
2.84597e-08
0.000100297
-7.04211e-09
2.76508e-08
0.00010028
-4.20942e-08
2.67027e-08
0.000100279
-7.98965e-08
2.56568e-08
0.000100294
-1.18946e-07
2.45925e-08
0.000100296
-2.92698e-07
2.41885e-08
0.000100955
2.23173e-08
9.89466e-05
2.79845e-07
-5.06674e-09
9.8959e-05
1.09166e-07
-5.80141e-09
0.000100928
6.7124e-08
-6.06009e-09
0.000100284
2.77006e-08
-6.74969e-09
0.000100279
-7.99746e-09
-7.5751e-09
0.000100261
-4.31274e-08
-8.50307e-09
0.00010026
-8.0916e-08
-9.47455e-09
0.000100275
-1.19805e-07
-1.04461e-08
0.000100276
-2.93571e-07
-1.06983e-08
0.000100936
-1.22674e-08
9.89245e-05
2.79373e-07
-3.95336e-08
9.89591e-05
1.08714e-07
-4.0501e-08
0.000100926
6.64704e-08
-4.06638e-08
0.000100283
2.68818e-08
-4.12784e-08
0.000100278
-8.9286e-09
-4.20362e-08
0.00010026
-4.40815e-08
-4.28532e-08
0.000100258
-8.1797e-08
-4.36605e-08
0.000100273
-1.205e-07
-4.44628e-08
0.000100273
-2.94448e-07
-4.45184e-08
0.000100934
-4.56755e-08
9.89197e-05
2.79102e-07
-7.69066e-08
9.8976e-05
1.08264e-07
-7.78405e-08
0.000100942
6.584e-08
-7.79984e-08
0.000100299
2.61142e-08
-7.84775e-08
0.000100294
-9.76691e-09
-7.91032e-08
0.000100276
-4.48927e-08
-7.97503e-08
0.000100274
-8.25001e-08
-8.03658e-08
0.000100288
-1.20952e-07
-8.09643e-08
0.000100288
-2.95309e-07
-8.08386e-08
0.00010095
-8.16836e-08
9.89326e-05
2.78088e-07
-1.15763e-07
9.89799e-05
1.07981e-07
-1.17211e-07
0.000100943
6.53476e-08
-1.169e-07
0.000100301
2.54687e-08
-1.17166e-07
0.000100296
-1.0492e-08
-1.17602e-07
0.000100277
-4.5608e-08
-1.18038e-07
0.000100275
-8.31004e-08
-1.18415e-07
0.000100289
-1.21392e-07
-1.18859e-07
0.000100289
-2.9517e-07
-1.1909e-07
0.00010095
-1.18827e-07
9.89332e-05
2.79713e-07
-2.88111e-07
9.96324e-05
1.0832e-07
-2.89924e-07
0.000101602
6.52514e-08
-2.88382e-07
0.000100957
2.54051e-08
-2.8942e-07
0.000100953
-1.06017e-08
-2.89732e-07
0.000100934
-4.57053e-08
-2.90248e-07
0.000100933
-8.30742e-08
-2.90948e-07
0.000100948
-1.21662e-07
-2.90702e-07
0.000100947
-2.9662e-07
-2.92136e-07
0.000101613
-2.91939e-07
9.95914e-05
2.77728e-07
9.76418e-05
1.06744e-07
9.95999e-05
6.41289e-08
9.8961e-05
2.41668e-08
9.89539e-05
-1.16672e-08
9.89341e-05
-4.65219e-08
9.89305e-05
-8.36685e-08
9.89435e-05
-1.21258e-07
9.8943e-05
-2.96417e-07
9.9605e-05
9.75841e-05
2.89045e-07
2.89726e-07
9.70762e-05
1.16082e-07
2.90824e-07
9.95077e-05
7.18561e-08
2.88476e-07
9.87387e-05
3.12662e-08
2.88718e-07
9.87307e-05
-6.42486e-09
2.87712e-07
9.87124e-05
-4.34613e-08
2.86802e-07
9.87132e-05
-8.24446e-08
2.85884e-07
9.87335e-05
-1.23711e-07
2.83368e-07
9.87436e-05
-2.99857e-07
2.83878e-07
9.9534e-05
2.79812e-07
9.70655e-05
2.90167e-07
1.16025e-07
9.95103e-05
1.16916e-07
1.16761e-07
0.00010195
7.15992e-08
1.1597e-07
0.000101172
3.078e-08
1.15225e-07
0.000101165
-7.51722e-09
1.14464e-07
0.000101144
-4.52325e-08
1.13472e-07
0.000101143
-8.44768e-08
1.1221e-07
0.00010116
-1.26803e-07
1.10778e-07
0.000101163
-3.03649e-07
1.10087e-07
0.00010196
1.06552e-07
9.94702e-05
2.87782e-07
7.16294e-08
9.87403e-05
1.16115e-07
7.12283e-08
0.000101171
7.11818e-08
7.08795e-08
0.0001004
3.01375e-08
6.99681e-08
0.000100392
-8.25888e-09
6.89547e-08
0.000100372
-4.61243e-08
6.76786e-08
0.000100371
-8.56892e-08
6.61431e-08
0.000100389
-1.27633e-07
6.43808e-08
0.000100394
-3.03499e-07
6.32605e-08
0.000101187
6.01688e-08
9.87026e-05
2.8799e-07
3.09294e-08
9.8732e-05
1.15412e-07
3.03148e-08
0.000101163
7.02672e-08
2.98665e-08
0.000100392
2.89957e-08
2.8844e-08
0.000100384
-9.61831e-09
2.76679e-08
0.000100363
-4.76768e-08
2.6251e-08
0.000100362
-8.73721e-08
2.46343e-08
0.00010038
-1.29175e-07
2.28275e-08
0.000100383
-3.066e-07
2.20856e-08
0.000101178
1.88669e-08
9.86848e-05
2.87024e-07
-6.81477e-09
9.87134e-05
1.14797e-07
-7.91087e-09
0.000101142
6.93696e-08
-8.25542e-09
0.000100371
2.78222e-08
-9.2918e-09
0.000100363
-1.10375e-08
-1.05132e-08
0.000100343
-4.92776e-08
-1.1915e-08
0.000100341
-8.90329e-08
-1.34083e-08
0.000100357
-1.30685e-07
-1.50228e-08
0.00010036
-3.0823e-07
-1.53107e-08
0.000101156
-1.80084e-08
9.86567e-05
2.86345e-07
-4.38824e-08
9.87135e-05
1.14132e-07
-4.53531e-08
0.00010114
6.84087e-08
-4.55554e-08
0.00010037
2.66035e-08
-4.65024e-08
0.000100361
-1.24451e-08
-4.76414e-08
0.00010034
-5.07601e-08
-4.88848e-08
0.000100338
-9.0448e-08
-5.01128e-08
0.000100354
-1.31792e-07
-5.13317e-08
0.000100356
-3.09735e-07
-5.12075e-08
0.000101153
-5.30511e-08
9.86484e-05
2.86013e-07
-8.27144e-08
9.87326e-05
1.13468e-07
-8.40875e-08
0.000101157
6.74709e-08
-8.42989e-08
0.000100388
2.54511e-08
-8.5068e-08
0.000100379
-1.37147e-08
-8.60201e-08
0.000100358
-5.20021e-08
-8.70107e-08
0.000100355
-9.1462e-08
-8.79157e-08
0.00010037
-1.32436e-07
-8.87691e-08
0.000100371
-3.11e-07
-8.82842e-08
0.00010117
-8.94641e-08
9.86613e-05
2.84557e-07
-1.23978e-07
9.87405e-05
1.12973e-07
-1.26025e-07
0.000101161
6.66703e-08
-1.25633e-07
0.000100393
2.44203e-08
-1.26112e-07
0.000100384
-1.48688e-08
-1.26783e-07
0.000100362
-5.31059e-08
-1.27465e-07
0.000100358
-9.23149e-08
-1.28054e-07
0.000100373
-1.32971e-07
-1.28677e-07
0.000100374
-3.10524e-07
-1.28631e-07
0.000101173
-1.28445e-07
9.86645e-05
2.86658e-07
-2.98778e-07
9.95244e-05
1.13425e-07
-3.01302e-07
0.000101954
6.65611e-08
-2.99328e-07
0.000101181
2.43729e-08
-3.00857e-07
0.000101174
-1.49749e-08
-3.01316e-07
0.000101153
-5.32054e-08
-3.02156e-07
0.00010115
-9.21438e-08
-3.03269e-07
0.000101167
-1.33035e-07
-3.02993e-07
0.000101167
-3.12037e-07
-3.04628e-07
0.000101973
-3.04146e-07
9.94584e-05
2.83859e-07
9.70619e-05
1.11166e-07
9.94741e-05
6.48263e-08
9.87109e-05
2.23817e-08
9.86986e-05
-1.67434e-08
9.86751e-05
-5.45181e-08
9.86694e-05
-9.31551e-08
9.86822e-05
-1.3271e-07
9.86826e-05
-3.11557e-07
9.94825e-05
9.697e-05
2.92274e-07
2.93305e-07
9.64938e-05
1.19397e-07
2.94658e-07
9.93892e-05
7.32674e-08
2.9182e-07
9.84965e-05
3.15429e-08
2.921e-07
9.84839e-05
-8.13559e-09
2.90768e-07
9.8465e-05
-4.70206e-08
2.89526e-07
9.84662e-05
-8.63379e-08
2.88218e-07
9.84883e-05
-1.28488e-07
2.84228e-07
9.85048e-05
-3.03886e-07
2.83534e-07
9.94299e-05
2.75684e-07
9.64885e-05
2.93677e-07
1.19357e-07
9.93939e-05
1.20432e-07
1.20208e-07
0.000102301
7.29759e-08
1.19222e-07
0.000101396
3.09905e-08
1.18238e-07
0.000101385
-9.57434e-09
1.17199e-07
0.000101362
-4.94791e-08
1.15797e-07
0.00010136
-8.95384e-08
1.13946e-07
0.000101378
-1.33318e-07
1.11484e-07
0.000101383
-3.1119e-07
1.09863e-07
0.000102315
1.03339e-07
9.93343e-05
2.90759e-07
7.29763e-08
9.84993e-05
1.19428e-07
7.23921e-08
0.000101394
7.24314e-08
7.19461e-08
0.000100498
3.01287e-08
7.07025e-08
0.000100486
-1.06274e-08
6.93179e-08
0.000100465
-5.085e-08
6.75112e-08
0.000100464
-9.16041e-08
6.52261e-08
0.000100483
-1.3525e-07
6.22754e-08
0.000100491
-3.1323e-07
6.01549e-08
0.000101419
5.40053e-08
9.8442e-05
2.90937e-07
3.10633e-08
9.84865e-05
1.18489e-07
3.0192e-08
0.000101382
7.11835e-08
2.96049e-08
0.000100485
2.85369e-08
2.81605e-08
0.000100473
-1.25777e-08
2.6514e-08
0.000100451
-5.32001e-08
2.44553e-08
0.00010045
-9.43487e-08
2.20117e-08
0.000100468
-1.3814e-07
1.89699e-08
0.000100475
-3.18976e-07
1.75894e-08
0.000101406
1.12314e-08
9.8412e-05
2.89584e-07
-8.82331e-09
9.84673e-05
1.17626e-07
-1.03938e-08
0.000101358
6.99411e-08
-1.08503e-08
0.000100463
2.68949e-08
-1.23565e-08
0.000100451
-1.46242e-08
-1.41128e-08
0.000100429
-5.56105e-08
-1.61947e-08
0.000100427
-9.70408e-08
-1.84726e-08
0.000100444
-1.40824e-07
-2.1095e-08
0.000100448
-3.22513e-07
-2.15358e-08
0.000101381
-2.67041e-08
9.83754e-05
2.88629e-07
-4.7847e-08
9.84677e-05
1.16673e-07
-4.99642e-08
0.000101355
6.8566e-08
-5.02374e-08
0.000100461
2.51258e-08
-5.16535e-08
0.000100448
-1.6718e-08
-5.33287e-08
0.000100426
-5.7891e-08
-5.52046e-08
0.000100423
-9.92828e-08
-5.70354e-08
0.000100439
-1.42751e-07
-5.89159e-08
0.000100442
-3.25303e-07
-5.83623e-08
0.000101377
-6.13942e-08
9.83611e-05
2.88174e-07
-8.73823e-08
9.84878e-05
1.15723e-07
-8.93403e-08
0.000101373
6.72063e-08
-8.96382e-08
0.00010048
2.3428e-08
-9.08314e-08
0.000100466
-1.86224e-08
-9.2257e-08
0.000100443
-5.97542e-08
-9.37709e-08
0.000100439
-1.0081e-07
-9.50961e-08
0.000100454
-1.43701e-07
-9.63386e-08
0.000100456
-3.26791e-07
-9.49113e-08
0.000101395
-9.64585e-08
9.83727e-05
2.86195e-07
-1.29892e-07
9.85006e-05
1.14907e-07
-1.32616e-07
0.000101379
6.59501e-08
-1.32159e-07
0.000100489
2.18197e-08
-1.32968e-07
0.000100474
-2.04268e-08
-1.34001e-07
0.00010045
-6.14543e-08
-1.35076e-07
0.000100445
-1.0211e-07
-1.35995e-07
0.00010046
-1.44194e-07
-1.36801e-07
0.000100462
-3.25646e-07
-1.36321e-07
0.000101401
-1.35591e-07
9.83817e-05
2.88789e-07
-3.05386e-07
9.9415e-05
1.15469e-07
-3.08826e-07
0.000102308
6.58047e-08
-3.06501e-07
0.00010141
2.17472e-08
-3.08655e-07
0.000101398
-2.05694e-08
-3.09419e-07
0.000101375
-6.1532e-08
-3.1074e-07
0.000101372
-1.01637e-07
-3.12461e-07
0.000101388
-1.43979e-07
-3.12435e-07
0.00010139
-3.26098e-07
-3.13959e-07
0.000102338
-3.13422e-07
9.93133e-05
2.84922e-07
9.64742e-05
1.12333e-07
9.93406e-05
6.31938e-08
9.84565e-05
1.867e-08
9.84376e-05
-2.33447e-08
9.8411e-05
-6.37026e-08
9.84026e-05
-1.03464e-07
9.84129e-05
-1.43645e-07
9.84143e-05
-3.25433e-07
9.93536e-05
9.63332e-05
2.92659e-07
2.94163e-07
9.59099e-05
1.20945e-07
2.95769e-07
9.92682e-05
7.33488e-08
2.92512e-07
9.82548e-05
3.09084e-08
2.9283e-07
9.82369e-05
-1.00696e-08
2.91224e-07
9.82183e-05
-4.98994e-08
2.8971e-07
9.82198e-05
-8.93072e-08
2.87877e-07
9.8243e-05
-1.30749e-07
2.82005e-07
9.82677e-05
-2.98552e-07
2.77992e-07
9.93232e-05
2.62212e-07
9.59302e-05
2.9436e-07
1.20973e-07
9.92757e-05
1.22205e-07
1.21898e-07
0.000102651
7.31076e-08
1.20726e-07
0.00010162
3.03941e-08
1.19478e-07
0.000101604
-1.17229e-08
1.1814e-07
0.000101581
-5.31148e-08
1.16281e-07
0.000101578
-9.39265e-08
1.13706e-07
0.000101596
-1.38699e-07
1.09789e-07
0.000101603
-3.13975e-07
1.05948e-07
0.000102667
9.43041e-08
9.91907e-05
2.90942e-07
7.30193e-08
9.82595e-05
1.20999e-07
7.22077e-08
0.000101617
7.24302e-08
7.16601e-08
0.000100599
2.92915e-08
7.00242e-08
0.000100582
-1.31438e-08
6.82081e-08
0.000100561
-5.5141e-08
6.57522e-08
0.00010056
-9.72591e-08
6.25005e-08
0.000100579
-1.42865e-07
5.77189e-08
0.000100592
-3.22122e-07
5.32061e-08
0.000101655
4.16749e-08
9.81748e-05
2.91016e-07
3.02436e-08
9.82416e-05
1.19781e-07
2.90221e-08
0.000101599
7.07908e-08
2.82782e-08
0.000100581
2.71625e-08
2.62974e-08
0.000100564
-1.58175e-08
2.40457e-08
0.000100542
-5.85181e-08
2.11304e-08
0.000100541
-1.01568e-07
1.75321e-08
0.00010056
-1.48273e-07
1.25304e-08
0.00010057
-3.34358e-07
9.42217e-09
0.00010164
-1.90198e-09
9.81234e-05
2.89218e-07
-1.11213e-08
9.82229e-05
1.18606e-07
-1.3309e-08
0.000101575
6.91165e-08
-1.39169e-08
0.000100559
2.49144e-08
-1.60604e-08
0.000100541
-1.86886e-08
-1.85538e-08
0.000100519
-6.20468e-08
-2.16053e-08
0.000100516
-1.05821e-07
-2.50274e-08
0.000100534
-1.53153e-07
-2.93063e-08
0.000100542
-3.4273e-07
-3.02536e-08
0.000101615
-3.92599e-08
9.80722e-05
2.87896e-07
-5.14113e-08
9.82236e-05
1.17264e-07
-5.43513e-08
0.000101571
6.71739e-08
-5.47515e-08
0.000100556
2.23715e-08
-5.68341e-08
0.000100538
-2.17644e-08
-5.92829e-08
0.000100515
-6.55011e-08
-6.20951e-08
0.000100511
-1.09369e-07
-6.48556e-08
0.000100527
-1.56503e-07
-6.77288e-08
0.000100532
-3.48188e-07
-6.5891e-08
0.000101609
-7.02311e-08
9.80461e-05
2.87222e-07
-9.12685e-08
9.8244e-05
1.15918e-07
-9.39877e-08
0.000101588
6.52184e-08
-9.44272e-08
0.000100574
1.98821e-08
-9.62397e-08
0.000100555
-2.46028e-08
-9.83683e-08
0.000100531
-6.83393e-08
-1.00683e-07
0.000100526
-1.11613e-07
-1.0268e-07
0.00010054
-1.57382e-07
-1.04206e-07
0.000100544
-3.48927e-07
-1.00323e-07
0.000101625
-9.95005e-08
9.80561e-05
2.84616e-07
-1.3445e-07
9.82629e-05
1.14637e-07
-1.38035e-07
0.000101597
6.32909e-08
-1.37586e-07
0.000100587
1.74069e-08
-1.38896e-07
0.000100567
-2.74036e-08
-1.40478e-07
0.000100542
-7.10005e-08
-1.42177e-07
0.000100536
-1.13296e-07
-1.436e-07
0.000100548
-1.57167e-07
-1.44815e-07
0.000100551
-3.42904e-07
-1.42065e-07
0.000101634
-1.39557e-07
9.80817e-05
2.87598e-07
-3.0984e-07
9.93065e-05
1.15258e-07
-3.14297e-07
0.00010266
6.30506e-08
-3.11716e-07
0.00010164
1.72296e-08
-3.14677e-07
0.000101624
-2.76663e-08
-3.15993e-07
0.000101601
-7.11083e-08
-3.18109e-07
0.000101597
-1.12516e-07
-3.20835e-07
0.000101612
-1.55386e-07
-3.21285e-07
0.000101616
-3.39945e-07
-3.23558e-07
0.000102709
-3.23749e-07
9.91618e-05
2.82494e-07
9.58847e-05
1.11035e-07
9.92006e-05
5.92108e-08
9.81997e-05
1.26248e-08
9.81728e-05
-3.20163e-08
9.81432e-05
-7.46845e-08
9.81308e-05
-1.15282e-07
9.81369e-05
-1.5594e-07
9.81371e-05
-3.39313e-07
9.92178e-05
9.5672e-05
2.91461e-07
2.93622e-07
9.53278e-05
1.21648e-07
2.95513e-07
9.91456e-05
7.27114e-08
2.91966e-07
9.8015e-05
2.96003e-08
2.92366e-07
9.79911e-05
-1.22233e-08
2.90645e-07
9.79732e-05
-5.25075e-08
2.88987e-07
9.79748e-05
-9.15959e-08
2.86819e-07
9.79991e-05
-1.33393e-07
2.78793e-07
9.80342e-05
-2.85623e-07
2.69731e-07
9.92079e-05
2.3949e-07
9.54058e-05
2.9352e-07
1.21833e-07
9.9157e-05
1.23193e-07
1.22791e-07
0.000102997
7.26755e-08
1.2147e-07
0.000101844
2.93564e-08
1.19947e-07
0.000101823
-1.38462e-08
1.18326e-07
0.0001018
-5.62213e-08
1.16025e-07
0.000101797
-9.78545e-08
1.12745e-07
0.000101816
-1.45384e-07
1.07045e-07
0.000101826
-3.17336e-07
1.00295e-07
0.00010301
7.81482e-08
9.9035e-05
2.89669e-07
7.24001e-08
9.80224e-05
1.21808e-07
7.131e-08
0.000101839
7.18718e-08
7.06749e-08
0.000100703
2.80085e-08
6.85904e-08
0.000100681
-1.56852e-08
6.63206e-08
0.00010066
-5.90327e-08
6.31722e-08
0.000100659
-1.02768e-07
5.88588e-08
0.00010068
-1.52224e-07
5.15663e-08
0.0001007
-3.36283e-07
4.36402e-08
0.000101897
1.90379e-08
9.78975e-05
2.89565e-07
2.87833e-08
9.79989e-05
1.2027e-07
2.70958e-08
0.000101816
6.97906e-08
2.61821e-08
0.000100679
2.52923e-08
2.35351e-08
0.000100657
-1.91472e-08
2.05534e-08
0.000100636
-6.35334e-08
1.65883e-08
0.000100635
-1.08981e-07
1.14686e-08
0.000100656
-1.60824e-07
3.41088e-09
0.000100673
-3.58715e-07
-2.08479e-09
0.000101885
-2.62245e-08
9.78093e-05
2.87271e-07
-1.3728e-08
9.79815e-05
1.18715e-07
-1.6706e-08
0.000101791
6.75907e-08
-1.7517e-08
0.000100657
2.23092e-08
-2.0504e-08
0.000100634
-2.30282e-08
-2.39709e-08
0.000100613
-6.85493e-08
-2.83674e-08
0.000100611
-1.15588e-07
-3.35282e-08
0.000100629
-1.69179e-07
-4.0662e-08
0.000100642
-3.75044e-07
-4.23008e-08
0.000101862
-6.14437e-08
9.77318e-05
2.85469e-07
-5.49247e-08
9.79828e-05
1.16857e-07
-5.89018e-08
0.000101785
6.48896e-08
-5.9511e-08
0.000100654