/*--------------------------------*- C++ -*----------------------------------*\
  =========                 |
  \\      /  F ield         | OpenFOAM: The Open Source CFD Toolbox
   \\    /   O peration     | Website:  https://openfoam.org
    \\  /    A nd           | Version:  6
     \\/     M anipulation  |
\*---------------------------------------------------------------------------*/
FoamFile
{
    version     2.0;
    format      ascii;
    class       volVectorField;
    location    "600";
    object      U;
}
// * * * * * * * * * * * * * * * * * * * * * * * * * * * * * * * * * * * * * //

dimensions      [0 1 -1 0 0 0 0];

internalField   nonuniform List<vector> 
7000
(
(0.000599252 0.000599657 0.997872)
(0.000757273 0.000600457 0.999411)
(0.000214773 0.000599937 0.998947)
(8.37519e-05 0.000599778 0.998948)
(2.21474e-05 0.000599597 0.99895)
(-4.00958e-05 0.000599393 0.99895)
(-9.9938e-05 0.000599196 0.998947)
(-0.000228076 0.000599051 0.998946)
(-0.000769795 0.000599404 0.999415)
(-0.000605865 0.000598212 0.997866)
(0.000600046 0.000758562 0.999411)
(0.000757254 0.000758547 1.00095)
(0.000214217 0.000758321 1.00049)
(8.32698e-05 0.000757984 1.00049)
(2.16932e-05 0.000757685 1.00049)
(-4.05406e-05 0.000757393 1.00049)
(-0.000100241 0.000757159 1.00049)
(-0.000228078 0.000757087 1.00049)
(-0.000770412 0.000757113 1.00095)
(-0.000607085 0.000756463 0.999403)
(0.00059951 0.000216808 0.998948)
(0.000757012 0.000216238 1.00049)
(0.000214104 0.000216104 1.00002)
(8.30982e-05 0.000215862 1.00002)
(2.15088e-05 0.000215595 1.00003)
(-4.0702e-05 0.000215347 1.00003)
(-0.000100344 0.000215162 1.00002)
(-0.000228113 0.000215075 1.00002)
(-0.000770465 0.00021504 1.00049)
(-0.000606807 0.00021488 0.99894)
(0.000599317 8.63437e-05 0.998948)
(0.000756621 8.58134e-05 1.00049)
(0.000213843 8.55791e-05 1.00002)
(8.27822e-05 8.52432e-05 1.00002)
(2.11821e-05 8.4855e-05 1.00003)
(-4.09904e-05 8.44708e-05 1.00003)
(-0.000100545 8.4142e-05 1.00002)
(-0.00022821 8.39292e-05 1.00002)
(-0.000770653 8.37958e-05 1.00049)
(-0.000607054 8.32303e-05 0.99894)
(0.000599078 2.52266e-05 0.998951)
(0.000756222 2.46841e-05 1.00049)
(0.000213514 2.43931e-05 1.00003)
(8.23738e-05 2.40048e-05 1.00003)
(2.0737e-05 2.35388e-05 1.00003)
(-4.14155e-05 2.30545e-05 1.00003)
(-0.000100886 2.26086e-05 1.00003)
(-0.000228441 2.22772e-05 1.00002)
(-0.00077111 2.20426e-05 1.00049)
(-0.000607438 2.12006e-05 0.998942)
(0.000598793 -3.66806e-05 0.998951)
(0.000755784 -3.72555e-05 1.00049)
(0.000213161 -3.75703e-05 1.00003)
(8.19275e-05 -3.79612e-05 1.00003)
(2.02322e-05 -3.84462e-05 1.00003)
(-4.19204e-05 -3.89687e-05 1.00003)
(-0.000101322 -3.94733e-05 1.00002)
(-0.000228775 -3.98825e-05 1.00002)
(-0.000771704 -4.01711e-05 1.00049)
(-0.000607889 -4.11252e-05 0.99894)
(0.000598494 -9.64263e-05 0.998948)
(0.000755358 -9.68872e-05 1.00049)
(0.000212827 -9.71797e-05 1.00002)
(8.14991e-05 -9.75203e-05 1.00002)
(1.97307e-05 -9.79563e-05 1.00003)
(-4.24415e-05 -9.84416e-05 1.00002)
(-0.000101799 -9.89314e-05 1.00002)
(-0.000229157 -9.93368e-05 1.00002)
(-0.000772365 -9.96504e-05 1.00049)
(-0.000608365 -0.000100636 0.998936)
(0.000598242 -0.000224607 0.998947)
(0.000755078 -0.000224822 1.00048)
(0.000212562 -0.000225088 1.00002)
(8.11526e-05 -0.000225361 1.00002)
(1.93126e-05 -0.000225717 1.00002)
(-4.28932e-05 -0.000226124 1.00002)
(-0.000102216 -0.000226538 1.00002)
(-0.000229527 -0.000226913 1.00002)
(-0.000773045 -0.000227145 1.00049)
(-0.000608771 -0.000228264 0.998933)
(0.000598444 -0.000766513 0.999415)
(0.000754821 -0.00076736 1.00095)
(0.0002123 -0.00076765 1.00049)
(8.08514e-05 -0.000768 1.00049)
(1.89664e-05 -0.00076855 1.00049)
(-4.32422e-05 -0.000769171 1.00049)
(-0.000102553 -0.000769813 1.00049)
(-0.000229764 -0.000770444 1.00049)
(-0.000773649 -0.000771028 1.00096)
(-0.000609636 -0.000771882 0.999403)
(0.000597158 -0.000604316 0.997869)
(0.000753998 -0.000605636 0.999404)
(0.000212027 -0.000605464 0.998941)
(8.02567e-05 -0.000605776 0.998941)
(1.81693e-05 -0.000606183 0.998942)
(-4.40986e-05 -0.000606618 0.998941)
(-0.000103414 -0.000607054 0.998936)
(-0.000230786 -0.000607409 0.998934)
(-0.000774468 -0.000608254 0.999405)
(-0.000609333 -0.000607954 0.997848)
(0.00146727 0.00146714 0.994371)
(0.00172645 0.00147256 0.999213)
(0.000433538 0.00146922 0.997348)
(0.00026911 0.00146911 0.997339)
(8.6086e-05 0.00146834 0.99733)
(-0.00011085 0.00146736 0.99733)
(-0.000291286 0.00146624 0.99734)
(-0.000449981 0.00146479 0.99735)
(-0.00174094 0.00146699 0.999228)
(-0.00147559 0.00146057 0.99436)
(0.00147269 0.00172718 0.999213)
(0.00172796 0.00172872 1.00406)
(0.00043208 0.00172708 1.00219)
(0.000267956 0.00172608 1.00218)
(8.44659e-05 0.00172483 1.00217)
(-0.000112909 0.00172328 1.00217)
(-0.000293426 0.00172153 1.00218)
(-0.000451112 0.00172007 1.00219)
(-0.00174441 0.00171993 1.00407)
(-0.00148187 0.0017164 0.999188)
(0.00146937 0.000435405 0.997348)
(0.00172635 0.000434074 1.00219)
(0.000431733 0.000433791 1.00033)
(0.0002672 0.000432821 1.00032)
(8.34739e-05 0.00043167 1.00031)
(-0.000114126 0.000430342 1.00031)
(-0.000294646 0.000428947 1.00032)
(-0.000452261 0.000427827 1.00032)
(-0.00174442 0.000426736 1.0022)
(-0.00147957 0.000425554 0.997328)
(0.00146934 0.000271299 0.997339)
(0.00172549 0.000270438 1.00218)
(0.000430825 0.000269911 1.00032)
(0.000265932 0.000268764 1.00031)
(8.20346e-05 0.000267373 1.0003)
(-0.000115646 0.000265816 1.0003)
(-0.000296008 0.000264239 1.00031)
(-0.000453299 0.000262977 1.00031)
(-0.00174579 0.000262007 1.0022)
(-0.00148102 0.000259655 0.997316)
(0.00146875 8.86142e-05 0.99733)
(0.00172459 8.75184e-05 1.00217)
(0.000429958 8.69736e-05 1.00031)
(0.00026466 8.59147e-05 1.0003)
(8.05256e-05 8.45529e-05 1.00029)
(-0.000117256 8.30207e-05 1.00029)
(-0.000297478 8.14738e-05 1.0003)
(-0.000454388 8.02179e-05 1.0003)
(-0.0017473 7.9411e-05 1.00219)
(-0.00148213 7.7024e-05 0.997303)
(0.00146808 -0.000108017 0.99733)
(0.00172363 -0.000109299 1.00217)
(0.000429169 -0.00010985 1.00031)
(0.000263507 -0.000110737 1.0003)
(7.91389e-05 -0.00011193 1.00029)
(-0.000118722 -0.000113266 1.00029)
(-0.000298804 -0.000114606 1.0003)
(-0.000455303 -0.000115693 1.0003)
(-0.00174867 -0.00011627 1.00219)
(-0.00148318 -0.000118289 0.997301)
(0.00146739 -0.000288092 0.99734)
(0.00172271 -0.000289337 1.00218)
(0.000428531 -0.000289768 1.00032)
(0.000262574 -0.000290346 1.00031)
(7.79923e-05 -0.000291223 1.0003)
(-0.000119932 -0.000292228 1.0003)
(-0.000299903 -0.000293257 1.0003)
(-0.000456058 -0.000294174 1.00031)
(-0.00174974 -0.00029443 1.0022)
(-0.00148399 -0.000296 0.997308)
(0.00146637 -0.000446652 0.997349)
(0.00172209 -0.000446847 1.00219)
(0.000428223 -0.000447203 1.00032)
(0.000262043 -0.000447461 1.00031)
(7.72499e-05 -0.000447938 1.0003)
(-0.000120758 -0.000448475 1.0003)
(-0.00030075 -0.000449067 1.00031)
(-0.000456535 -0.000449507 1.00032)
(-0.0017505 -0.000449369 1.0022)
(-0.0014842 -0.000451272 0.997315)
(0.00146904 -0.00173764 0.999226)
(0.00172282 -0.0017406 1.00407)
(0.00042788 -0.00173983 1.0022)
(0.000261725 -0.00174034 1.0022)
(7.69173e-05 -0.0017411 1.00219)
(-0.000121052 -0.00174188 1.00219)
(-0.000300867 -0.00174257 1.0022)
(-0.000456351 -0.00174314 1.0022)
(-0.00175209 -0.00174461 1.00409)
(-0.0014877 -0.001744 0.9992)
(0.00146261 -0.00147387 0.994363)
(0.00171966 -0.00148014 0.999192)
(0.000427547 -0.00147746 0.997332)
(0.000260332 -0.00147842 0.997321)
(7.54168e-05 -0.00147907 0.997309)
(-0.000122341 -0.00147974 0.997307)
(-0.000301922 -0.00148025 0.997314)
(-0.00045791 -0.00148031 0.997321)
(-0.00175132 -0.00148369 0.999207)
(-0.00148294 -0.00147894 0.994317)
(0.00199263 0.00199246 0.99021)
(0.0021541 0.00200371 0.998859)
(0.000440357 0.00199562 0.995589)
(0.000422829 0.0019961 0.995568)
(0.000126304 0.0019945 0.99551)
(-0.000169241 0.00199272 0.995511)
(-0.000461871 0.00199088 0.995572)
(-0.000468274 0.00198732 0.995593)
(-0.00218424 0.00199374 0.998891)
(-0.00201311 0.00197984 0.990188)
(0.00200389 0.00215397 0.998857)
(0.00215776 0.00215759 1.00752)
(0.000438417 0.00215263 1.00424)
(0.000421512 0.0021511 1.00422)
(0.000123472 0.00214867 1.00416)
(-0.000173057 0.00214571 1.00415)
(-0.000466725 0.00214241 1.00421)
(-0.000470863 0.00213884 1.00422)
(-0.00219188 0.00214091 1.00753)
(-0.00202674 0.00213275 0.998798)
(0.00199579 0.000440027 0.995588)
(0.0021528 0.000438064 1.00424)
(0.00043756 0.000437322 1.00097)
(0.000419766 0.000435014 1.00095)
(0.000121374 0.000432494 1.00089)
(-0.000175574 0.000429546 1.00088)
(-0.000469252 0.000426368 1.00094)
(-0.000473183 0.000423721 1.00096)
(-0.0021901 0.000421585 1.00426)
(-0.00202066 0.000418417 0.995538)
(0.00199632 0.000421963 0.995567)
(0.00215143 0.000420786 1.00422)
(0.00043536 0.000419444 1.00095)
(0.000416777 0.000416663 1.00092)
(0.000118036 0.000413416 1.00086)
(-0.000179165 0.00040975 1.00086)
(-0.000472591 0.000405925 1.00092)
(-0.000475613 0.000402684 1.00093)
(-0.0021936 0.000400689 1.00424)
(-0.00202437 0.000395055 0.995507)
(0.0019949 0.00012539 0.995508)
(0.00214948 0.000123004 1.00416)
(0.000433336 0.000121716 1.00088)
(0.000413737 0.000119054 1.00086)
(0.000114453 0.000115743 1.0008)
(-0.000183061 0.000112029 1.0008)
(-0.000476311 0.000108197 1.00085)
(-0.000478314 0.000104875 1.00087)
(-0.00219693 0.000103145 1.00417)
(-0.00202662 9.81254e-05 0.995437)
(0.00199348 -0.000169678 0.995508)
(0.0021474 -0.000172695 1.00415)
(0.000431368 -0.000173981 1.00088)
(0.000410807 -0.000176405 1.00086)
(0.000111009 -0.000179509 1.0008)
(-0.000186708 -0.000182905 1.0008)
(-0.000479738 -0.000186317 1.00085)
(-0.000480601 -0.000189312 1.00086)
(-0.00219993 -0.000190454 1.00417)
(-0.00202897 -0.000194742 0.995428)
(0.00199217 -0.000461402 0.995568)
(0.00214535 -0.000465086 1.00421)
(0.000429596 -0.000466062 1.00094)
(0.000408197 -0.00046788 1.00092)
(0.000107944 -0.000470432 1.00086)
(-0.000189872 -0.000473216 1.00085)
(-0.00048271 -0.000476033 1.00091)
(-0.000482396 -0.00047859 1.00092)
(-0.00220242 -0.00047932 1.00423)
(-0.00203123 -0.000482032 0.99548)
(0.00198934 -0.000466586 0.995588)
(0.00214337 -0.000468009 1.00422)
(0.000428604 -0.00046876 1.00096)
(0.000406423 -0.000469653 1.00093)
(0.00010566 -0.000471171 1.00087)
(-0.000192322 -0.00047276 1.00087)
(-0.000485114 -0.000474305 1.00092)
(-0.000483899 -0.000475826 1.00093)
(-0.00220387 -0.000475403 1.00424)
(-0.00203124 -0.000478353 0.995493)
(0.00199626 -0.00217942 0.998881)
(0.00214669 -0.00218647 1.00753)
(0.00042789 -0.00218323 1.00426)
(0.000405665 -0.00218514 1.00424)
(0.000104769 -0.00218706 1.00418)
(-0.000193054 -0.00218902 1.00417)
(-0.000485749 -0.00219088 1.00423)
(-0.000483474 -0.00219191 1.00424)
(-0.00220845 -0.00219634 1.00756)
(-0.0020398 -0.00219502 0.998801)
(0.00198242 -0.00200942 0.990186)
(0.00213924 -0.00202295 0.998804)
(0.000426164 -0.00201616 0.995546)
(0.000401629 -0.00201901 0.995518)
(0.000101251 -0.00202042 0.995452)
(-0.000196118 -0.00202203 0.995445)
(-0.000487516 -0.00202374 0.995497)
(-0.000485827 -0.0020233 0.995507)
(-0.00220696 -0.0020317 0.998821)
(-0.00203046 -0.00202233 0.990064)
(0.00233635 0.00233673 0.985049)
(0.00234065 0.00235435 0.997957)
(0.00038646 0.00234042 0.993411)
(0.000543929 0.00234192 0.993391)
(0.000131026 0.00233894 0.993275)
(-0.000198787 0.00233617 0.993278)
(-0.000607116 0.00233362 0.993399)
(-0.000430065 0.00232706 0.99342)
(-0.00239357 0.00233805 0.998023)
(-0.00237609 0.00231558 0.985006)
(0.00235396 0.00234109 0.997957)
(0.00234651 0.00234684 1.01089)
(0.000384274 0.00233762 1.00632)
(0.000542726 0.00233572 1.0063)
(0.000126663 0.00233173 1.00618)
(-0.000205001 0.00232716 1.00617)
(-0.000615982 0.00232203 1.00628)
(-0.00043561 0.00231554 1.00629)
(-0.0024067 0.00231972 1.01091)
(-0.00239801 0.00230593 0.997845)
(0.00233997 0.00038565 0.993411)
(0.00233723 0.000383233 1.00632)
(0.000383086 0.000382212 1.00176)
(0.000539741 0.00037825 1.00175)
(0.00012339 0.000374285 1.00163)
(-0.000208874 0.000369521 1.00162)
(-0.000619897 0.000364093 1.00174)
(-0.000439791 0.000359454 1.00174)
(-0.00240287 0.000355601 1.00636)
(-0.00238745 0.000348847 0.99331)
(0.00234143 0.00054198 0.99339)
(0.00233546 0.000540678 1.0063)
(0.000379286 0.000538299 1.00174)
(0.000534767 0.000533629 1.00172)
(0.000117838 0.000528297 1.0016)
(-0.000215027 0.000522173 1.0016)
(-0.00062594 0.000515548 1.00171)
(-0.000444064 0.000509506 1.00172)
(-0.00240982 0.000506542 1.00633)
(-0.00239486 0.000495403 0.993267)
(0.00233854 0.000128975 0.993273)
(0.00233201 0.000124886 1.00618)
(0.000376065 0.000122863 1.00162)
(0.000529741 0.000118323 1.0016)
(0.000111911 0.00011281 1.00148)
(-0.000221614 0.000106589 1.00147)
(-0.000632553 0.000100022 1.00158)
(-0.000448817 9.39153e-05 1.00159)
(-0.00241549 9.15032e-05 1.00621)
(-0.0023987 8.20906e-05 0.993128)
(0.00233612 -0.000200323 0.993273)
(0.00232862 -0.000205584 1.00617)
(0.000372813 -0.00020743 1.00162)
(0.000524739 -0.000211731 1.0016)
(0.000106105 -0.000217055 1.00147)
(-0.000227807 -0.000222826 1.00147)
(-0.000638603 -0.000228682 1.00157)
(-0.000452614 -0.000234058 1.00157)
(-0.00242084 -0.000235569 1.0062)
(-0.00240327 -0.000243676 0.993108)
(0.00233435 -0.000607073 0.99339)
(0.00232551 -0.000614304 1.00628)
(0.000369745 -0.000615508 1.00173)
(0.000520102 -0.000618957 1.00171)
(0.00010081 -0.00062357 1.00158)
(-0.000233238 -0.000628501 1.00158)
(-0.000643749 -0.000633407 1.00168)
(-0.000455448 -0.000638097 1.00168)
(-0.00242552 -0.000639078 1.00631)
(-0.00240802 -0.000643701 0.993208)
(0.00232884 -0.000428565 0.993408)
(0.00232158 -0.00043195 1.00628)
(0.000368051 -0.000433099 1.00174)
(0.000516664 -0.000434601 1.00172)
(9.65551e-05 -0.000437282 1.00159)
(-0.00023767 -0.000439962 1.00158)
(-0.000648193 -0.000442527 1.00169)
(-0.000458096 -0.000445291 1.00168)
(-0.00242759 -0.000443746 1.00631)
(-0.00240786 -0.000448138 0.993211)
(0.00234105 -0.00238538 0.997998)
(0.00232857 -0.00239734 1.0109)
(0.000367034 -0.00239058 1.00635)
(0.000515934 -0.00239453 1.00633)
(9.55072e-05 -0.00239767 1.0062)
(-0.000238684 -0.00240121 1.0062)
(-0.000649197 -0.00240476 1.00631)
(-0.000456601 -0.00240626 1.0063)
(-0.0024359 -0.00241419 1.01095)
(-0.00242263 -0.0024128 0.997828)
(0.00231846 -0.00236871 0.985002)
(0.00231591 -0.00239072 0.997853)
(0.000363021 -0.00237881 0.993325)
(0.000507761 -0.00238453 0.993292)
(8.88409e-05 -0.00238673 0.993161)
(-0.00024446 -0.00238987 0.993146)
(-0.000652146 -0.00239351 0.993246)
(-0.000459948 -0.00239267 0.993245)
(-0.00243416 -0.00240707 0.997874)
(-0.00240886 -0.00239317 0.984755)
(0.00259451 0.00259548 0.979394)
(0.00245346 0.00261959 0.996802)
(0.000350645 0.00259945 0.99101)
(0.000645725 0.00260222 0.990984)
(0.000107746 0.00259717 0.990829)
(-0.000204009 0.00259302 0.990834)
(-0.000736598 0.00258988 0.990998)
(-0.000411573 0.00257857 0.99103)
(-0.00253314 0.00259436 0.996925)
(-0.00265788 0.00256086 0.979322)
(0.00261861 0.00245512 0.996809)
(0.00246123 0.00246266 1.01426)
(0.000348127 0.00244918 1.00842)
(0.000644587 0.00244688 1.0084)
(0.000101202 0.00244073 1.00823)
(-0.000213336 0.00243397 1.00822)
(-0.000751485 0.00242669 1.00837)
(-0.000421698 0.00241501 1.00837)
(-0.00255384 0.00242058 1.0143)
(-0.00269035 0.00239777 0.996614)
(0.00259829 0.000350199 0.991014)
(0.00244759 0.000347129 1.00842)
(0.00034693 0.000346174 1.00261)
(0.000640008 0.000340096 1.00259)
(9.64526e-05 0.000334423 1.00243)
(-0.000218993 0.000327222 1.00242)
(-0.000757576 0.000318607 1.00257)
(-0.000429423 0.000310455 1.00258)
(-0.00254991 0.000303372 1.00849)
(-0.00267631 0.000289754 0.990834)
(0.00260085 0.000643285 0.990986)
(0.00244533 0.000641651 1.00839)
(0.000341096 0.000637967 1.00259)
(0.000632572 0.00063096 1.00256)
(8.79813e-05 0.000623013 1.0024)
(-0.000228706 0.000613615 1.00239)
(-0.000767867 0.000603105 1.00254)
(-0.000436942 0.000592471 1.00254)
(-0.00256277 0.00058792 1.00846)
(-0.00268939 0.000567337 0.990764)
(0.0025957 0.00010516 0.990828)
(0.00243976 9.86675e-05 1.00822)
(0.000336516 9.58625e-05 1.00242)
(0.000625059 8.88995e-05 1.00239)
(7.90536e-05 8.06147e-05 1.00223)
(-0.000238894 7.10686e-05 1.00222)
(-0.000778713 6.07854e-05 1.00236)
(-0.000444948 5.03955e-05 1.00236)
(-0.00257235 4.69762e-05 1.00828)
(-0.00269586 2.99221e-05 0.990566)
(0.00259191 -0.000206112 0.990829)
(0.00243468 -0.000214308 1.00821)
(0.000331688 -0.000216666 1.00242)
(0.000617385 -0.00022344 1.00238)
(7.0158e-05 -0.000231595 1.00222)
(-0.000248523 -0.000240534 1.0022)
(-0.000788524 -0.000249624 1.00235)
(-0.00045105 -0.000258628 1.00234)
(-0.00258148 -0.000260216 1.00827)
(-0.00270389 -0.000274943 0.99053)
(0.00258974 -0.000737383 0.990987)
(0.00243045 -0.000749332 1.00836)
(0.000326954 -0.000750588 1.00257)
(0.000610121 -0.000756391 1.00254)
(6.19643e-05 -0.000763759 1.00236)
(-0.000256911 -0.000771634 1.00235)
(-0.000796726 -0.000779361 1.00249)
(-0.000454964 -0.000787067 1.00248)
(-0.00258938 -0.000787777 1.00841)
(-0.00271285 -0.000796369 0.990659)
(0.00258062 -0.000410734 0.99101)
(0.00242382 -0.000416621 1.00836)
(0.000324276 -0.000418445 1.00258)
(0.000604211 -0.000420777 1.00254)
(5.49247e-05 -0.00042504 1.00237)
(-0.000264174 -0.000429189 1.00235)
(-0.000803941 -0.000432832 1.00249)
(-0.000458953 -0.000437325 1.00248)
(-0.00259256 -0.000433367 1.00841)
(-0.00271329 -0.000439904 0.990658)
(0.00259854 -0.00252175 0.996877)
(0.00243467 -0.00253942 1.01428)
(0.000322756 -0.00252922 1.00847)
(0.000603817 -0.00253609 1.00844)
(5.38836e-05 -0.00254075 1.00827)
(-0.000265175 -0.00254644 1.00826)
(-0.000805224 -0.00255263 1.0084)
(-0.000455361 -0.00255475 1.00839)
(-0.00260365 -0.00256521 1.01436)
(-0.00273433 -0.00256479 0.996572)
(0.00256582 -0.002647 0.979315)
(0.00241563 -0.00267866 0.996628)
(0.000315386 -0.00266153 0.990865)
(0.00058969 -0.00267122 0.990817)
(4.26691e-05 -0.00267447 0.990635)
(-0.000275381 -0.00267977 0.990608)
(-0.000810471 -0.00268672 0.990737)
(-0.000459662 -0.00268546 0.990726)
(-0.00260273 -0.0027059 0.996665)
(-0.00271714 -0.00268842 0.978879)
(0.00278979 0.0027914 0.973632)
(0.00252002 0.0028218 0.995637)
(0.000330317 0.00279531 0.988582)
(0.00073054 0.00279944 0.988527)
(6.65087e-05 0.0027918 0.988349)
(-0.000193178 0.00278604 0.988356)
(-0.000851348 0.00278179 0.98855)
(-0.00040753 0.00276446 0.988617)
(-0.00262749 0.00278241 0.995845)
(-0.00288047 0.00273565 0.973535)
(0.00282021 0.0025232 0.995654)
(0.00252937 0.00253209 1.01773)
(0.00032752 0.0025145 1.0106)
(0.00072945 0.00251163 1.01055)
(5.73446e-05 0.00250275 1.01035)
(-0.000206653 0.00249323 1.01034)
(-0.000874408 0.00248239 1.01051)
(-0.000426323 0.00246318 1.01052)
(-0.00266052 0.00246525 1.0178)
(-0.00292541 0.00242912 0.995341)
(0.00279332 0.000330081 0.988592)
(0.00251142 0.000326123 1.01059)
(0.000326448 0.00032539 1.00351)
(0.000722812 0.000316625 1.00346)
(5.0646e-05 0.000308717 1.00327)
(-0.000215204 0.000298061 1.00326)
(-0.000884451 0.000284423 1.00344)
(-0.00044101 0.000270001 1.00347)
(-0.00266095 0.00025609 1.01071)
(-0.00291049 0.000230485 0.988296)
(0.00279685 0.000726696 0.988535)
(0.00250833 0.000724288 1.01054)
(0.000318043 0.000718963 1.00346)
(0.000712171 0.000708926 1.00341)
(3.80932e-05 0.000697403 1.00321)
(-0.000230118 0.00068337 1.0032)
(-0.000901665 0.0006671 1.00337)
(-0.000454713 0.000648729 1.00339)
(-0.00268402 0.000640395 1.01065)
(-0.00293282 0.000605251 0.988166)
(0.00278867 6.24733e-05 0.988353)
(0.00249994 5.26392e-05 1.01034)
(0.000311742 4.89118e-05 1.00326)
(0.00070126 3.85825e-05 1.00321)
(2.49857e-05 2.64481e-05 1.00301)
(-0.000245523 1.21418e-05 1.003)
(-0.000919097 -3.6461e-06 1.00316)
(-0.000468503 -2.10126e-05 1.00317)
(-0.00270079 -2.63749e-05 1.01044)
(-0.00294438 -5.52617e-05 0.987912)
(0.002783 -0.000197705 0.988354)
(0.00249259 -0.000209742 1.01032)
(0.000304728 -0.000212841 1.00325)
(0.000689822 -0.000223101 1.00319)
(1.16655e-05 -0.000235225 1.00299)
(-0.000260207 -0.00024875 1.00297)
(-0.000934795 -0.000262638 1.00313)
(-0.000478051 -0.00027712 1.00314)
(-0.00271589 -0.000277837 1.01041)
(-0.00295837 -0.000302981 0.987849)
(0.00278031 -0.000855248 0.988538)
(0.00248687 -0.000873258 1.01049)
(0.000297616 -0.000874654 1.00343)
(0.000678882 -0.000884003 1.00337)
(-6.41804e-07 -0.000895302 1.00316)
(-0.000272918 -0.000907497 1.00314)
(-0.000947325 -0.000919353 1.00329)
(-0.000482618 -0.000930734 1.00329)
(-0.00272812 -0.000929921 1.01058)
(-0.00297356 -0.000943474 0.987985)
(0.00276672 -0.000411043 0.98859)
(0.0024767 -0.000420415 1.0105)
(0.000293287 -0.000423307 1.00346)
(0.000669188 -0.000427085 1.00339)
(-1.18029e-05 -0.000433709 1.00319)
(-0.000284345 -0.000440035 1.00316)
(-0.000958003 -0.000445078 1.00331)
(-0.000487568 -0.000451615 1.0033)
(-0.0027313 -0.000442152 1.0106)
(-0.00297372 -0.000450392 0.988001)
(0.00279033 -0.00261644 0.995765)
(0.00249112 -0.00264056 1.01776)
(0.000290945 -0.00262727 1.01067)
(0.000669201 -0.00263808 1.01062)
(-1.28715e-05 -0.00264498 1.01042)
(-0.00028512 -0.00265397 1.0104)
(-0.000959616 -0.00266389 1.01056)
(-0.000479424 -0.00266716 1.01055)
(-0.00274282 -0.00267798 1.0179)
(-0.00300164 -0.00267912 0.995252)
(0.00274651 -0.00286733 0.973513)
(0.00246473 -0.00290936 0.995365)
(0.000278928 -0.00288708 0.988356)
(0.000646948 -0.00290184 0.988266)
(-3.08208e-05 -0.00290666 0.988046)
(-0.000302206 -0.00291533 0.988002)
(-0.000968693 -0.00292704 0.988138)
(-0.000485383 -0.00292569 0.988133)
(-0.00274363 -0.00295255 0.995427)
(-0.0029819 -0.00293167 0.972791)
(0.00292862 0.00293124 0.967847)
(0.00254059 0.0029677 0.994482)
(0.000310489 0.00293494 0.986168)
(0.000795584 0.00294041 0.986069)
(1.32795e-05 0.00292997 0.98588)
(-0.000173104 0.00292238 0.985889)
(-0.000947415 0.00291713 0.986104)
(-0.000399589 0.00289111 0.98623)
(-0.0026688 0.00290852 0.994809)
(-0.00304735 0.00284057 0.967765)
(0.00296517 0.00254606 0.994516)
(0.00255147 0.00255604 1.02125)
(0.000307832 0.00253458 1.01283)
(0.000794855 0.0025309 1.01274)
(1.29675e-06 0.00251908 1.01252)
(-0.000191087 0.00250615 1.0125)
(-0.000981686 0.00249094 1.01269)
(-0.000432984 0.00245958 1.01272)
(-0.00272461 0.00245259 1.02137)
(-0.003111 0.00238641 0.994041)
(0.00293161 0.000310517 0.986189)
(0.00252927 0.000305579 1.01281)
(0.000306842 0.000305055 1.00447)
(0.000785739 0.000293041 1.00438)
(-7.82028e-06 0.000282426 1.00417)
(-0.000203747 0.000267209 1.00416)
(-0.000998316 0.00024657 1.00435)
(-0.000459651 0.000221547 1.00441)
(-0.00273992 0.000195768 1.01301)
(-0.00310042 0.000140768 0.985729)
(0.00293575 0.000789799 0.986087)
(0.00252481 0.000786069 1.01272)
(0.000295353 0.000778796 1.00437)
(0.000771149 0.000764943 1.00427)
(-2.56142e-05 0.000748893 1.00406)
(-0.000225649 0.000728721 1.00405)
(-0.00102595 0.000704369 1.00423)
(-0.000484344 0.00067355 1.00428)
(-0.0027829 0.000657948 1.0129)
(-0.00313622 0.0005909 0.985494)
(0.00292378 7.0371e-06 0.985895)
(0.00251295 -7.21927e-06 1.01249)
(0.000286906 -1.19986e-05 1.00416)
(0.000755849 -2.68423e-05 1.00406)
(-4.42151e-05 -4.40377e-05 1.00384)
(-0.00024834 -6.49967e-05 1.00382)
(-0.00105353 -8.88805e-05 1.004)
(-0.000508103 -0.000117436 1.00403)
(-0.00281547 -0.000126533 1.01266)
(-0.00315779 -0.000182958 0.985173)
(0.00291562 -0.000181403 0.985897)
(0.0025026 -0.00019843 1.01247)
(0.000276944 -0.000202629 1.00414)
(0.000739297 -0.00021765 1.00404)
(-6.37493e-05 -0.000235239 1.00382)
(-0.000270503 -0.000255462 1.00379)
(-0.00107835 -0.000276463 1.00396)
(-0.000523553 -0.000299447 1.00398)
(-0.00284242 -0.000298722 1.01262)
(-0.00318323 -0.00034389 0.985065)
(0.00291203 -0.000958243 0.986095)
(0.00249476 -0.000983956 1.01265)
(0.000266548 -0.000985747 1.00433)
(0.000723281 -0.00100022 1.00422)
(-8.19811e-05 -0.00101712 1.00399)
(-0.000289537 -0.00103582 1.00396)
(-0.00109729 -0.00105363 1.00412)
(-0.000529089 -0.00107118 1.00413)
(-0.00285968 -0.00106532 1.01281)
(-0.00320801 -0.00108829 0.985195)
(0.00289312 -0.000414971 0.986194)
(0.00248005 -0.000428949 1.01269)
(0.000259526 -0.000433174 1.00439)
(0.000707967 -0.000439388 1.00428)
(-9.93131e-05 -0.000449631 1.00405)
(-0.000307156 -0.000459444 1.00401)
(-0.00111367 -0.000466784 1.00416)
(-0.000533644 -0.000475648 1.00417)
(-0.00286184 -0.000456879 1.01285)
(-0.00321191 -0.000464214 0.985264)
(0.00292251 -0.00266983 0.994687)
(0.00249804 -0.00270177 1.0213)
(0.000256183 -0.00268595 1.01294)
(0.000708167 -0.0027021 1.01285)
(-0.000100834 -0.00271271 1.01263)
(-0.000307931 -0.0027267 1.0126)
(-0.00111467 -0.00274208 1.01277)
(-0.000518697 -0.00274784 1.01277)
(-0.00286887 -0.00275668 1.02154)
(-0.00324305 -0.00275689 0.993894)
(0.00286593 -0.00303593 0.967679)
(0.00246218 -0.00308958 0.99408)
(0.000237313 -0.00306269 0.985836)
(0.00067464 -0.00308381 0.985684)
(-0.000128677 -0.00309139 0.985433)
(-0.000335259 -0.00310499 0.985365)
(-0.0011317 -0.00312324 0.985487)
(-0.000527232 -0.00312431 0.985495)
(-0.00287233 -0.00315619 0.994186)
(-0.00322169 -0.00313411 0.966564)
(0.0030232 0.00302749 0.962026)
(0.00252915 0.00306968 0.993298)
(0.000290468 0.00303109 0.983756)
(0.000842855 0.00303799 0.983605)
(-4.78079e-05 0.00302506 0.983415)
(-0.000148183 0.0030163 0.983428)
(-0.00102815 0.00301011 0.983656)
(-0.000385494 0.00297385 0.983857)
(-0.00265243 0.00298122 0.993778)
(-0.00314077 0.00287605 0.962016)
(0.00306559 0.00253818 0.993356)
(0.00254161 0.00254898 1.02477)
(0.000288716 0.00252418 1.01508)
(0.000843373 0.00251966 1.01494)
(-6.15181e-05 0.00250526 1.01471)
(-0.000170132 0.00248928 1.01469)
(-0.0010756 0.00246874 1.01487)
(-0.000444612 0.00242133 1.01493)
(-0.00275655 0.00238842 1.02493)
(-0.00324136 0.00226462 0.992648)
(0.00302547 0.000291131 0.983792)
(0.00251541 0.000285056 1.01505)
(0.000287826 0.000284756 1.00547)
(0.000831574 0.000269067 1.00533)
(-7.32563e-05 0.000255382 1.00511)
(-0.000188116 0.000234666 1.0051)
(-0.0011019 0.000204903 1.0053)
(-0.000492634 0.000163645 1.0054)
(-0.00280839 0.000111847 1.01537)
(-0.00325734 4.52761e-06 0.983104)
(0.00302965 0.000834695 0.98364)
(0.00250895 0.000828912 1.01491)
(0.00027285 0.000819474 1.00532)
(0.000812345 0.000800959 1.00517)
(-9.73942e-05 0.000779338 1.00496)
(-0.000218786 0.00075134 1.00494)
(-0.0011444 0.000716252 1.00513)
(-0.000537607 0.000666202 1.00521)
(-0.00289156 0.00063169 1.01523)
(-0.00333169 0.000513763 0.982724)
(0.00301316 -5.67764e-05 0.983447)
(0.00249297 -7.67585e-05 1.01467)
(0.000261751 -8.27632e-05 1.0051)
(0.000791459 -0.000103593 1.00495)
(-0.000123134 -0.00012753 1.00473)
(-0.000251365 -0.000157688 1.0047)
(-0.00118711 -0.000193117 1.00488)
(-0.000579332 -0.000239501 1.00494)
(-0.00295584 -0.000259386 1.01497)
(-0.00338416 -0.000357619 0.982301)
(0.00300171 -0.000162168 0.983452)
(0.00247864 -0.000185688 1.01463)
(0.000247771 -0.000191558 1.00508)
(0.000767857 -0.000213143 1.00492)
(-0.000151461 -0.00023847 1.00469)
(-0.000284418 -0.000268445 1.00466)
(-0.00122611 -0.000300055 1.00482)
(-0.000604867 -0.00033669 1.00486)
(-0.00300495 -0.000331347 1.01492)
(-0.00343007 -0.000404747 0.982115)
(0.00299656 -0.00104926 0.983656)
(0.00246767 -0.00108463 1.01481)
(0.000232793 -0.00108737 1.00526)
(0.000744655 -0.00110919 1.0051)
(-0.000178346 -0.00113424 1.00486)
(-0.000312919 -0.00116271 1.00482)
(-0.001255 -0.00118991 1.00496)
(-0.000607736 -0.00121503 1.005)
(-0.00302534 -0.00119406 1.01509)
(-0.00345815 -0.00121643 0.982233)
(0.00297139 -0.000422585 0.983813)
(0.00244718 -0.000442942 1.01488)
(0.000221505 -0.000449043 1.00537)
(0.000721065 -0.000459281 1.0052)
(-0.00020492 -0.000475044 1.00495)
(-0.000340315 -0.000490598 1.0049)
(-0.00127837 -0.000501681 1.00503)
(-0.000605705 -0.000513885 1.00506)
(-0.00300921 -0.000470207 1.01517)
(-0.00344182 -0.000461753 0.982389)
(0.00300596 -0.00269711 0.993609)
(0.00246797 -0.00273833 1.02485)
(0.000216666 -0.00272094 1.01524)
(0.000720819 -0.00274429 1.01511)
(-0.00020789 -0.00276094 1.01487)
(-0.000341209 -0.00278283 1.01483)
(-0.00127998 -0.00280683 1.015)
(-0.000575276 -0.00281744 1.01502)
(-0.00299646 -0.00281711 1.02523)
(-0.00346516 -0.00281228 0.992419)
(0.00293529 -0.00316621 0.961803)
(0.00242071 -0.00323229 0.992728)
(0.00018827 -0.00320158 0.983289)
(0.000671846 -0.00323064 0.983062)
(-0.000250343 -0.00324282 0.982781)
(-0.000385132 -0.00326378 0.982679)
(-0.00130964 -0.00329222 0.982768)
(-0.000590636 -0.00329664 0.982783)
(-0.00300651 -0.00333674 0.992878)
(-0.00344295 -0.00331323 0.960101)
(0.0030859 0.00309295 0.956189)
(0.00250143 0.0031407 0.992078)
(0.000274298 0.00309722 0.981347)
(0.000876373 0.00310588 0.981139)
(-0.000113289 0.0030916 0.980955)
(-0.000122897 0.00308306 0.980971)
(-0.00109747 0.00307791 0.981208)
(-0.000368446 0.00303051 0.981502)
(-0.00260591 0.00301765 0.99268)
(-0.0032146 0.00285168 0.956696)
(0.00313404 0.00251584 0.99217)
(0.00251595 0.00252742 1.02825)
(0.000274703 0.00250034 1.01732)
(0.000879969 0.00249529 1.01714)
(-0.000126282 0.00247952 1.0169)
(-0.000145647 0.00246163 1.01688)
(-0.00115751 0.00243718 1.01706)
(-0.000464507 0.00237032 1.01714)
(-0.00279334 0.00229795 1.02841)
(-0.00340179 0.00206104 0.991249)
(0.00308779 0.000276257 0.981406)
(0.00248632 0.000268829 1.01728)
(0.000274038 0.0002689 1.0065)
(0.000865475 0.000249198 1.00631)
(-0.00014062 0.00023235 1.00609)
(-0.000169506 0.000205725 1.00609)
(-0.00119611 0.000165967 1.00629)
(-0.000542362 0.000103047 1.00645)
(-0.00290737 1.70669e-05 1.01774)
(-0.00344709 -0.000205076 0.980435)
(0.00309129 0.00086593 0.981199)
(0.00247719 0.000857193 1.01708)
(0.000255298 0.000845526 1.0063)
(0.000841121 0.000821445 1.0061)
(-0.00017158 0.000793487 1.00588)
(-0.000209597 0.000756555 1.00587)
(-0.00125692 0.000708605 1.00607)
(-0.00061749 0.000630821 1.00621)
(-0.00305443 0.000570885 1.01758)
(-0.00354389 0.000324577 0.979717)
(0.00306961 -0.000125135 0.981016)
(0.0024565 -0.000152365 1.01683)
(0.000240983 -0.000159803 1.00607)
(0.000813464 -0.000188371 1.00587)
(-0.000205874 -0.000220839 1.00565)
(-0.000254699 -0.000263083 1.00562)
(-0.001322 -0.000314931 1.0058)
(-0.000688674 -0.000390814 1.00591)
(-0.00317769 -0.000424797 1.01732)
(-0.00361643 -0.000638909 0.979073)
(0.0030539 -0.000144209 0.981025)
(0.00243699 -0.000176125 1.01678)
(0.000221637 -0.000184442 1.00604)
(0.000780473 -0.000214911 1.00583)