/*--------------------------------*- C++ -*----------------------------------*\
  =========                 |
  \\      /  F ield         | OpenFOAM: The Open Source CFD Toolbox
   \\    /   O peration     | Website:  https://openfoam.org
    \\  /    A nd           | Version:  6
     \\/     M anipulation  |
\*---------------------------------------------------------------------------*/
FoamFile
{
    version     2.0;
    format      ascii;
    class       volScalarField;
    location    "100";
    object      p;
}
// * * * * * * * * * * * * * * * * * * * * * * * * * * * * * * * * * * * * * //

dimensions      [0 2 -2 0 0 0 0];

internalField   nonuniform List<scalar> 
7000
(
0.0443489
0.0421313
0.0416306
0.0414322
0.0413591
0.0414177
0.0416023
0.0418947
0.042465
0.0447665
0.0421384
0.0399241
0.0394291
0.0392369
0.0391716
0.039239
0.039433
0.0397341
0.0403109
0.0426246
0.0416424
0.0394334
0.0389418
0.0387546
0.0386956
0.0387703
0.0389719
0.0392801
0.0398634
0.0421848
0.0414461
0.0392424
0.0387554
0.0385745
0.0385234
0.0386072
0.0388183
0.0391355
0.039727
0.0420597
0.0413739
0.0391761
0.0386944
0.0385207
0.0384788
0.0385733
0.0387957
0.0391235
0.0397246
0.0420706
0.0414318
0.0392402
0.0387639
0.0385976
0.0385652
0.0386706
0.0389046
0.0392434
0.0398544
0.042214
0.0416142
0.0394285
0.0389571
0.0387976
0.0387739
0.0388894
0.039134
0.039483
0.040103
0.042475
0.0419044
0.0397231
0.0392559
0.0391018
0.0390852
0.0392088
0.0394621
0.0398193
0.0404467
0.0428286
0.042475
0.0402962
0.0398322
0.0396823
0.039671
0.0398007
0.0400604
0.0404236
0.0410562
0.043446
0.0447768
0.0426038
0.0421422
0.0419972
0.0419922
0.042129
0.0423959
0.0427658
0.0434049
0.0457992
0.0413928
0.040006
0.0400458
0.0398511
0.039776
0.0398344
0.040022
0.0403128
0.040332
0.0418131
0.0400074
0.0386242
0.0386718
0.0384829
0.038416
0.0384841
0.0386821
0.0389835
0.0390078
0.0405009
0.0400565
0.0386807
0.038731
0.0385476
0.0384874
0.0385635
0.03877
0.0390796
0.0391121
0.0406117
0.0398656
0.0384947
0.03855
0.0383738
0.0383228
0.0384095
0.0386276
0.0389482
0.0389903
0.040504
0.0397933
0.0384285
0.0384894
0.0383215
0.0382811
0.0383802
0.0386116
0.0389453
0.0389986
0.040528
0.0398535
0.038495
0.0385617
0.0384022
0.0383726
0.0384843
0.0387295
0.0390766
0.0391414
0.0406866
0.0400407
0.0386882
0.0387603
0.0386085
0.0385888
0.0387121
0.0389698
0.0393291
0.0394043
0.0409637
0.0403308
0.0389838
0.0390602
0.0389145
0.0389029
0.0390357
0.0393035
0.0396727
0.0397566
0.0413263
0.0403576
0.0390109
0.0390914
0.0389502
0.0389444
0.0390838
0.0393584
0.0397346
0.039823
0.0414031
0.0418294
0.0404872
0.0405681
0.0404327
0.0404335
0.0405802
0.0408623
0.0412447
0.0413419
0.0429268
0.0389007
0.038111
0.0384723
0.0382946
0.0382762
0.0383357
0.0384692
0.0387486
0.038436
0.039331
0.0381129
0.0373325
0.0377045
0.0375331
0.0375258
0.0375979
0.0377449
0.0380398
0.0377338
0.0386409
0.0384879
0.0377178
0.0380917
0.037927
0.0379276
0.0380093
0.038167
0.038472
0.0381771
0.0390932
0.0383149
0.0375497
0.0379297
0.0377738
0.0377856
0.0378809
0.0380537
0.0383736
0.0380913
0.0390296
0.0383021
0.0375449
0.0379313
0.0377855
0.0378104
0.0379215
0.038112
0.0384497
0.038183
0.0391446
0.0383663
0.037617
0.0380101
0.0378744
0.0379128
0.0380401
0.0382486
0.0386046
0.0383537
0.0393393
0.0385018
0.0377594
0.0381588
0.0380325
0.0380831
0.0382251
0.0384499
0.0388221
0.0385852
0.0395922
0.03878
0.0380454
0.0384492
0.0383302
0.0383907
0.0385443
0.0387818
0.0391668
0.0389409
0.0399618
0.0384822
0.0377467
0.0381559
0.0380415
0.0381086
0.0382698
0.0385154
0.0389085
0.0386872
0.0397236
0.0393644
0.0386296
0.039038
0.0389319
0.0390067
0.0391771
0.0394322
0.0398319
0.039623
0.0406686
0.0375644
0.0370033
0.0373825
0.0371907
0.0372397
0.0372982
0.0373618
0.0376583
0.0373157
0.0379856
0.0370101
0.0364621
0.0368541
0.0366713
0.0367361
0.0368125
0.0368951
0.0372142
0.0368836
0.0375742
0.0374106
0.0368747
0.0372689
0.0370951
0.0371703
0.0372598
0.0373578
0.0376914
0.0373776
0.0380864
0.0372277
0.0366984
0.0371009
0.0369386
0.0370291
0.0371377
0.0372577
0.0376144
0.0373202
0.0380656
0.0372903
0.0367724
0.0371831
0.0370341
0.0371429
0.037274
0.0374203
0.0378046
0.0375358
0.0383206
0.0373619
0.0368545
0.0372739
0.0371386
0.0372659
0.0374201
0.0375932
0.0380057
0.0377626
0.0385883
0.037436
0.0369372
0.0373649
0.0372422
0.0373862
0.0375611
0.037758
0.0381952
0.0379739
0.038836
0.0377348
0.037246
0.037679
0.0375661
0.0377233
0.0379141
0.0381289
0.0385839
0.0383799
0.0392642
0.0374185
0.0369299
0.0373699
0.0372625
0.0374285
0.0376293
0.0378543
0.0383209
0.0381221
0.0390252
0.0380813
0.0375925
0.0380327
0.0379359
0.0381115
0.038324
0.038562
0.0390357
0.0388498
0.0397653
0.0365848
0.036129
0.036447
0.0362358
0.0363247
0.0363784
0.036391
0.0367049
0.0364023
0.0369643
0.0361445
0.0357055
0.0360395
0.035841
0.0359515
0.0360305
0.0360709
0.0364172
0.0361358
0.0367315
0.0364955
0.0360715
0.0364093
0.0362229
0.0363477
0.0364454
0.0365089
0.0368777
0.0366216
0.0372503
0.0363026
0.0358878
0.0362367
0.036066
0.0362129
0.0363385
0.0364353
0.0368407
0.0366181
0.0373088
0.0364205
0.0360206
0.0363805
0.0362287
0.0364017
0.0365608
0.0366982
0.037148
0.0369695
0.0377307
0.0365028
0.036117
0.0364889
0.0363563
0.036556
0.0367493
0.0369282
0.0374236
0.0372893
0.0381238
0.0365424
0.0361685
0.0365521
0.0364367
0.0366603
0.036884
0.0370993
0.0376339
0.0375366
0.0384337
0.0368673
0.0365062
0.0368972
0.0367955
0.0370371
0.0372833
0.0375247
0.038086
0.0380146
0.0389479
0.0366126
0.0362529
0.0366524
0.0365581
0.0368119
0.0370713
0.0373263
0.037902
0.0378377
0.0387974
0.0371783
0.0368186
0.0372195
0.0371387
0.0374049
0.037679
0.0379486
0.0385305
0.03848
0.0394442
0.0354838
0.0351303
0.0354126
0.0352007
0.0353049
0.0353475
0.0353203
0.0356211
0.0353224
0.0357604
0.0351584
0.0348279
0.0351299
0.0349346
0.035068
0.0351452
0.035157
0.0355044
0.0352378
0.0357303
0.0354897
0.0351774
0.0354848
0.0353057
0.0354592
0.0355629
0.0356077
0.0359898
0.0357613
0.036313
0.0353118
0.0350112
0.0353333
0.035176
0.0353609
0.0355052
0.0356004
0.0360409
0.0358704
0.0365308
0.0354685
0.0351878
0.0355254
0.0353947
0.0356167
0.0358106
0.0359693
0.0364828
0.036389
0.0371802
0.035564
0.0353021
0.0356561
0.0355522
0.0358126
0.0360574
0.0362809
0.0368698
0.0368553
0.0377829
0.0355906
0.0353445
0.0357142
0.0356341
0.0359291
0.0362185
0.0364976
0.0371505
0.037201
0.0382416
0.0359209
0.0356919
0.0360721
0.0360105
0.0363304
0.0366516
0.036969
0.0376622
0.0377528
0.0388533
0.0357013
0.0354756
0.035867
0.0358158
0.0361515
0.0364903
0.0368254
0.0375356
0.0376338
0.0387584
0.0361716
0.0359443
0.0363389
0.036305
0.0366558
0.037011
0.0373601
0.0380684
0.0381657
0.0392737
0.0342864
0.0340234
0.034279
0.0340752
0.0341769
0.0341981
0.0341275
0.034392
0.0340626
0.0343682
0.0340684
0.0338353
0.0341131
0.0339308
0.0340718
0.0341388
0.0341191
0.0344454
0.0341626
0.0345402
0.0343941
0.0341812
0.0344657
0.0343047
0.0344737
0.0345767
0.0346023
0.0349786
0.034753
0.0352282
0.034247
0.0340494
0.0343534
0.0342222
0.0344344
0.0345952
0.0346963
0.0351644
0.0350378
0.0357064
0.0344355
0.0342649
0.0345907
0.0344958
0.03476
0.034993
0.0351917
0.0357796
0.0357896
0.0367077
0.034546
0.0343998
0.034748
0.03469
0.0350085
0.0353163
0.0356156
0.0363288
0.0364835
0.0376674
0.0345708
0.0344442
0.0348125
0.0347875
0.0351549
0.0355278
0.0359119
0.0367288
0.0370009
0.0384019
0.0348932
0.0347887
0.0351711
0.0351706
0.0355722
0.0359891
0.0364275
0.0373033
0.0376397
0.0391378
0.0346965
0.0345995
0.0349969
0.0350098
0.0354307
0.0358693
0.0363292
0.0372218
0.0375544
0.039064
0.0350798
0.0349791
0.0353833
0.035417
0.0358533
0.0363076
0.0367749
0.0376407
0.0379376
0.039346
0.0330944
0.0328913
0.033107
0.0329044
0.0329841
0.0329684
0.0328423
0.0330492
0.0326804
0.0328301
0.032957
0.0327893
0.0330293
0.0328546
0.032984
0.0330249
0.03296
0.0332396
0.0329149
0.0331433
0.0332681
0.0331222
0.0333712
0.0332241
0.0333891
0.0334762
0.0334704
0.0338173
0.0335694
0.0339477
0.0331527
0.0330274
0.0333019
0.0331934
0.0334157
0.0335823
0.0336861
0.0341766
0.0340989
0.0348324
0.0333656
0.0332754
0.0335785
0.0335177
0.0338116
0.034081
0.0343314
0.0350186
0.0351938
0.03643
0.0334914
0.0334322
0.0337646
0.0337532
0.0341223
0.0344997
0.0349045
0.0358015
0.0362514
0.0380335
0.0335225
0.0334873
0.033846
0.0338792
0.0343152
0.0347858
0.0353197
0.0363875
0.0370598
0.0392749
0.0338365
0.0338275
0.0342039
0.0342693
0.0347513
0.0352816
0.0358911
0.0370464
0.0378215
0.04021
0.0336721
0.0336756
0.0340699
0.0341518
0.0346576
0.0352139
0.0358457
0.0370071
0.0377482
0.0400622
0.0339944
0.0339939
0.0343992
0.0345035
0.0350234
0.0355889
0.0362081
0.0372876
0.0378783
0.0398378
0.031909
0.0317392
0.0319039
0.0316913
0.0317256
0.0316507
0.0314456
0.0315745
0.0311203
0.0311357
0.031829
0.0316994
0.0318915
0.0317139
0.0318057
0.031795
0.0316559
0.0318456
0.03139
0.0313708
0.0321186
0.0320138
0.0322195
0.0320753
0.0322091
0.0322537
0.0321857
0.0324566
0.0320936
0.0322544
0.032032
0.0319544
0.0321921
0.0320958
0.0323033
0.032453
0.0325362
0.0330204
0.0329464
0.0337558
0.0322616
0.0322262
0.0324987
0.0324637
0.0327672
0.0330585
0.0333534
0.0341489
0.0345361
0.0363664
0.032402
0.0324048
0.0327144
0.0327438
0.0331484
0.0335913
0.0341168
0.0352557
0.0361611
0.0391238
0.0324465
0.0324795
0.0328238
0.0329112
0.0334044
0.0339778
0.0346966
0.0361129
0.0374321
0.0412845
0.0327538
0.0328162
0.033182
0.0333107
0.0338631
0.0345157
0.0353375
0.036876
0.0383652
0.0425248
0.0326268
0.0327057
0.0330903
0.0332383
0.0338202
0.0345008
0.0353378
0.0368533
0.0382185
0.042029
0.0329094
0.0329834
0.0333811
0.0335503
0.0341423
0.0348171
0.035599
0.0369232
0.0378934
0.040738
0.0306987
0.0305476
0.03066
0.0304294
0.0303975
0.0302375
0.0299175
0.0299359
0.0294303
0.0292396
0.030662
0.0305546
0.0306974
0.0305065
0.0305343
0.0304374
0.0301706
0.0301964
0.0295078
0.0289227
0.0309299
0.0308505
0.0310107
0.0308569
0.0309296
0.0308913
0.0306976
0.0307977
0.0301833
0.0297031
0.0308694
0.030823
0.0310203
0.0309231
0.0310855
0.0311773
0.0311768
0.0315667
0.0314346
0.0321594
0.0311077
0.031109
0.0313467
0.0313249
0.031609
0.031886
0.0321766
0.0330296
0.0337256
0.0365834
0.0312601
0.0313064
0.0315892
0.0316474
0.0320617
0.0325432
0.0331643
0.0345497
0.0362258
0.0414799
0.031321
0.0314053
0.0317315
0.0318616
0.0323898
0.0330481
0.0339478
0.0357651
0.0382377
0.045335
0.0316196
0.0317362
0.0320886
0.0322692
0.0328706
0.0336301
0.0346668
0.0366532
0.0394116
0.0471984
0.0315272
0.0316631
0.0320343
0.0322378
0.0328739
0.033662
0.0346996
0.0365996
0.0389984
0.0456376
0.0317788
0.0319092
0.0322943
0.0325166
0.0331571
0.0339151
0.034829
0.0363625
0.0378488
0.0417523
0.0294505
0.0293098
0.0293728
0.0291204
0.0290069
0.0287336
0.0282477
0.028068
0.0274711
0.0271752
0.029446
0.0293507
0.0294444
0.0292321
0.0291739
0.028949
0.0284766
0.028204
0.0270408
0.0253323
0.029693
0.0296269
0.0297389
0.0295639
0.0295499
0.029379
0.0289645
0.0287157
0.0274737
0.0255948
0.0296554
0.0296262
0.0297782
0.0296664
0.0297551
0.0297339
0.0295421
0.0296215
0.0289406
0.0289246
0.0298963
0.0299187
0.0301165
0.0300929
0.0303264
0.0305319
0.0307109
0.0313885
0.0318588
0.03548
0.0300567
0.0301301
0.0303801
0.0304514
0.0308439
0.0313096
0.0319321
0.0333444
0.0353323
0.0434862
0.0301333
0.0302518
0.0305527
0.0307093
0.0312421
0.0319356
0.0329383
0.0349566
0.0381942
0.0497561
0.0304203
0.0305741
0.0309056
0.0311205
0.0317395
0.0325575
0.0337387
0.0359726
0.0396176
0.0523263
0.0303559
0.0305328
0.0308843
0.0311257
0.0317827
0.0326275
0.033787
0.0358505
0.0387886
0.0486718
0.0305818
0.0307508
0.0311166
0.0313732
0.0320257
0.0328096
0.033759
0.0352553
0.0367262
0.0411799
0.0281758
0.0280443
0.0280664
0.0277992
0.0276095
0.0272171
0.0265362
0.0260979
0.0252325
0.0255056
0.0281925
0.0281055
0.0281552
0.0279239
0.0277781
0.0274039
0.0266592
0.0259976
0.0241603
0.0215467
0.0284169
0.0283574
0.0284228
0.0282249
0.0281168
0.0277786
0.0270408
0.0262828
0.0239933
0.0200926
0.0283967
0.0283752
0.028481
0.0283481
0.0283455
0.0281545
0.027618
0.0270793
0.0248496
0.0213939
0.0286338
0.0286659
0.028821
0.0287833
0.0289362
0.0289898
0.0288546
0.0288943
0.0274742
0.0268533
0.0287959
0.0288825
0.0290942
0.0291609
0.0294924
0.029844
0.0302349
0.0311055
0.0312033
0.0361861
0.0288829
0.0290193
0.0292858
0.0294474
0.0299407
0.0305613
0.0314226
0.0330031
0.034452
0.0439663
0.0291527
0.0293262
0.0296261
0.0298511
0.0304397
0.0312042
0.0322831
0.034101
0.0359084
0.0461147
0.0291114
0.0293107
0.0296322
0.0298862
0.0305146
0.0313068
0.0323566
0.0339639
0.03501
0.0411449
0.0293115
0.0295017
0.0298389
0.0301046
0.0307212
0.0314341
0.0322334
0.033235
0.0331165
0.0340847
0.0268782
0.0267621
0.0267586
0.0264969
0.0262646
0.0257908
0.0249178
0.0242004
0.0226745
0.0214096
0.0269059
0.0268311
0.0268501
0.0266163
0.026412
0.0259226
0.0248958
0.0238485
0.0213508
0.0168757
0.0271052
0.0270545
0.0270849
0.0268774
0.0266993
0.0262206
0.0251379
0.0238695
0.0207444
0.0142638
0.0270959
0.027082
0.0271506
0.0270039
0.0269209
0.0265634
0.0256156
0.0243731
0.0207476
0.0129613
0.0273222
0.0273616
0.0274799
0.027427
0.0274939
0.0273651
0.0267834
0.0259896
0.0225531
0.0158335
0.0274783
0.0275721
0.0277474
0.0278008
0.0280504
0.0282244
0.0281937
0.0282459
0.0259988
0.0246146
0.0275684
0.027713
0.0279431
0.028095
0.0285171
0.0289788
0.0294774
0.0303243
0.0294474
0.0337835
0.0278165
0.0279968
0.0282602
0.028476
0.0289964
0.0296117
0.0303709
0.0315162
0.031214
0.0372043
0.0277907
0.0279994
0.0282849
0.0285305
0.0290904
0.0297387
0.0304951
0.0314849
0.030712
0.0333183
0.0279675
0.0281628
0.028464
0.0287179
0.0292638
0.0298379
0.0303831
0.0308856
0.029437
0.0273521
0.0255637
0.0254783
0.0254748
0.025256
0.0250484
0.0246035
0.0236451
0.0227614
0.0208347
0.0178642
0.0255945
0.0255463
0.0255598
0.0253603
0.0251671
0.024694
0.0235455
0.0223163
0.0198159
0.0142036
0.0257667
0.0257381
0.0257586
0.0255776
0.0253992
0.0249235
0.0237035
0.0222232
0.0192802
0.0120146
0.0257605
0.0257652
0.0258194
0.0256899
0.0255887
0.0252016
0.0240669
0.0225116
0.0189088
0.00955617
0.0259679
0.0260221
0.0261219
0.0260765
0.0261063
0.0259108
0.0250865
0.0238883
0.020113
0.0104381
0.0261089
0.0262132
0.0263655
0.0264187
0.0266194
0.026703
0.0264055
0.0260654
0.0231863
0.0176353
0.0261936
0.0263452
0.0265479
0.0266959
0.0270662
0.0274319
0.0276884
0.0282266
0.0266971
0.0272823
0.0264125
0.026595
0.0268275
0.0270345
0.0274986
0.0280155
0.0285721
0.0295113
0.0288327
0.032615
0.0263956
0.0266049
0.0268565
0.0270908
0.0275919
0.0281403
0.0287251
0.0295844
0.0286428
0.0304161
0.0265433
0.0267358
0.0270025
0.0272418
0.0277296
0.0282135
0.0286374
0.0291155
0.0278028
0.0252491
0.0242299
0.0241937
0.0242183
0.024086
0.023983
0.0237262
0.0229133
0.0221215
0.0204309
0.0168258
0.0242567
0.0242533
0.0242897
0.0241704
0.0240743
0.0238041
0.022845
0.0217665
0.0200765
0.0153127
0.0243991
0.02441
0.0244491
0.0243412
0.0242517
0.0239791
0.0229872
0.0217143
0.0198587
0.0143355
0.0243872
0.0244255
0.0244916
0.0244232
0.0243923
0.0241823
0.0232714
0.0219571
0.0196575
0.0124491
0.0245667
0.024647
0.0247508
0.0247512
0.0248278
0.0247708
0.0241298
0.0231999
0.0208584
0.0130343
0.0246833
0.0248054
0.0249531
0.0250375
0.0252629
0.0254476
0.0252894
0.0252489
0.0238584
0.0193816
0.0247545
0.0249169
0.0251078
0.0252769
0.0256574
0.0260993
0.0264797
0.027376
0.0274353
0.0289034
0.0249403
0.0251257
0.0253403
0.0255588
0.0260216
0.0265942
0.0272772
0.0286223
0.0294633
0.03426
0.0249236
0.0251336
0.0253626
0.0256022
0.0260933
0.0266783
0.0273703
0.0286265
0.0288378
0.031693
0.0250436
0.0252291
0.0254695
0.0257076
0.0261829
0.0266969
0.0272374
0.0281379
0.0279424
0.0264756
0.0228757
0.0229032
0.0229781
0.0229713
0.0230417
0.0231215
0.0227358
0.0223586
0.0215131
0.0182215
0.0228929
0.0229483
0.0230302
0.0230325
0.0231075
0.0232028
0.0227749
0.0222092
0.0217996
0.0194434
0.0230024
0.023066
0.0231456
0.0231523
0.0232266
0.0233191
0.0229113
0.0222467
0.0218657
0.0199983
0.0229764
0.0230592
0.0231567
0.0231888
0.0233039
0.023436
0.0231198
0.0225185
0.0220056
0.0192605
0.0231201
0.0232342
0.0233581
0.02344
0.0236365
0.0238829
0.0238033
0.0236412
0.0234547
0.020469
0.0232046
0.0233488
0.0235049
0.0236505
0.023965
0.0244055
0.0247497
0.0254799
0.0265598
0.0272512
0.0232554
0.0234304
0.0236203
0.0238342
0.0242775
0.0249303
0.0257604
0.0274299
0.0303174
0.0371942
0.0234026
0.0235911
0.023797
0.0240457
0.0245498
0.025289
0.0263526
0.028416
0.0317707
0.0401276
0.0233817
0.0235883
0.0238013
0.0240602
0.024576
0.0252866
0.0262707
0.0281225
0.0299252
0.0342973
0.0234665
0.0236439
0.0238645
0.0241131
0.024607
0.0252293
0.0260321
0.0275072
0.0286846
0.0284125
0.0214896
0.0215839
0.0217163
0.0218516
0.022123
0.0226077
0.0228702
0.0232513
0.0239271
0.0222783
0.0214911
0.021608
0.021741
0.0218811
0.022153
0.0226694
0.0229948
0.0232674
0.0243703
0.0255858
0.0215637
0.0216811
0.0218051
0.021939
0.0221982
0.022695
0.0230589
0.0233012
0.0244156
0.0271496
0.0215155
0.0216419
0.0217722
0.0219143
0.0221925
0.022698
0.0231322
0.0234789
0.0246048
0.0268586
0.0216163
0.0217607
0.0219036
0.0220726
0.0224008
0.0229677
0.0235656
0.024293
0.0258474
0.0283344
0.0216614
0.0218222
0.021983
0.022191
0.0225977
0.0232902
0.02421
0.0256755
0.0283859
0.0345377
0.0216854
0.021866
0.0220495
0.022305
0.0228054
0.0236465
0.0249541
0.0272401
0.0319041
0.0433225
0.0217931
0.0219764
0.0221673
0.0224403
0.0229745
0.0238463
0.0252746
0.0278439
0.0329905
0.0437463
0.0217611
0.021958
0.0221492
0.02242
0.0229461
0.023747
0.0249781
0.0272304
0.0303156
0.0355658
0.0218156
0.0219752
0.0221692
0.0224196
0.0229189
0.023624
0.0246484
0.0266003
0.0292192
0.0303523
0.0200552
0.0202032
0.0203794
0.0206387
0.0210873
0.0219537
0.0229773
0.024405
0.0275135
0.0310365
0.0200371
0.0202014
0.0203692
0.0206245
0.0210602
0.02194
0.0230672
0.0243866
0.027258
0.034009
0.0200712
0.020227
0.0203772
0.0206106
0.0210112
0.0218303
0.0229483
0.0242261
0.0268455
0.0356213
0.0199964
0.0201499
0.0202929
0.0205134
0.0209022
0.0216749
0.0227726
0.0240401
0.026392
0.0340136
0.020051
0.0202079
0.0203477
0.0205679
0.0209631
0.0217093
0.0228085
0.0241857
0.0264443
0.0332588
0.0200526
0.0202111
0.0203526
0.0205818
0.0210034
0.0217656
0.0229785
0.0247155
0.0273337
0.0357834
0.0200452
0.0202122
0.0203637
0.0206159
0.0210881
0.0219094
0.0233353
0.0255859
0.0299263
0.0413974
0.0201092
0.0202689
0.0204192
0.0206709
0.021151
0.0219574
0.0233981
0.0258333
0.0311535
0.0416318
0.0200641
0.0202294
0.0203724
0.0206101
0.0210667
0.0217873
0.0229808
0.0251641
0.0289937
0.0356384
0.0200819
0.0202081
0.0203521
0.0205638
0.0209994
0.0216582
0.0227262
0.024854
0.028999
0.0336476
0.0185605
0.0187378
0.0189338
0.0192733
0.0198311
0.0209471
0.0226308
0.0249965
0.0304999
0.0464226
0.0185189
0.0187054
0.0188815
0.0192017
0.0197197
0.0207885
0.0225163
0.0246876
0.0289072
0.0461959
0.0185132
0.0186812
0.0188292
0.0191074
0.0195577
0.020507
0.0221366
0.0242353
0.0278253
0.0469252
0.0184084
0.0185621
0.0186883
0.0189286
0.0193267
0.0201552
0.0216299
0.0235191
0.0264234
0.0431811
0.0184139
0.018556
0.0186607
0.0188685
0.0192181
0.0199057
0.0211487
0.0227624
0.024831
0.0379637
0.0183679
0.0184963
0.0185837
0.0187644
0.019078
0.0196442
0.0206983
0.0221313
0.0234913
0.033574
0.0183243
0.0184494
0.0185318
0.0187066
0.019023
0.0195468
0.020567
0.0220128
0.0243669
0.0340921
0.0183451
0.018453
0.0185247
0.018682
0.0189867
0.0194725
0.0204531
0.0219504
0.0256061
0.0362759
0.0182807
0.0183901
0.0184483
0.0185832
0.0188568
0.0192783
0.020084
0.0215486
0.0250148
0.0370323
0.0182702
0.0183366
0.0183952
0.0185047
0.0187736
0.0192059
0.0200608
0.0218181
0.0265706
0.0402166
0.0170013
0.0171756
0.0173579
0.0177042
0.0182468
0.0193421
0.0213065
0.0241772
0.0286734
0.056181
0.0169359
0.0171114
0.0172612
0.0175688
0.0180363
0.0190017
0.020884
0.0234995
0.0261187
0.0530462
0.0168929
0.0170401
0.0171526
0.0174002
0.0177708
0.0185671
0.0202774
0.0228685
0.0246959
0.0514977
0.0167594
0.0168816
0.0169592
0.0171474
0.0174301
0.0180407
0.0194758
0.0217229
0.0227755
0.0466348
0.0167173
0.0168145
0.0168534
0.0169783
0.0171628
0.0175308
0.0185018
0.0200981
0.0198622
0.0376789
0.016624
0.0166932
0.0166955
0.016757
0.0168469
0.0169714
0.0174409
0.018207
0.0164914
0.0269895
0.0165428
0.0165981
0.0165796
0.0166054
0.0166511
0.0166429
0.0168191
0.016913
0.0151466
0.023134
0.016518
0.0165482
0.0165098
0.0165021
0.0165201
0.0164668
0.0165776
0.0165123
0.015633
0.0267198
0.0164337
0.0164573
0.0163969
0.0163576
0.0163362
0.016242
0.0162965
0.016522
0.0164572
0.0327594
0.0163891
0.016372
0.0163116
0.0162484
0.0162349
0.016201
0.0164721
0.017317
0.018718
0.0381327
0.0257066
0.0268684
0.0253887
0.023997
0.0233608
0.0234446
0.023905
0.0241044
0.0245688
0.0229449
0.023774
0.0251439
0.0244654
0.0237484
0.0231105
0.0228377
0.0232367
0.0239833
0.0252766
0.0253367
0.0234724
0.0244116
0.0247615
0.0252062
0.0248382
0.0242546
0.0243056
0.0250254
0.0265343
0.0266472
0.0268804
0.0278853
0.0284612
0.0287368
0.0275683
0.0261897
0.0257232
0.0261365
0.0273769
0.0274057
0.0344093
0.034397
0.0330543
0.0310563
0.0285249
0.0268831
0.0264206
0.0268103
0.0279953
0.0281601
0.0431606
0.040012
0.0338947
0.0294019
0.0266701
0.0258024
0.0261076
0.0270759
0.0287875
0.0292201
0.0490872
0.0439922
0.0342786
0.027742
0.02462
0.0238926
0.0249525
0.0269756
0.0293733
0.0298782
0.0519027
0.0473583
0.0372275
0.0288477
0.0240506
0.0227502
0.0242775
0.0269697
0.0297088
0.0304429
0.0496083
0.0453067
0.0364671
0.0282794
0.0235626
0.0226507
0.0244158
0.0269376
0.0293731
0.0300758
0.0412624
0.0401949
0.0342014
0.0276178
0.0241172
0.0239236
0.025649
0.0275021
0.0290349
0.0291082
0.02465
0.0230459
0.021118
0.0201799
0.0199776
0.0204168
0.0216005
0.0229585
0.0242232
0.0255224
0.0191638
0.0180602
0.0173344
0.017578
0.0177099
0.0178844
0.0187744
0.0205597
0.0236853
0.0260321
0.0153128
0.016215
0.0176406
0.0190385
0.0194217
0.0193436
0.0198767
0.0215023
0.0246039
0.0267272
0.0160508
0.0183806
0.0208022
0.0221988
0.0218815
0.0211044
0.0212029
0.0224343
0.025104
0.026803
0.022468
0.0246315
0.0258522
0.0247915
0.0229184
0.0219447
0.0219693
0.0230275
0.0255836
0.0272127
0.0328132
0.0307319
0.0279615
0.0249156
0.0224802
0.0214623
0.021513
0.022893
0.0261122
0.0284304
0.0402963
0.0336621
0.0280604
0.0238213
0.0208703
0.019605
0.0201611
0.0227041
0.0269995
0.0299546
0.0425307
0.0346141
0.0279631
0.0228406
0.0194353
0.0182655
0.0196319
0.0231978
0.0281194
0.0312122
0.0380024
0.0307781
0.0251963
0.020297
0.0176001
0.0174541
0.0196993
0.0237257
0.0283827
0.0312669
0.0325377
0.0289203
0.0241499
0.0197645
0.0177102
0.0185756
0.0216753
0.0253999
0.0286105
0.0307739
0.0204373
0.0180563
0.0167269
0.0166763
0.0172012
0.0178862
0.0189134
0.020454
0.0221539
0.0230002
0.0128987
0.0115961
0.0113995
0.0125268
0.0134567
0.0143603
0.0156334
0.0174651
0.0206489
0.0224188
0.0071919
0.00894566
0.011012
0.0132779
0.0144286
0.0149401
0.0160371
0.0179657
0.021257
0.0231342
0.00522673
0.0088648
0.0130262
0.0161159
0.0165259
0.0162941
0.0170936
0.0187558
0.0214817
0.0227506
0.00928488
0.0138712
0.0183739
0.0189247
0.0177233
0.0172828
0.0178058
0.0192246
0.0217156
0.0224983
0.0191859
0.0214791
0.0221776
0.0204195
0.0183619
0.0175701
0.0177729
0.0191729
0.0219989
0.0233246
0.0278552
0.0253545
0.0231271
0.0204246
0.0180219
0.0169587
0.0174319
0.0194679
0.0231122
0.0252333
0.0308151
0.0256571
0.0219829
0.0187599
0.0165252
0.0161052
0.0175606
0.0205302
0.0248717
0.0271824
0.0272385
0.0228692
0.0195974
0.0164651
0.0149172
0.0151952
0.0172843
0.0209835
0.0255115
0.0277632
0.0251568
0.0230029
0.020398
0.0173149
0.0155178
0.0158708
0.0182375
0.0220063
0.0259956
0.0281057
0.0167417
0.0151399
0.0144628
0.0148108
0.0158035
0.0168771
0.0175626
0.0181054
0.0188571
0.0179955
0.00937347
0.00843586
0.00838971
0.00992716
0.011665
0.0133209
0.0146149
0.0155989
0.0174756
0.0178133
0.00375022
0.00517669
0.00678908
0.0096812
0.011434
0.0124714
0.013775
0.0153559
0.0178991
0.0188063
-1.4307e-06
0.00337672
0.00770359
0.0118112
0.0125428
0.0126976
0.0138284
0.0155548
0.0179538
0.0183663
0.00256747
0.0060199
0.0121021
0.0141257
0.0133489
0.0131168
0.0139651
0.0156954
0.0180411
0.0177382
0.0109925
0.0141471
0.0164238
0.0157318
0.013954
0.0133457
0.0140596
0.0158332
0.018224
0.0179045
0.0201261
0.0198055
0.0183523
0.0161285
0.0141084
0.0134219
0.0144342
0.0164967
0.0191964
0.0195367
0.0242119
0.0207903
0.0175277
0.0149721
0.0133651
0.0134223
0.015194
0.0178611
0.0211111
0.0216655
0.0227531
0.0198458
0.0165527
0.0139347
0.0130802
0.0134445
0.015198
0.0181026
0.0215888
0.0222941
0.0227504
0.0213098
0.0187992
0.0154496
0.0140789
0.0141569
0.0155008
0.0181755
0.0215589
0.0226187
0.01591
0.0151976
0.0145891
0.0148158
0.0160387
0.017437
0.0179544
0.0175127
0.0169537
0.0149986
0.0102919
0.009579
0.0088553
0.00997698
0.0122167
0.0143831
0.0154415
0.0154705
0.0158966
0.0151344
0.00572999
0.00607531
0.00658281
0.00894339
0.0108041
0.0116671
0.0124627
0.0137176
0.0156633
0.0160095
0.00222829
0.00362646
0.00627581
0.00993078
0.0104868
0.010357
0.010996
0.0126144
0.0151704
0.0154648
0.00472741
0.00528995
0.00918508
0.0112337
0.0103807
0.00977115
0.0104579
0.0124131
0.0151353
0.0147678
0.012639
0.0130617
0.0128201
0.0120947
0.0104054
0.00958776
0.0105651
0.0128067
0.0154767
0.0144944
0.0220367
0.0193271
0.0151412
0.0123233
0.0104155
0.00975251
0.0112376
0.0137328
0.0163179
0.0156498
0.0253905
0.0200908
0.0150909
0.0120244
0.0104648
0.010576
0.0126788
0.015291
0.018106
0.0177541
0.0233674
0.0195004
0.0151645
0.0127916
0.012166
0.012374
0.0137528
0.0156865
0.01837
0.0183001
0.0236521
0.0216755
0.0177673
0.0143436
0.0135625
0.0135289
0.0141003
0.0154697
0.017923
0.0183492
0.0170687
0.0167298
0.0159478
0.0153906
0.0162617
0.0174405
0.0180136
0.0176655
0.0167381
0.0139783
0.0139422
0.0129097
0.0113429
0.0116941
0.013513
0.0143612
0.0142956
0.0145061
0.014983
0.013719
0.0120438
0.0108647
0.00947858
0.0104037
0.0115963
0.0110081
0.0102124
0.0111836
0.0135251
0.0139208
0.0102777
0.00907081
0.00826012
0.0103021
0.0104494
0.00945262
0.00884458
0.00987031
0.0126695
0.0131116
0.0129113
0.0106302
0.00979009
0.0105021
0.00928564
0.00805829
0.00815718
0.00995064
0.0129475
0.0126975
0.0204309
0.0172075
0.0121728
0.00997983
0.00810625
0.00721434
0.00835238
0.0108581
0.0138324
0.0125297
0.0287793
0.0222609
0.0139915
0.00996728
0.0079718
0.00736098
0.00921298
0.0121548
0.0149233
0.0133452
0.0300176
0.0217277
0.0144753
0.0104629
0.00853643
0.00848842
0.010971
0.013798
0.0165798
0.0153757
0.0251796
0.0202206
0.0147464
0.0122726
0.0112302
0.0111869
0.012638
0.014467
0.0167907
0.0159277
0.0250627
0.0224211
0.0172654
0.0140607
0.0136878
0.0134454
0.0135275
0.0145668
0.0163206
0.0159263
0.0196604
0.0189944
0.0180814
0.0166796
0.016544
0.0164704
0.0155833
0.0156317
0.0158213
0.0130285
0.0186955
0.0168029
0.0146995
0.0142224
0.0150894
0.0137144
0.0116269
0.0116704
0.0128893
0.0115593
0.0194707
0.017287
0.013931
0.0131702
0.0136051
0.011649
0.00925405
0.00930411
0.0112866
0.0112877
0.018667
0.0165213
0.0125081
0.0125493
0.0126193
0.0107365
0.00868716
0.00889048
0.0110265
0.0107013
0.020875
0.0174597
0.0130234
0.0120599
0.0105715
0.00853129
0.00787829
0.00936859
0.0119134
0.0111155
0.0271295
0.0221164
0.0143997
0.0103628
0.00805055
0.00692485
0.00802891
0.0107642
0.0135762
0.0117287
0.0326084
0.0249181
0.0152817
0.00991336
0.00754447
0.0070635
0.00900924
0.0123585
0.0151745
0.0126152
0.0313434
0.0230542
0.0154996
0.0109795
0.00855343
0.00852519
0.0107842
0.0139229
0.0166998
0.0145673
0.0252373
0.0211423
0.0150439
0.0125069
0.0112377
0.0110555
0.0121148
0.0144201
0.0168328
0.0151889
0.0262156
0.0232058
0.0176587
0.0143706
0.0143346
0.0135432
0.0132819
0.0147766
0.0163723
0.0152763
0.0273746
0.0251815
0.0236984
0.0213502
0.02034
0.0188035
0.0154103
0.0141269
0.0149828
0.0133449
0.0269067
0.0236349
0.0209452
0.0195451
0.0197205
0.0163158
0.0122567
0.0111044
0.0124985
0.0111302
0.0289051
0.0249587
0.0208088
0.0188196
0.0186405
0.0156059
0.0114428
0.010081
0.011323
0.0101639
0.0263361
0.0239359
0.0194065
0.0178377
0.0176378
0.0152618
0.0114364
0.0101365
0.0115813
0.010094
0.0256098
0.02342
0.0190716
0.0169717
0.0151479
0.0123881
0.0104902
0.0111898
0.0132819
0.0117186
0.0284948
0.0250998
0.0198817
0.0149675
0.0117677
0.0105875
0.0112122
0.0135336
0.0157849
0.013422
0.0311505
0.025438
0.0198634
0.0138495
0.0110038
0.0110441
0.0126556
0.0157786
0.0182016
0.0149433
0.0288414
0.0236443
0.0192802
0.0148627
0.0121471
0.0125279
0.014248
0.0172498
0.0199216
0.0172585
0.0250999
0.0232057
0.0180081
0.015748
0.0141582
0.0138192
0.0141781
0.0169756
0.0200581
0.0182976
0.029595
0.0261317
0.0205065
0.0167134
0.0168193
0.015327
0.0143626
0.0161919
0.0190273
0.0185992
0.0485158
0.0398373
0.0355363
0.0334538
0.0309376
0.0259133
0.017801
0.0120077
0.0151629
0.025003
0.0455808
0.0369782
0.0327555
0.0314452
0.0296417
0.0231123
0.0147317
0.0101268
0.0127212
0.016125
0.0471978
0.0368105
0.0325886
0.0311347
0.0292554
0.0239589
0.0158308
0.010594
0.0121529
0.0141501
0.0406464
0.0337332
0.0309591
0.0297546
0.0277447
0.0234206
0.0162086
0.0105541
0.0122256
0.0151686
0.032927
0.030679
0.0302739
0.0287969
0.0248116
0.0191207
0.01331
0.00968958
0.0134188
0.0192536
0.0293356
0.0291057
0.0305275
0.0265414
0.0200642
0.015431
0.0120649
0.010511
0.0155631
0.0230849
0.0277182
0.0271831
0.0293152
0.0234647
0.0171415
0.0145262
0.0130742
0.0127946
0.018553
0.026103
0.0280504
0.0268693
0.0276928
0.0223384
0.0167563
0.0151175
0.0139935
0.0140912
0.0212826
0.0307418
0.032498
0.0295644
0.026895
0.0224224
0.0178569
0.0152142
0.0126467
0.0129535
0.021893
0.0347813
0.0424164
0.034712
0.0289161
0.0237719
0.0210205
0.017219
0.0123343
0.0117105
0.0216383
0.0398673
0.087717
0.0644377
0.0518091
0.0480537
0.0446867
0.0380345
0.0245804
0.01035
0.030271
0.105888
0.0853602
0.0637108
0.0520372
0.0487358
0.0452725
0.0383502
0.0254547
0.0137934
0.0302987
0.0858892
0.0822593
0.0620728
0.0511928
0.0481957
0.045261
0.0393896
0.0278864
0.016866
0.0321905
0.0796978
0.0727949
0.0555417
0.04865
0.0469255
0.0445383
0.0394149
0.0281815
0.0162793
0.0324019
0.0873945
0.0534017
0.0460816
0.0456761
0.0456484
0.0435309
0.0384346
0.0262359
0.0130575
0.032646
0.101358
0.0384422
0.040289
0.0430745
0.0429594
0.0404644
0.0354423
0.0232915
0.0104524