/*--------------------------------*- C++ -*----------------------------------*\
  =========                 |
  \\      /  F ield         | OpenFOAM: The Open Source CFD Toolbox
   \\    /   O peration     | Website:  https://openfoam.org
    \\  /    A nd           | Version:  6
     \\/     M anipulation  |
\*---------------------------------------------------------------------------*/
FoamFile
{
    version     2.0;
    format      ascii;
    class       volScalarField;
    location    "0.97";
    object      T;
}
// * * * * * * * * * * * * * * * * * * * * * * * * * * * * * * * * * * * * * //

dimensions      [0 0 0 1 0 0 0];

internalField   nonuniform List<scalar> 
7000
(
106.751
106.75
106.749
106.746
106.744
106.741
106.737
106.735
106.733
106.732
106.751
106.75
106.749
106.746
106.744
106.74
106.737
106.735
106.733
106.732
106.751
106.75
106.749
106.746
106.744
106.74
106.737
106.735
106.733
106.732
106.751
106.75
106.749
106.746
106.744
106.74
106.737
106.735
106.733
106.732
106.751
106.75
106.749
106.746
106.744
106.74
106.737
106.735
106.733
106.732
106.751
106.75
106.749
106.746
106.744
106.74
106.737
106.735
106.733
106.732
106.751
106.75
106.749
106.746
106.744
106.74
106.737
106.735
106.733
106.732
106.751
106.75
106.749
106.746
106.744
106.74
106.737
106.735
106.733
106.732
106.751
106.75
106.749
106.746
106.744
106.74
106.737
106.735
106.733
106.732
106.751
106.75
106.749
106.746
106.744
106.74
106.737
106.735
106.733
106.732
100.272
100.269
100.264
100.258
100.249
100.24
100.231
100.223
100.216
100.213
100.272
100.269
100.264
100.258
100.249
100.24
100.231
100.223
100.216
100.213
100.272
100.269
100.264
100.258
100.249
100.24
100.231
100.223
100.216
100.213
100.272
100.269
100.264
100.258
100.249
100.24
100.231
100.223
100.216
100.213
100.272
100.269
100.264
100.258
100.249
100.24
100.231
100.223
100.216
100.213
100.272
100.269
100.264
100.258
100.249
100.24
100.231
100.223
100.216
100.213
100.272
100.269
100.264
100.258
100.249
100.24
100.231
100.223
100.216
100.213
100.272
100.269
100.264
100.258
100.249
100.24
100.231
100.223
100.216
100.213
100.272
100.269
100.264
100.258
100.249
100.24
100.231
100.223
100.216
100.213
100.272
100.269
100.264
100.258
100.249
100.24
100.231
100.223
100.216
100.213
93.8481
93.844
93.8359
93.8244
93.8103
93.7947
93.7789
93.7648
93.754
93.7481
93.8481
93.8439
93.8359
93.8244
93.8103
93.7947
93.7789
93.7647
93.754
93.7481
93.8481
93.8439
93.8359
93.8244
93.8103
93.7946
93.7789
93.7647
93.7539
93.7481
93.8481
93.8439
93.8359
93.8244
93.8103
93.7946
93.7789
93.7647
93.7539
93.7481
93.8481
93.8439
93.8359
93.8244
93.8103
93.7946
93.7789
93.7647
93.7539
93.7481
93.8481
93.8439
93.8359
93.8244
93.8103
93.7946
93.7789
93.7647
93.7539
93.7481
93.8481
93.8439
93.8359
93.8244
93.8103
93.7946
93.7789
93.7647
93.7539
93.7481
93.8481
93.8439
93.8359
93.8244
93.8103
93.7946
93.7789
93.7647
93.7539
93.7481
93.8481
93.8439
93.8359
93.8244
93.8103
93.7946
93.7789
93.7647
93.7539
93.7481
93.8481
93.8439
93.8359
93.8244
93.8103
93.7947
93.7789
93.7647
93.754
93.7481
87.5167
87.511
87.4997
87.4836
87.4636
87.4412
87.4182
87.3972
87.3809
87.3719
87.5167
87.511
87.4997
87.4836
87.4636
87.4412
87.4182
87.3971
87.3809
87.3719
87.5167
87.5109
87.4997
87.4836
87.4636
87.4411
87.4182
87.3971
87.3809
87.3719
87.5167
87.5109
87.4997
87.4836
87.4636
87.4411
87.4181
87.3971
87.3808
87.3719
87.5167
87.5109
87.4997
87.4836
87.4636
87.4411
87.4181
87.3971
87.3808
87.3719
87.5167
87.5109
87.4997
87.4836
87.4636
87.4411
87.4181
87.3971
87.3808
87.3719
87.5167
87.5109
87.4997
87.4836
87.4636
87.4411
87.4181
87.3971
87.3808
87.3719
87.5167
87.5109
87.4997
87.4836
87.4636
87.4411
87.4181
87.3971
87.3808
87.3719
87.5167
87.5109
87.4997
87.4836
87.4636
87.4411
87.4182
87.3971
87.3809
87.3719
87.5167
87.511
87.4997
87.4836
87.4636
87.4412
87.4182
87.3971
87.3809
87.3719
81.313
81.3058
81.2916
81.2711
81.2452
81.2156
81.1845
81.1553
81.132
81.1189
81.313
81.3058
81.2916
81.2711
81.2452
81.2155
81.1845
81.1552
81.132
81.1189
81.313
81.3058
81.2916
81.2711
81.2452
81.2155
81.1844
81.1552
81.1319
81.1189
81.313
81.3058
81.2916
81.2711
81.2452
81.2155
81.1844
81.1552
81.1319
81.1189
81.313
81.3057
81.2916
81.2711
81.2452
81.2155
81.1844
81.1552
81.1319
81.1189
81.313
81.3057
81.2916
81.2711
81.2452
81.2155
81.1844
81.1552
81.1319
81.1189
81.313
81.3057
81.2916
81.2711
81.2452
81.2155
81.1844
81.1552
81.1319
81.1189
81.313
81.3058
81.2916
81.2711
81.2452
81.2155
81.1844
81.1552
81.1319
81.1189
81.313
81.3058
81.2916
81.2711
81.2452
81.2155
81.1844
81.1552
81.132
81.1189
81.313
81.3058
81.2916
81.2711
81.2452
81.2155
81.1845
81.1552
81.132
81.1189
75.271
75.2626
75.2461
75.2218
75.1905
75.1535
75.1134
75.074
75.0412
75.022
75.2709
75.2626
75.246
75.2218
75.1904
75.1535
75.1134
75.074
75.0412
75.022
75.2709
75.2625
75.246
75.2217
75.1904
75.1535
75.1133
75.074
75.0411
75.0219
75.2709
75.2625
75.246
75.2217
75.1904
75.1535
75.1133
75.0739
75.0411
75.0219
75.2709
75.2625
75.246
75.2217
75.1904
75.1535
75.1133
75.0739
75.0411
75.0219
75.2709
75.2625
75.246
75.2217
75.1904
75.1535
75.1133
75.0739
75.0411
75.0219
75.2709
75.2625
75.246
75.2217
75.1904
75.1535
75.1133
75.0739
75.0411
75.0219
75.2709
75.2625
75.246
75.2217
75.1904
75.1535
75.1133
75.0739
75.0411
75.0219
75.2709
75.2625
75.246
75.2217
75.1904
75.1535
75.1134
75.074
75.0411
75.022
75.2709
75.2626
75.246
75.2218
75.1905
75.1535
75.1134
75.074
75.0412
75.022
69.4224
69.4135
69.3958
69.3692
69.3339
69.2905
69.2406
69.1884
69.1414
69.1119
69.4223
69.4135
69.3957
69.3692
69.3339
69.2904
69.2406
69.1883
69.1414
69.1119
69.4223
69.4134
69.3957
69.3691
69.3338
69.2904
69.2406
69.1883
69.1414
69.1118
69.4223
69.4134
69.3957
69.3691
69.3338
69.2904
69.2406
69.1883
69.1413
69.1118
69.4223
69.4134
69.3957
69.3691
69.3338
69.2904
69.2405
69.1883
69.1413
69.1118
69.4223
69.4134
69.3957
69.3691
69.3338
69.2904
69.2405
69.1883
69.1413
69.1118
69.4223
69.4134
69.3957
69.3691
69.3338
69.2904
69.2405
69.1883
69.1413
69.1118
69.4223
69.4134
69.3957
69.3691
69.3338
69.2904
69.2406
69.1883
69.1413
69.1118
69.4223
69.4134
69.3957
69.3691
69.3338
69.2904
69.2406
69.1883
69.1414
69.1119
69.4223
69.4135
69.3957
69.3692
69.3339
69.2905
69.2406
69.1883
69.1414
69.1119
63.7965
63.7881
63.7712
63.7451
63.709
63.6617
63.6029
63.5344
63.465
63.4152
63.7964
63.7881
63.7712
63.7451
63.7089
63.6617
63.6028
63.5344
63.465
63.4152
63.7964
63.7881
63.7711
63.7451
63.7089
63.6616
63.6028
63.5343
63.4649
63.4152
63.7964
63.788
63.7711
63.745
63.7089
63.6616
63.6028
63.5343
63.4649
63.4151
63.7964
63.788
63.7711
63.745
63.7089
63.6616
63.6027
63.5343
63.4649
63.4151
63.7964
63.788
63.7711
63.745
63.7089
63.6616
63.6027
63.5343
63.4649
63.4151
63.7964
63.788
63.7711
63.745
63.7089
63.6616
63.6028
63.5343
63.4649
63.4151
63.7964
63.788
63.7711
63.745
63.7089
63.6616
63.6028
63.5343
63.4649
63.4151
63.7964
63.7881
63.7711
63.7451
63.7089
63.6617
63.6028
63.5344
63.4649
63.4152
63.7964
63.7881
63.7712
63.7451
63.709
63.6617
63.6028
63.5344
63.465
63.4152
58.4189
58.4126
58.3996
58.3787
58.3477
58.3028
58.2393
58.1527
58.0459
57.9494
58.4188
58.4126
58.3996
58.3787
58.3476
58.3028
58.2393
58.1527
58.0459
57.9493
58.4188
58.4125
58.3996
58.3787
58.3476
58.3028
58.2393
58.1526
58.0459
57.9493
58.4188
58.4125
58.3996
58.3786
58.3476
58.3027
58.2392
58.1526
58.0458
57.9493
58.4188
58.4125
58.3995
58.3786
58.3475
58.3027
58.2392
58.1526
58.0458
57.9492
58.4188
58.4125
58.3995
58.3786
58.3475
58.3027
58.2392
58.1526
58.0458
57.9492
58.4188
58.4125
58.3995
58.3786
58.3476
58.3027
58.2392
58.1526
58.0458
57.9493
58.4188
58.4125
58.3996
58.3786
58.3476
58.3027
58.2392
58.1526
58.0458
57.9493
58.4188
58.4126
58.3996
58.3787
58.3476
58.3028
58.2393
58.1526
58.0459
57.9493
58.4188
58.4126
58.3996
58.3787
58.3476
58.3028
58.2393
58.1527
58.0459
57.9493
53.3109
53.3089
53.3042
53.2953
53.2791
53.2491
53.1942
53.0958
52.9305
52.7072
53.3109
53.3088
53.3041
53.2953
53.279
53.2491
53.1942
53.0957
52.9304
52.7071
53.3108
53.3088
53.3041
53.2952
53.279
53.249
53.1941
53.0957
52.9304
52.7071
53.3108
53.3088
53.3041
53.2952
53.279
53.249
53.1941
53.0957
52.9304
52.7071
53.3108
53.3087
53.3041
53.2952
53.2789
53.249
53.1941
53.0957
52.9303
52.7071
53.3108
53.3087
53.3041
53.2952
53.2789
53.249
53.1941
53.0957
52.9303
52.7071
53.3108
53.3087
53.3041
53.2952
53.2789
53.249
53.1941
53.0957
52.9303
52.7071
53.3108
53.3088
53.3041
53.2952
53.279
53.249
53.1941
53.0957
52.9304
52.7071
53.3108
53.3088
53.3041
53.2953
53.279
53.2491
53.1941
53.0957
52.9304
52.7071
53.3109
53.3088
53.3041
53.2953
53.279
53.2491
53.1942
53.0958
52.9305
52.7072
48.4887
48.4933
48.5022
48.5143
48.5267
48.5324
48.5161
48.4426
48.2244
47.6066
48.4887
48.4933
48.5022
48.5143
48.5266
48.5324
48.516
48.4426
48.2244
47.6066
48.4887
48.4933
48.5022
48.5142
48.5266
48.5323
48.516
48.4425
48.2243
47.6065
48.4886
48.4932
48.5021
48.5142
48.5266
48.5323
48.516
48.4425
48.2243
47.6065
48.4886
48.4932
48.5021
48.5142
48.5266
48.5323
48.516
48.4425
48.2243
47.6065
48.4886
48.4932
48.5021
48.5142
48.5265
48.5323
48.5159
48.4425
48.2243
47.6065
48.4886
48.4932
48.5021
48.5142
48.5266
48.5323
48.516
48.4425
48.2243
47.6065
48.4886
48.4932
48.5021
48.5142
48.5266
48.5323
48.516
48.4425
48.2243
47.6065
48.4887
48.4933
48.5022
48.5143
48.5266
48.5323
48.516
48.4425
48.2243
47.6065
48.4887
48.4933
48.5022
48.5143
48.5267
48.5324
48.5161
48.4426
48.2244
47.6066
43.9627
43.9764
44.0043
44.0468
44.1036
44.1718
44.2434
44.3001
44.3067
44.215
43.9626
43.9764
44.0043
44.0468
44.1035
44.1717
44.2434
44.3001
44.3066
44.2149
43.9626
43.9763
44.0042
44.0467
44.1035
44.1717
44.2433
44.3
44.3065
44.2149
43.9626
43.9763
44.0042
44.0467
44.1034
44.1717
44.2433
44.3
44.3065
44.2149
43.9626
43.9763
44.0042
44.0467
44.1034
44.1716
44.2433
44.3
44.3065
44.2148
43.9626
43.9763
44.0042
44.0467
44.1034
44.1716
44.2433
44.3
44.3065
44.2148
43.9626
43.9763
44.0042
44.0467
44.1034
44.1716
44.2433
44.3
44.3065
44.2148
43.9626
43.9763
44.0042
44.0467
44.1035
44.1717
44.2433
44.3
44.3065
44.2149
43.9626
43.9763
44.0042
44.0468
44.1035
44.1717
44.2433
44.3001
44.3066
44.2149
43.9626
43.9764
44.0043
44.0468
44.1035
44.1718
44.2434
44.3001
44.3066
44.215
39.737
39.7619
39.8132
39.8939
40.0078
40.1595
40.3537
40.5965
40.9014
41.3153
39.737
39.7619
39.8132
39.8938
40.0077
40.1594
40.3537
40.5964
40.9014
41.3152
39.737
39.7618
39.8131
39.8938
40.0077
40.1594
40.3536
40.5964
40.9013
41.3151
39.7369
39.7618
39.8131
39.8937
40.0077
40.1594
40.3536
40.5963
40.9013
41.3151
39.7369
39.7618
39.8131
39.8937
40.0076
40.1594
40.3536
40.5963
40.9013
41.3151
39.7369
39.7618
39.8131
39.8937
40.0076
40.1593
40.3536
40.5963
40.9013
41.3151
39.7369
39.7618
39.8131
39.8937
40.0077
40.1594
40.3536
40.5963
40.9013
41.3151
39.7369
39.7618
39.8131
39.8938
40.0077
40.1594
40.3536
40.5963
40.9013
41.3151
39.737
39.7618
39.8131
39.8938
40.0077
40.1594
40.3537
40.5964
40.9014
41.3152
39.737
39.7619
39.8132
39.8938
40.0078
40.1595
40.3537
40.5964
40.9014
41.3152
35.8105
35.8476
35.9246
36.0474
36.2249
36.4694
36.798
37.2347
37.8181
38.6166
35.8105
35.8475
35.9245
36.0473
36.2248
36.4694
36.7979
37.2346
37.8181
38.6165
35.8104
35.8475
35.9245
36.0473
36.2248
36.4693
36.7979
37.2346
37.818
38.6164
35.8104
35.8474
35.9245
36.0473
36.2247
36.4693
36.7978
37.2346
37.818
38.6164
35.8104
35.8474
35.9244
36.0472
36.2247
36.4693
36.7978
37.2345
37.818
38.6164
35.8104
35.8474
35.9244
36.0472
36.2247
36.4693
36.7978
37.2345
37.818
38.6164
35.8104
35.8474
35.9245
36.0473
36.2247
36.4693
36.7978
37.2346
37.818
38.6164
35.8104
35.8475
35.9245
36.0473
36.2248
36.4693
36.7979
37.2346
37.818
38.6164
35.8104
35.8475
35.9245
36.0473
36.2248
36.4694
36.7979
37.2346
37.8181
38.6165
35.8105
35.8475
35.9246
36.0474
36.2249
36.4694
36.798
37.2347
37.8181
38.6165
32.1771
32.2261
32.3286
32.493
32.7331
33.0683
33.5253
34.1399
34.96
36.0502
32.177
32.2261
32.3285
32.4929
32.733
33.0683
33.5253
34.1398
34.9599
36.0501
32.177
32.2261
32.3285
32.4929
32.733
33.0682
33.5252
34.1398
34.9599
36.0501
32.177
32.226
32.3284
32.4929
32.733
33.0682
33.5252
34.1397
34.9598
36.05
32.177
32.226
32.3284
32.4929
32.733
33.0682
33.5252
34.1397
34.9598
36.05
32.1769
32.226
32.3284
32.4929
32.7329
33.0682
33.5252
34.1397
34.9598
36.05
32.177
32.226
32.3284
32.4929
32.733
33.0682
33.5252
34.1397
34.9598
36.05
32.177
32.226
32.3285
32.4929
32.733
33.0682
33.5252
34.1398
34.9599
36.0501
32.177
32.2261
32.3285
32.4929
32.733
33.0683
33.5253
34.1398
34.9599
36.0501
32.177
32.2261
32.3285
32.493
32.7331
33.0683
33.5253
34.1399
34.96
36.0502
28.8273
28.887
29.0117
29.2127
29.5076
29.922
30.4903
31.2571
32.2758
33.6035
28.8273
28.8869
29.0116
29.2126
29.5076
29.9219
30.4903
31.257
32.2757
33.6034
28.8272
28.8869
29.0116
29.2126
29.5075
29.9219
30.4902
31.257
32.2756
33.6033
28.8272
28.8868
29.0116
29.2126
29.5075
29.9219
30.4902
31.257
32.2756
33.6033
28.8272
28.8868
29.0116
29.2125
29.5075
29.9219
30.4902
31.2569
32.2756
33.6033
28.8272
28.8868
29.0116
29.2125
29.5075
29.9219
30.4902
31.2569
32.2756
33.6033
28.8272
28.8868
29.0116
29.2126
29.5075
29.9219
30.4902
31.257
32.2756
33.6033
28.8272
28.8869
29.0116
29.2126
29.5075
29.9219
30.4902
31.257
32.2756
33.6033
28.8272
28.8869
29.0116
29.2126
29.5076
29.9219
30.4903
31.257
32.2757
33.6034
28.8273
28.8869
29.0117
29.2127
29.5076
29.922
30.4903
31.2571
32.2757
33.6034
25.7498
25.8175
25.959
26.1874
26.5234
26.9974
27.6512
28.5392
29.7254
31.2701
25.7498
25.8174
25.959
26.1873
26.5233
26.9973
27.6511
28.5391
29.7253
31.2701
25.7497
25.8174
25.9589
26.1873
26.5233
26.9973
27.6511
28.539
29.7253
31.27
25.7497
25.8173
25.9589
26.1873
26.5233
26.9973
27.651
28.539
29.7253
31.27
25.7497
25.8173
25.9589
26.1873
26.5233
26.9973
27.651
28.539
29.7252
31.27
25.7497
25.8173
25.9589
26.1873
26.5233
26.9973
27.651
28.539
29.7252
31.27
25.7497
25.8173
25.9589
26.1873
26.5233
26.9973
27.651
28.539
29.7253
31.27
25.7497
25.8174
25.9589
26.1873
26.5233
26.9973
27.6511
28.539
29.7253
31.27
25.7497
25.8174
25.9589
26.1873
26.5233
26.9973
27.6511
28.5391
29.7253
31.2701
25.7498
25.8174
25.959
26.1874
26.5234
26.9974
27.6512
28.5391
29.7254
31.2701
22.9327
23.0049
23.1558
23.3991
23.7573
24.2638
24.9669
25.9341
27.254
29.0215
22.9327
23.0048
23.1557
23.3991
23.7572
24.2637
24.9668
25.934
27.2539
29.0214
22.9326
23.0048
23.1557
23.399
23.7572
24.2637
24.9668
25.934
27.2539
29.0214
22.9326
23.0048
23.1557
23.399
23.7572
24.2637
24.9668
25.934
27.2538
29.0213
22.9326
23.0048
23.1556
23.399
23.7572
24.2637
24.9667
25.9339
27.2538
29.0213
22.9326
23.0048
23.1556
23.399
23.7572
24.2637
24.9667
25.9339
27.2538
29.0213
22.9326
23.0048
23.1557
23.399
23.7572
24.2637
24.9668
25.934
27.2538
29.0213
22.9326
23.0048
23.1557
23.399
23.7572
24.2637
24.9668
25.934
27.2539
29.0214
22.9327
23.0048
23.1557
23.3991
23.7572
24.2637
24.9668
25.934
27.2539
29.0214
22.9327
23.0049
23.1558
23.3991
23.7573
24.2638
24.9669
25.9341
27.254
29.0215
20.3649
20.4376
20.5893
20.8332
21.1909
21.6957
22.3981
23.3774
24.762
26.7545
20.3648
20.4376
20.5893
20.8332
21.1909
21.6956
22.398
23.3773
24.762
26.7544
20.3648
20.4375
20.5893
20.8332
21.1909
21.6956
22.398
23.3773
24.7619
26.7544
20.3648
20.4375
20.5892
20.8331
21.1908
21.6956
22.398
23.3773
24.7619
26.7544
20.3647
20.4375
20.5892
20.8331
21.1908
21.6955
22.3979
23.3772
24.7619
26.7543
20.3647
20.4375
20.5892
20.8331
21.1908
21.6955
22.3979
23.3772
24.7619
26.7543
20.3648
20.4375
20.5892
20.8331
21.1908
21.6956
22.398
23.3773
24.7619
26.7544
20.3648
20.4375
20.5893
20.8332
21.1909
21.6956
22.398
23.3773
24.7619
26.7544
20.3648
20.4375
20.5893
20.8332
21.1909
21.6956
22.398
23.3773
24.762
26.7544
20.3648
20.4376
20.5893
20.8332
21.1909
21.6957
22.3981
23.3774
24.762
26.7545
18.0367
18.1062
18.2505
18.4806
18.8146
19.2799
19.9185
20.8015
22.0736
24.1192
18.0367
18.1061
18.2504
18.4806
18.8146
19.2798
19.9184
20.8015
22.0735
24.1191
18.0366
18.1061
18.2504
18.4806
18.8146
19.2798
19.9184
20.8014
22.0735
24.1191
18.0366
18.1061
18.2504
18.4805
18.8145
19.2798
19.9184
20.8014
22.0734
24.1191
18.0366
18.1061
18.2504
18.4805
18.8145
19.2797
19.9183
20.8014
22.0734
24.119
18.0366
18.1061
18.2504
18.4805
18.8145
19.2798
19.9184
20.8014
22.0734
24.119
18.0366
18.1061
18.2504
18.4805
18.8145
19.2798
19.9184
20.8014
22.0734
24.1191
18.0366
18.1061
18.2504
18.4806
18.8146
19.2798
19.9184
20.8014
22.0735
24.1191
18.0366
18.1061
18.2504
18.4806
18.8146
19.2798
19.9184
20.8015
22.0735
24.1191
18.0367
18.1062
18.2505
18.4806
18.8146
19.2799
19.9185
20.8015
22.0736
24.1192
45.7011
45.8988
47.6233
50.6943
55.1125
61.0023
68.6204
78.4213
91.2325
108.718
45.701
45.8987
47.6232
50.6942
55.1124
61.0022
68.6202
78.4212
91.2324
108.718
45.701
45.8986
47.6231
50.6941
55.1123
61.0022
68.6202
78.4211
91.2323
108.718
45.7009
45.8986
47.6231
50.6941
55.1123
61.0021
68.6201
78.421
91.2322
108.718
45.7009
45.8986
47.623
50.694
55.1122
61.0021
68.6201
78.421
91.2322
108.718
45.7009
45.8986
47.623
50.694
55.1122
61.0021
68.6201
78.421
91.2322
108.718
45.7009
45.8986
47.623
50.694
55.1123
61.0021
68.6201
78.421
91.2322
108.718
45.7009
45.8986
47.6231
50.6941
55.1123
61.0021
68.6201
78.4211
91.2323
108.718
45.701
45.8987
47.6231
50.6941
55.1123
61.0022
68.6202
78.4211
91.2323
108.718
45.701
45.8987
47.6232
50.6942
55.1124
61.0022
68.6203
78.4212
91.2324
108.718
44.0794
44.902
46.8489
49.9572
54.2853
59.9491
67.1388
76.1341
87.297
100.92
44.0793
44.9019
46.8488
49.9571
54.2852
59.9489
67.1387
76.1339
87.2969
100.92
44.0793
44.9018
46.8488
49.957
54.2851
59.9489
67.1386
76.1339
87.2968
100.92
44.0792
44.9018
46.8487
49.957
54.285
59.9488
67.1386
76.1338
87.2968
100.92
44.0792
44.9018
46.8487
49.9569
54.285
59.9488
67.1385
76.1338
87.2967
100.92
44.0792
44.9018
46.8487
49.9569
54.285
59.9488
67.1385
76.1338
87.2967
100.92
44.0792
44.9018
46.8487
49.957
54.285
59.9488
67.1385
76.1338
87.2967
100.92
44.0792
44.9018
46.8487
49.957
54.285
59.9488
67.1386
76.1338
87.2968
100.92
44.0793
44.9019
46.8488
49.957
54.2851
59.9489
67.1386
76.1339
87.2969
100.92
44.0793
44.9019
46.8489
49.9571
54.2852
59.949
67.1387
76.134
87.297
100.92
41.9908
43.3147
45.4871
48.611
52.7667
58.0447
64.5532
72.4028
81.642
92.0752
41.9907
43.3146
45.487
48.6109
52.7666
58.0446
64.5531
72.4027
81.6418
92.0751
41.9906
43.3146
45.4869
48.6108
52.7666
58.0445
64.553
72.4026
81.6418
92.075
41.9906
43.3145
45.4869
48.6108
52.7665
58.0445
64.5529
72.4026
81.6417
92.075
41.9906
43.3145
45.4868
48.6107
52.7665
58.0444
64.5529
72.4025
81.6417
92.0749
41.9906
43.3145
45.4868
48.6107
52.7665
58.0444
64.5529
72.4025
81.6417
92.0749
41.9906
43.3145
45.4869
48.6107
52.7665
58.0444
64.5529
72.4025
81.6417
92.0749
41.9906
43.3146
45.4869
48.6108
52.7665
58.0445
64.553
72.4026
81.6417
92.075
41.9907
43.3146
45.4869
48.6108
52.7666
58.0446
64.5531
72.4027
81.6418
92.0751
41.9907
43.3147
45.487
48.6109
52.7667
58.0446
64.5531
72.4028
81.6419
92.0752
39.7536
41.4171
43.7492
46.844
50.7702
55.5841
61.3275
68.006
75.5354
83.6449
39.7535
41.417
43.7491
46.8439
50.7701
55.584
61.3274
68.0059
75.5352
83.6448
39.7534
41.417
43.749
46.8438
50.7701
55.5839
61.3274
68.0058
75.5352
83.6447
39.7534
41.4169
43.749
46.8438
50.77
55.5839
61.3273
68.0057
75.5351
83.6446
39.7534
41.4169
43.7489
46.8438
50.77
55.5839
61.3273
68.0057
75.5351
83.6446
39.7534
41.4169
43.7489
46.8437
50.77
55.5839
61.3273
68.0057
75.5351
83.6446
39.7534
41.4169
43.749
46.8438
50.77
55.5839
61.3273
68.0057
75.5351
83.6446
39.7534
41.417
43.749
46.8438
50.77
55.5839
61.3273
68.0058
75.5351
83.6447
39.7535
41.417
43.7491
46.8439
50.7701
55.584
61.3274
68.0058
75.5352
83.6448
39.7535
41.4171
43.7491
46.844
50.7702
55.5841
61.3275
68.0059
75.5353
83.6449
37.4948
39.3918
41.8249
44.8565
48.5294
52.8672
57.8668
63.4815
69.5915
75.9683
37.4947
39.3917
41.8248
44.8564
48.5293
52.8671
57.8667
63.4814
69.5914
75.9681
37.4947
39.3917
41.8248
44.8563
48.5293
52.8671
57.8667
63.4813
69.5913
75.9681
37.4946
39.3916
41.8247
44.8563
48.5292
52.867
57.8666
63.4812
69.5913
75.968
37.4946
39.3916
41.8247
44.8563
48.5292
52.867
57.8666
63.4812
69.5912
75.968
37.4946
39.3916
41.8247
44.8563
48.5292
52.867
57.8666
63.4812
69.5912
75.968
37.4946
39.3916
41.8247
44.8563
48.5292
52.867
57.8666
63.4812
69.5913
75.968
37.4947
39.3917
41.8248
44.8563
48.5293
52.8671
57.8667
63.4813
69.5913
75.9681
37.4947
39.3917
41.8248
44.8564
48.5293
52.8671
57.8667
63.4814
69.5914
75.9681
37.4948
39.3918
41.8249
44.8565
48.5294
52.8672
57.8668
63.4815
69.5915
75.9683
35.2906
37.3718
39.8783
42.8374
46.2656
50.16
54.4892
59.183
64.1225
69.1367
35.2905
37.3717
39.8782
42.8373
46.2655
50.1599
54.4891
59.1829
64.1223
69.1366
35.2904
37.3716
39.8781
42.8373
46.2654
50.1598
54.489
59.1828
64.1223
69.1365
35.2904
37.3716
39.8781
42.8372
46.2654
50.1597
54.489
59.1828
64.1222
69.1365
35.2904
37.3716
39.8781
42.8372
46.2653
50.1597
54.4889
59.1828
64.1222
69.1365
35.2904
37.3716
39.8781
42.8372
46.2653
50.1597
54.4889
59.1828
64.1222
69.1365
35.2904
37.3716
39.8781
42.8372
46.2654
50.1597
54.489
59.1828
64.1222
69.1365
35.2904
37.3716
39.8781
42.8373
46.2654
50.1598
54.489
59.1828
64.1223
69.1365
35.2905
37.3717
39.8782
42.8373
46.2655
50.1598
54.4891
59.1829
64.1223
69.1366
35.2906
37.3718
39.8783
42.8374
46.2656
50.1599
54.4892
59.183
64.1225
69.1367
33.1978
35.4662
38.0533
40.9571
44.1751
47.6867
51.4422
55.3575
59.3169
63.1921
33.1977
35.4661
38.0532
40.957
44.175
47.6866
51.4421
55.3574
59.3168
63.192
33.1977
35.4661
38.0531
40.9569
44.1749
47.6865
51.4421
55.3573
59.3167
63.1919
33.1976
35.466
38.0531
40.9569
44.1749
47.6865
51.442
55.3573
59.3167
63.1918
33.1976
35.466
38.0531
40.9569
44.1749
47.6865
51.442
55.3573
59.3167
63.1918
33.1976
35.466
38.0531
40.9569
44.1749
47.6865
51.442
55.3573
59.3167
63.1918
33.1976
35.466
38.0531
40.9569
44.1749
47.6865
51.442
55.3573
59.3167
63.1918
33.1977
35.4661
38.0531
40.9569
44.1749
47.6865
51.4421
55.3573
59.3167
63.1919
33.1977
35.4661
38.0532
40.957
44.175
47.6866
51.4421
55.3574
59.3168
63.192
33.1978
35.4662
38.0533
40.9571
44.1751
47.6867
51.4422
55.3575
59.3169
63.1921
31.2655
33.7782
36.4827
39.3676
42.4278
45.6355
48.9277
52.2027
55.3296
58.184
31.2655
33.7781
36.4826
39.3676
42.4277
45.6354
48.9276
52.2026
55.3295
58.1839
31.2654
33.7781
36.4826
39.3675
42.4277
45.6353
48.9275
52.2025
55.3295
58.1838
31.2654
33.778
36.4825
39.3674
42.4276
45.6353
48.9275
52.2025
55.3294
58.1838
31.2653
33.778
36.4825
39.3674
42.4276
45.6353
48.9274
52.2025
55.3294
58.1837
31.2653
33.778
36.4825
39.3674
42.4276
45.6353
48.9274
52.2025
55.3294
58.1837
31.2654
33.778
36.4825
39.3675
42.4276
45.6353
48.9275
52.2025
55.3294
58.1838
31.2654
33.7781
36.4826
39.3675
42.4277
45.6354
48.9275
52.2025
55.3295
58.1838
31.2655
33.7781
36.4826
39.3676
42.4277
45.6354
48.9276
52.2026
55.3295
58.1839
31.2655
33.7782
36.4827
39.3676
42.4278
45.6355
48.9277
52.2027
55.3297
58.184
29.5587
32.4295
35.2992
38.2049
41.1671
44.163
47.1191
49.9069
52.3439
54.2217
29.5586
32.4294
35.2991
38.2048
41.167
44.1629
47.119
49.9068
52.3438
54.2216
29.5586
32.4294
35.2991
38.2048
41.1669
44.1628
47.1189
49.9067
52.3437
54.2215
29.5585
32.4293
35.299
38.2047
41.1669
44.1628
47.1189
49.9067
52.3436
54.2215
29.5585
32.4293
35.299
38.2047
41.1669
44.1627
47.1189
49.9067
52.3436
54.2215
29.5585
32.4293
35.299
38.2047
41.1669
44.1627
47.1189
49.9067
52.3436
54.2215
29.5586
32.4293
35.299
38.2047
41.1669
44.1628
47.1189
49.9067
52.3437
54.2215
29.5586
32.4294
35.2991
38.2048
41.1669
44.1628
47.1189
49.9067
52.3437
54.2216
29.5586
32.4294
35.2991
38.2049
41.167
44.1629
47.119
49.9068
52.3438
54.2216
29.5587
32.4295
35.2992
38.2049
41.1671
44.163
47.1191
49.9069
52.3439
54.2218
28.27
31.6073
34.6434
37.585
40.5043
43.3909
46.165
48.6693
50.6414
51.6319
28.27
31.6073
34.6434
37.585
40.5042
43.3909
46.1649
48.6693
50.6413
51.6318
28.2699
31.6072
34.6433
37.5849
40.5041
43.3908
46.1648
48.6692
50.6413
51.6317
28.2699
31.6072
34.6433
37.5849
40.5041
43.3908
46.1648
48.6691
50.6412
51.6317
28.2699
31.6072
34.6433
37.5849
40.5041
43.3908
46.1648
48.6691
50.6412
51.6316
28.2699
31.6072
34.6433
37.5849
40.5041
43.3908
46.1648
48.6691
50.6412
51.6316
28.2699
31.6072
34.6433
37.5849
40.5041
43.3908
46.1648
48.6692
50.6412
51.6317
28.2699
31.6072
34.6433
37.5849
40.5042
43.3908
46.1648
48.6692
50.6413
51.6317
28.27
31.6073
34.6434
37.585
40.5042
43.3909
46.1649
48.6693
50.6414
51.6318
28.2701
31.6074
34.6435
37.5851
40.5043
43.391
46.165
48.6694
50.6415
51.6319
134.747
147.244
154.99
160.47
164.563
167.661
169.973
171.623
172.687
173.208
134.747
147.244
154.99
160.47
164.563
167.661
169.973
171.623
172.687
173.208
134.747
147.244
154.99
160.47
164.563
167.661
169.973
171.623
172.687
173.208
134.747
147.244
154.99
160.47
164.563
167.661
169.973
171.623
172.686
173.208
134.747
147.244
154.99
160.47
164.563
167.661
169.973
171.623
172.686
173.208
134.747
147.244
154.99
160.47
164.563
167.661
169.973
171.623
172.686
173.208
134.747
147.244
154.99
160.47
164.563
167.661
169.973
171.623
172.686
173.208
134.747
147.244
154.99
160.47
164.563
167.661
169.973
171.623
172.687
173.208
134.747
147.244
154.99
160.47
164.563
167.661
169.973
171.623
172.687
173.208
134.747
147.244
154.99
160.47
164.563
167.661
169.973
171.623
172.687
173.208
116.344
127.615
135.643
141.518
145.916
149.227
151.683
153.427
154.548
155.097
116.343
127.614
135.643
141.518
145.916
149.226
151.683
153.427
154.548
155.097
116.343
127.614
135.643
141.518
145.916
149.226
151.683
153.427
154.548
155.097
116.343
127.614
135.643
141.518
145.916
149.226
151.683
153.427
154.548
155.096
116.343
127.614
135.643
141.518
145.916
149.226
151.682
153.427
154.548
155.096
116.343
127.614
135.643
141.518
145.916
149.226
151.682
153.427
154.548
155.096
116.343
127.614
135.643
141.518
145.916
149.226
151.683
153.427
154.548
155.096
116.343
127.614
135.643
141.518
145.916
149.226
151.683
153.427
154.548
155.097
116.343
127.614
135.643
141.518
145.916
149.226
151.683
153.427
154.548
155.097
116.344
127.614
135.643
141.518
145.916
149.227
151.683
153.427
154.548
155.097
102.851
111.991
119.218
124.82
129.137
132.432
134.894
136.648
137.777
138.329
102.85
111.991
119.218
124.82
129.136
132.432
134.894
136.648
137.777
138.329
102.85
111.991
119.218
124.82
129.136
132.432
134.894
136.648
137.776
138.329
102.85
111.991
119.218
124.82
129.136
132.432
134.893
136.648
137.776
138.329
102.85
111.991
119.218
124.82
129.136
132.432
134.893
136.648
137.776
138.329
102.85
111.991
119.218
124.82
129.136
132.432
134.893
136.648
137.776
138.329
102.85
111.991
119.218
124.82
129.136
132.432
134.893
136.648
137.776
138.329
102.85
111.991
119.218
124.82
129.136
132.432
134.894
136.648
137.776
138.329
102.85
111.991
119.218
124.82
129.136
132.432
134.894
136.648
137.777
138.329
102.85
111.991
119.218
124.82
129.137
132.432
134.894
136.648
137.777
138.33
91.7597
99.0571
105.203
110.2
114.175
117.274
119.619
121.304
122.394
122.929
91.7596
99.057
105.203
110.2
114.175
117.274
119.619
121.304
122.394
122.929
91.7595
99.0569
105.203
110.199
114.175
117.274
119.619
121.304
122.394
122.929
91.7594
99.0569
105.203
110.199
114.175
117.274
119.619
121.304
122.394
122.929
91.7594
99.0568
105.203
110.199
114.175
117.274
119.619
121.304
122.394
122.929
91.7594
99.0568
105.203
110.199
114.175
117.274
119.619
121.304
122.394
122.929
91.7594
99.0569
105.203
110.199
114.175
117.274
119.619
121.304
122.394
122.929
91.7595
99.0569
105.203
110.199
114.175
117.274
119.619
121.304
122.394
122.929
91.7596
99.057
105.203
110.2
114.175
117.274
119.619
121.304
122.394
122.929
91.7597
99.0571
105.203
110.2
114.175
117.274
119.619
121.304
122.394
122.929
82.2581
88.0575
93.1284
97.3998
100.897
103.682
105.822
107.377
108.389
108.887
82.258
88.0574
93.1282
97.3996
100.897
103.682
105.822
107.376
108.388
108.887
82.2579
88.0573
93.1282
97.3996
100.897
103.682
105.822
107.376
108.388
108.887
82.2579
88.0573
93.1281
97.3995
100.897
103.682
105.822
107.376
108.388
108.887
82.2578
88.0572
93.1281
97.3995
100.897
103.682
105.822
107.376
108.388
108.887
82.2578
88.0572
93.1281
97.3995
100.897
103.682
105.822
107.376
108.388
108.887
82.2579
88.0573
93.1281
97.3995
100.897
103.682
105.822
107.376
108.388
108.887
82.2579
88.0573
93.1282
97.3996
100.897
103.682
105.822
107.376
108.388
108.887
82.258
88.0574
93.1282
97.3997
100.897
103.682
105.822
107.377
108.389
108.887
82.2581
88.0575
93.1284
97.3998
100.897
103.682
105.822
107.377
108.389
108.888
74.0191
78.57
82.6466
86.1759
89.1391
91.5488
93.431
94.8139
95.7216
96.1711
74.019
78.5699
82.6465
86.1758
89.139
91.5487
93.4309
94.8138
95.7215
96.171
74.0189
78.5698
82.6464
86.1757
89.1389
91.5486
93.4308
94.8137
95.7214
96.1709
74.0189
78.5698
82.6463
86.1756
89.1388
91.5485
93.4308
94.8137
95.7214
96.1709
74.0189
78.5698
82.6463
86.1756
89.1388
91.5485
93.4308
94.8137
95.7214
96.1709
74.0189
78.5698
82.6463
86.1756
89.1388
91.5485
93.4308
94.8137
95.7214
96.1709
74.0189
78.5698
82.6463
86.1756
89.1388
91.5486
93.4308
94.8137
95.7214
96.1709
74.0189
78.5698
82.6464
86.1757
89.1389
91.5486
93.4309
94.8138
95.7215
96.171
74.019
78.5699
82.6465
86.1758
89.139
91.5487
93.431
94.8139
95.7216
96.1711
74.0191
78.57
82.6466
86.1759
89.1391
91.5488
93.4311
94.814
95.7217
96.1712
66.8804
70.3371
73.5019
76.316
78.7397
80.7537
82.3542
83.5452
84.3338
84.7263
66.8803
70.337
73.5017
76.3159
78.7396
80.7536
82.3541
83.5451
84.3337
84.7262
66.8802
70.3369
73.5017
76.3158
78.7395
80.7535
82.354
83.545
84.3336
84.7262
66.8801
70.3368
73.5016
76.3158
78.7394
80.7535
82.3539
83.5449
84.3336
84.7261
66.8801
70.3368
73.5016
76.3157
78.7394
80.7535
82.3539
83.5449
84.3335
84.7261
66.8801
70.3368
73.5016
76.3157
78.7394
80.7535
82.3539
83.5449
84.3336
84.7261
66.8801
70.3368
73.5016
76.3158
78.7394
80.7535
82.3539
83.545
84.3336
84.7262
66.8802
70.3369
73.5017
76.3158
78.7395
80.7536
82.354
83.545
84.3337
84.7262
66.8803
70.337
73.5018
76.3159
78.7396
80.7537
82.3541
83.5451
84.3337
84.7263
66.8804
70.3371
73.5019
76.316
78.7397
80.7538
82.3542
83.5452
84.3339
84.7265
60.7357
63.169
65.4896
67.636
69.5456
71.1734
72.4922
73.4875
74.1529
74.486
60.7356
63.1689
65.4895
67.6359
69.5455
71.1733
72.4921
73.4874