/*--------------------------------*- C++ -*----------------------------------*\
  =========                 |
  \\      /  F ield         | OpenFOAM: The Open Source CFD Toolbox
   \\    /   O peration     | Website:  https://openfoam.org
    \\  /    A nd           | Version:  6
     \\/     M anipulation  |
\*---------------------------------------------------------------------------*/
FoamFile
{
    version     2.0;
    format      ascii;
    class       volScalarField;
    location    "0.03";
    object      T;
}
// * * * * * * * * * * * * * * * * * * * * * * * * * * * * * * * * * * * * * //

dimensions      [0 0 0 1 0 0 0];

internalField   nonuniform List<scalar> 
7000
(
91.643
91.6425
91.6423
91.6422
91.6421
91.6421
91.6422
91.6423
91.6424
91.6425
91.6425
91.642
91.6418
91.6417
91.6417
91.6417
91.6417
91.6418
91.6419
91.6422
91.6423
91.6418
91.6416
91.6415
91.6414
91.6414
91.6415
91.6416
91.6418
91.642
91.6422
91.6417
91.6415
91.6414
91.6413
91.6413
91.6414
91.6415
91.6417
91.6419
91.6421
91.6417
91.6414
91.6413
91.6413
91.6413
91.6413
91.6414
91.6416
91.6419
91.6421
91.6417
91.6414
91.6413
91.6413
91.6413
91.6413
91.6415
91.6416
91.6419
91.6422
91.6417
91.6415
91.6414
91.6413
91.6413
91.6414
91.6415
91.6417
91.642
91.6423
91.6418
91.6416
91.6415
91.6414
91.6415
91.6415
91.6416
91.6418
91.6421
91.6424
91.6419
91.6418
91.6417
91.6416
91.6416
91.6417
91.6418
91.642
91.6423
91.6425
91.6422
91.642
91.6419
91.6419
91.6419
91.642
91.6421
91.6423
91.6426
58.1644
58.1634
58.1629
58.1627
58.1626
58.1626
58.1627
58.1629
58.1633
58.1638
58.1634
58.1625
58.162
58.1617
58.1616
58.1617
58.1618
58.162
58.1624
58.1632
58.1629
58.162
58.1615
58.1612
58.1611
58.1612
58.1613
58.1615
58.162
58.1628
58.1627
58.1617
58.1612
58.161
58.1609
58.1609
58.161
58.1613
58.1618
58.1626
58.1626
58.1616
58.1611
58.1609
58.1608
58.1608
58.161
58.1612
58.1618
58.1626
58.1626
58.1617
58.1612
58.1609
58.1608
58.1609
58.161
58.1613
58.1618
58.1626
58.1627
58.1618
58.1613
58.161
58.161
58.161
58.1611
58.1614
58.1619
58.1627
58.1629
58.162
58.1615
58.1613
58.1612
58.1613
58.1614
58.1617
58.1622
58.163
58.1633
58.1624
58.162
58.1618
58.1618
58.1618
58.1619
58.1622
58.1627
58.1635
58.1638
58.1632
58.1628
58.1626
58.1626
58.1626
58.1627
58.163
58.1635
58.1644
32.661
32.66
32.6595
32.6592
32.6591
32.6592
32.6593
32.6596
32.6601
32.6608
32.66
32.659
32.6585
32.6583
32.6582
32.6582
32.6583
32.6586
32.6592
32.6602
32.6595
32.6585
32.658
32.6577
32.6576
32.6577
32.6578
32.6581
32.6588
32.6598
32.6592
32.6583
32.6577
32.6575
32.6574
32.6574
32.6576
32.6579
32.6586
32.6597
32.6591
32.6582
32.6576
32.6574
32.6573
32.6573
32.6575
32.6578
32.6585
32.6596
32.6592
32.6582
32.6577
32.6574
32.6573
32.6574
32.6575
32.6579
32.6585
32.6597
32.6593
32.6583
32.6578
32.6576
32.6575
32.6575
32.6577
32.658
32.6587
32.6598
32.6596
32.6586
32.6581
32.6579
32.6578
32.6579
32.658
32.6584
32.659
32.6602
32.6601
32.6592
32.6588
32.6586
32.6585
32.6585
32.6587
32.659
32.6597
32.6608
32.6608
32.6602
32.6598
32.6597
32.6596
32.6597
32.6598
32.6602
32.6608
32.662
16.2465
16.2458
16.2454
16.2452
16.2451
16.2451
16.2453
16.2455
16.246
16.2467
16.2458
16.2451
16.2447
16.2445
16.2444
16.2444
16.2445
16.2448
16.2454
16.2463
16.2454
16.2447
16.2443
16.2441
16.244
16.244
16.2442
16.2445
16.2451
16.2461
16.2452
16.2445
16.2441
16.2439
16.2438
16.2438
16.244
16.2443
16.2449
16.2459
16.2451
16.2444
16.244
16.2438
16.2438
16.2438
16.2439
16.2442
16.2448
16.2459
16.2451
16.2444
16.244
16.2438
16.2438
16.2438
16.2439
16.2443
16.2449
16.2459
16.2453
16.2445
16.2442
16.244
16.2439
16.2439
16.2441
16.2444
16.245
16.2461
16.2455
16.2448
16.2445
16.2443
16.2442
16.2443
16.2444
16.2447
16.2453
16.2464
16.246
16.2454
16.2451
16.2449
16.2448
16.2449
16.245
16.2453
16.246
16.247
16.2467
16.2463
16.2461
16.2459
16.2459
16.2459
16.2461
16.2464
16.247
16.2481
7.19399
7.19355
7.19331
7.19319
7.19315
7.19316
7.19324
7.19343
7.19379
7.19435
7.19355
7.19311
7.19287
7.19275
7.19271
7.19273
7.19282
7.19302
7.19342
7.19411
7.19331
7.19287
7.19263
7.19251
7.19247
7.19249
7.19258
7.1928
7.19322
7.19396
7.19319
7.19275
7.19251
7.1924
7.19236
7.19238
7.19247
7.19269
7.19313
7.19388
7.19315
7.19271
7.19247
7.19236
7.19232
7.19234
7.19244
7.19266
7.1931
7.19386
7.19316
7.19273
7.19249
7.19238
7.19234
7.19236
7.19246
7.19268
7.19313
7.19389
7.19324
7.19282
7.19258
7.19247
7.19244
7.19246
7.19255
7.19278
7.19323
7.19398
7.19343
7.19302
7.1928
7.19269
7.19266
7.19268
7.19278
7.19301
7.19346
7.19421
7.19379
7.19342
7.19322
7.19313
7.1931
7.19313
7.19323
7.19346
7.1939
7.19466
7.19435
7.19411
7.19396
7.19388
7.19386
7.19389
7.19398
7.19421
7.19466
7.19543
2.85455
2.85432
2.8542
2.85414
2.85412
2.85413
2.85418
2.85429
2.85451
2.85486
2.85432
2.8541
2.85398
2.85392
2.8539
2.85391
2.85396
2.85409
2.85432
2.85474
2.8542
2.85398
2.85386
2.8538
2.85378
2.85379
2.85385
2.85397
2.85423
2.85466
2.85414
2.85392
2.8538
2.85374
2.85372
2.85373
2.85379
2.85392
2.85418
2.85463
2.85412
2.8539
2.85378
2.85372
2.8537
2.85371
2.85377
2.8539
2.85417
2.85462
2.85413
2.85391
2.85379
2.85373
2.85371
2.85373
2.85379
2.85392
2.85418
2.85463
2.85418
2.85396
2.85385
2.85379
2.85377
2.85379
2.85384
2.85398
2.85424
2.85469
2.85429
2.85409
2.85397
2.85392
2.8539
2.85392
2.85398
2.85411
2.85438
2.85483
2.85451
2.85432
2.85423
2.85418
2.85417
2.85418
2.85424
2.85438
2.85464
2.85509
2.85486
2.85474
2.85467
2.85463
2.85462
2.85463
2.85469
2.85483
2.85509
2.85555
1.02233
1.02223
1.02217
1.02215
1.02214
1.02215
1.02217
1.02223
1.02234
1.02252
1.02223
1.02213
1.02208
1.02205
1.02204
1.02205
1.02208
1.02214
1.02226
1.02247
1.02217
1.02208
1.02202
1.022
1.02199
1.022
1.02202
1.02209
1.02222
1.02244
1.02215
1.02205
1.022
1.02197
1.02196
1.02197
1.022
1.02207
1.0222
1.02242
1.02214
1.02204
1.02199
1.02196
1.02196
1.02196
1.02199
1.02206
1.02219
1.02242
1.02215
1.02205
1.022
1.02197
1.02196
1.02197
1.022
1.02207
1.0222
1.02243
1.02217
1.02208
1.02202
1.022
1.02199
1.022
1.02203
1.0221
1.02223
1.02246
1.02223
1.02214
1.02209
1.02207
1.02206
1.02207
1.0221
1.02216
1.0223
1.02252
1.02234
1.02226
1.02222
1.0222
1.02219
1.0222
1.02223
1.0223
1.02243
1.02266
1.02252
1.02247
1.02244
1.02242
1.02242
1.02243
1.02246
1.02252
1.02266
1.02289
0.332825
0.332788
0.332767
0.332756
0.332753
0.332756
0.332767
0.332792
0.332839
0.332917
0.332788
0.332751
0.33273
0.33272
0.332717
0.33272
0.332731
0.332757
0.332809
0.332898
0.332767
0.33273
0.332709
0.332699
0.332696
0.332699
0.332711
0.332739
0.332792
0.332886
0.332756
0.33272
0.332699
0.332689
0.332686
0.332689
0.332702
0.33273
0.332785
0.33288
0.332753
0.332717
0.332696
0.332686
0.332683
0.332687
0.332699
0.332727
0.332783
0.332879
0.332756
0.33272
0.332699
0.332689
0.332687
0.33269
0.332703
0.332731
0.332787
0.332883
0.332767
0.332731
0.332711
0.332702
0.332699
0.332703
0.332715
0.332744
0.3328
0.332896
0.332793
0.332758
0.33274
0.332731
0.332729
0.332732
0.332745
0.332774
0.332829
0.332925
0.332843
0.332812
0.332796
0.332788
0.332786
0.33279
0.332803
0.332832
0.332888
0.332984
0.332924
0.332905
0.332893
0.332887
0.332885
0.332889
0.332902
0.332931
0.332987
0.333084
0.0991588
0.099146
0.0991387
0.0991352
0.0991342
0.0991352
0.0991388
0.0991456
0.0991544
0.0991635
0.099146
0.0991333
0.099126
0.0991226
0.0991216
0.0991226
0.0991264
0.0991337
0.0991439
0.0991575
0.0991387
0.099126
0.0991189
0.0991154
0.0991144
0.0991156
0.0991195
0.0991272
0.0991383
0.0991533
0.0991352
0.0991226
0.0991154
0.099112
0.099111
0.0991122
0.0991162
0.0991242
0.0991357
0.0991511
0.0991343
0.0991216
0.0991145
0.099111
0.0991101
0.0991113
0.0991154
0.0991235
0.0991352
0.0991508
0.0991355
0.0991229
0.0991158
0.0991124
0.0991115
0.0991128
0.0991169
0.099125
0.0991367
0.0991524
0.0991398
0.0991274
0.0991205
0.0991172
0.0991164
0.0991177
0.0991218
0.09913
0.0991417
0.0991574
0.0991499
0.0991379
0.0991315
0.0991284
0.0991277
0.099129
0.0991332
0.0991414
0.0991532
0.0991689
0.0991692
0.0991587
0.0991531
0.0991505
0.09915
0.0991514
0.0991556
0.0991638
0.0991756
0.0991914
0.0992011
0.099195
0.0991908
0.0991887
0.0991883
0.0991897
0.099194
0.0992022
0.0992141
0.0992302
0.027203
0.0271991
0.0271968
0.0271957
0.0271953
0.0271953
0.0271945
0.0271869
0.0271478
0.0270202
0.0271991
0.0271951
0.0271928
0.0271918
0.0271914
0.0271914
0.0271907
0.0271832
0.0271445
0.0270184
0.0271968
0.0271928
0.0271906
0.0271895
0.0271892
0.0271892
0.0271885
0.0271812
0.0271428
0.0270171
0.0271957
0.0271918
0.0271895
0.0271885
0.0271881
0.0271882
0.0271875
0.0271803
0.027142
0.0270165
0.0271954
0.0271915
0.0271893
0.0271882
0.0271879
0.0271879
0.0271873
0.0271801
0.0271419
0.0270164
0.0271959
0.027192
0.0271897
0.0271887
0.0271884
0.0271884
0.0271878
0.0271806
0.0271424
0.027017
0.0271974
0.0271935
0.0271914
0.0271904
0.0271901
0.0271901
0.0271895
0.0271823
0.0271442
0.0270187
0.0272009
0.0271972
0.0271952
0.0271942
0.027194
0.0271941
0.0271935
0.0271863
0.0271481
0.0270226
0.0272077
0.0272044
0.0272027
0.0272019
0.0272017
0.0272018
0.0272012
0.027194
0.0271558
0.0270303
0.0272189
0.027217
0.0272157
0.0272151
0.0272149
0.027215
0.0272144
0.0272073
0.0271691
0.0270436
0.00691054
0.00690941
0.00690876
0.00690844
0.00690823
0.00690761
0.00690352
0.00687822
0.00673115
0.00589995
0.00690941
0.00690828
0.00690764
0.00690732
0.00690712
0.0069065
0.00690242
0.00687718
0.00673027
0.00589948
0.00690876
0.00690764
0.00690701
0.00690668
0.00690649
0.00690587
0.00690181
0.00687661
0.0067298
0.00589917
0.00690846
0.00690734
0.0069067
0.00690638
0.00690619
0.00690558
0.00690153
0.00687635
0.00672958
0.00589902
0.00690838
0.00690727
0.00690663
0.00690631
0.00690612
0.00690551
0.00690147
0.0068763
0.00672955
0.005899
0.00690853
0.00690742
0.00690679
0.00690647
0.00690628
0.00690568
0.00690164
0.00687648
0.00672972
0.00589916
0.00690902
0.00690792
0.00690731
0.006907
0.00690682
0.00690622
0.00690218
0.00687701
0.00673025
0.00589961
0.00691012
0.00690907
0.0069085
0.00690822
0.00690804
0.00690744
0.00690341
0.00687824
0.00673144
0.00590065
0.00691226
0.00691134
0.00691085
0.00691061
0.00691045
0.00690986
0.00690582
0.00688065
0.0067338
0.00590271
0.0069158
0.00691529
0.00691493
0.00691473
0.00691459
0.006914
0.00690996
0.00688478
0.00673786
0.00590635
0.00163386
0.00163357
0.0016334
0.0016333
0.00163319
0.0016327
0.00162993
0.0016154
0.00154684
0.00126636
0.00163357
0.00163327
0.00163311
0.00163301
0.0016329
0.00163241
0.00162964
0.00161513
0.00154662
0.00126624
0.0016334
0.00163311
0.00163294
0.00163285
0.00163274
0.00163225
0.00162948
0.00161498
0.0015465
0.00126617
0.00163332
0.00163303
0.00163286
0.00163277
0.00163266
0.00163217
0.00162941
0.00161492
0.00154644
0.00126613
0.0016333
0.00163301
0.00163284
0.00163275
0.00163264
0.00163216
0.0016294
0.00161491
0.00154644
0.00126613
0.00163335
0.00163306
0.00163289
0.0016328
0.00163269
0.00163221
0.00162945
0.00161496
0.00154649
0.00126617
0.00163349
0.0016332
0.00163304
0.00163295
0.00163284
0.00163236
0.0016296
0.00161511
0.00154663
0.00126629
0.00163381
0.00163353
0.00163338
0.0016333
0.00163319
0.00163271
0.00162995
0.00161546
0.00154696
0.00126656
0.00163442
0.00163418
0.00163405
0.00163398
0.00163388
0.0016334
0.00163064
0.00161614
0.00154762
0.00126709
0.00163544
0.00163531
0.00163522
0.00163516
0.00163506
0.00163458
0.00163182
0.00161731
0.00154875
0.00126804
0.000361172
0.0003611
0.000361058
0.000361031
0.000360982
0.000360753
0.000359592
0.000354256
0.000332877
0.000262755
0.0003611
0.000361029
0.000360987
0.000360961
0.000360912
0.000360683
0.000359524
0.000354193
0.000332826
0.000262727
0.00036106
0.000360989
0.000360947
0.00036092
0.000360872
0.000360644
0.000359485
0.000354158
0.000332798
0.000262709
0.00036104
0.00036097
0.000360928
0.000360902
0.000360854
0.000360626
0.000359468
0.000354142
0.000332785
0.000262701
0.000361037
0.000360966
0.000360925
0.000360898
0.00036085
0.000360623
0.000359465
0.00035414
0.000332784
0.000262701
0.000361048
0.000360978
0.000360937
0.000360911
0.000360863
0.000360636
0.000359478
0.000354153
0.000332797
0.000262711
0.000361086
0.000361016
0.000360977
0.000360951
0.000360904
0.000360676
0.000359519
0.000354193
0.000332834
0.000262741
0.00036117
0.000361104
0.000361066
0.000361042
0.000360996
0.000360769
0.000359611
0.000354284
0.000332919
0.000262808
0.000361333
0.000361275
0.000361243
0.000361222
0.000361176
0.000360949
0.000359791
0.000354462
0.000333086
0.000262941
0.000361604
0.000361573
0.00036155
0.000361531
0.000361486
0.00036126
0.000360101
0.000354767
0.000333375
0.000263175
7.49535e-05
7.49374e-05
7.49277e-05
7.49204e-05
7.4903e-05
7.48226e-05
7.44492e-05
7.29064e-05
6.74654e-05
5.22373e-05
7.49374e-05
7.49214e-05
7.49118e-05
7.49045e-05
7.48872e-05
7.48069e-05
7.4434e-05
7.28924e-05
6.74543e-05
5.22309e-05
7.49283e-05
7.49123e-05
7.49028e-05
7.48955e-05
7.48782e-05
7.4798e-05
7.44254e-05
7.28847e-05
6.74481e-05
5.22271e-05
7.4924e-05
7.49081e-05
7.48985e-05
7.48913e-05
7.4874e-05
7.47939e-05
7.44215e-05
7.28812e-05
6.74453e-05
5.22253e-05
7.49233e-05
7.49073e-05
7.48978e-05
7.48906e-05
7.48734e-05
7.47933e-05
7.4421e-05
7.28808e-05
6.74451e-05
5.22254e-05
7.49262e-05
7.49104e-05
7.4901e-05
7.48938e-05
7.48766e-05
7.47966e-05
7.44243e-05
7.28841e-05
6.74482e-05
5.22278e-05
7.49354e-05
7.49198e-05
7.49106e-05
7.49036e-05
7.48865e-05
7.48065e-05
7.44342e-05
7.28937e-05
6.74571e-05
5.22347e-05
7.49561e-05
7.49411e-05
7.49325e-05
7.49259e-05
7.49089e-05
7.4829e-05
7.44565e-05
7.29156e-05
6.74773e-05
5.22505e-05
7.4996e-05
7.4983e-05
7.49757e-05
7.49696e-05
7.49529e-05
7.48729e-05
7.45003e-05
7.29585e-05
6.7517e-05
5.22816e-05
7.50624e-05
7.50556e-05
7.50501e-05
7.50447e-05
7.50282e-05
7.49483e-05
7.45754e-05
7.30322e-05
6.75858e-05
5.23364e-05
1.46577e-05
1.46543e-05
1.46522e-05
1.46503e-05
1.46451e-05
1.46217e-05
1.45212e-05
1.41404e-05
1.29273e-05
9.91122e-06
1.46543e-05
1.46509e-05
1.46488e-05
1.46469e-05
1.46417e-05
1.46184e-05
1.4518e-05
1.41375e-05
1.2925e-05
9.90988e-06
1.46524e-05
1.4649e-05
1.46469e-05
1.4645e-05
1.46398e-05
1.46166e-05
1.45162e-05
1.41359e-05
1.29237e-05
9.90909e-06
1.46515e-05
1.46481e-05
1.4646e-05
1.46441e-05
1.4639e-05
1.46157e-05
1.45154e-05
1.41352e-05
1.29231e-05
9.90873e-06
1.46513e-05
1.4648e-05
1.46459e-05
1.4644e-05
1.46388e-05
1.46156e-05
1.45153e-05
1.41351e-05
1.29231e-05
9.90876e-06
1.4652e-05
1.46487e-05
1.46466e-05
1.46448e-05
1.46396e-05
1.46163e-05
1.45161e-05
1.41359e-05
1.29238e-05
9.9093e-06
1.46541e-05
1.46508e-05
1.46488e-05
1.4647e-05
1.46418e-05
1.46186e-05
1.45183e-05
1.4138e-05
1.29258e-05
9.91084e-06
1.46588e-05
1.46557e-05
1.46538e-05
1.46521e-05
1.46469e-05
1.46237e-05
1.45234e-05
1.4143e-05
1.29303e-05
9.91431e-06
1.46679e-05
1.46652e-05
1.46636e-05
1.4662e-05
1.46569e-05
1.46336e-05
1.45333e-05
1.41526e-05
1.29391e-05
9.9212e-06
1.46831e-05
1.46816e-05
1.46804e-05
1.4679e-05
1.46739e-05
1.46507e-05
1.45502e-05
1.41691e-05
1.29544e-05
9.93323e-06
2.71013e-06
2.70945e-06
2.70902e-06
2.70857e-06
2.70721e-06
2.70133e-06
2.67761e-06
2.59406e-06
2.34894e-06
1.79257e-06
2.70946e-06
2.70879e-06
2.70836e-06
2.70791e-06
2.70655e-06
2.70068e-06
2.67698e-06
2.59349e-06
2.34849e-06
1.7923e-06
2.70908e-06
2.70841e-06
2.70798e-06
2.70754e-06
2.70617e-06
2.70032e-06
2.67663e-06
2.59318e-06
2.34824e-06
1.79215e-06
2.70891e-06
2.70823e-06
2.70781e-06
2.70736e-06
2.706e-06
2.70015e-06
2.67647e-06
2.59304e-06
2.34813e-06
1.79208e-06
2.70888e-06
2.70821e-06
2.70779e-06
2.70734e-06
2.70599e-06
2.70013e-06
2.67646e-06
2.59303e-06
2.34814e-06
1.79209e-06
2.70903e-06
2.70837e-06
2.70795e-06
2.7075e-06
2.70615e-06
2.7003e-06
2.67662e-06
2.59319e-06
2.34828e-06
1.7922e-06
2.70948e-06
2.70882e-06
2.70841e-06
2.70798e-06
2.70663e-06
2.70077e-06
2.6771e-06
2.59365e-06
2.3487e-06
1.79252e-06
2.71049e-06
2.70986e-06
2.70947e-06
2.70905e-06
2.70771e-06
2.70185e-06
2.67817e-06
2.59469e-06
2.34964e-06
1.79325e-06
2.71243e-06
2.71188e-06
2.71155e-06
2.71115e-06
2.70982e-06
2.70396e-06
2.68026e-06
2.59672e-06
2.35148e-06
1.79468e-06
2.71566e-06
2.71538e-06
2.71513e-06
2.71476e-06
2.71343e-06
2.70757e-06
2.68384e-06
2.6002e-06
2.35466e-06
1.79717e-06
4.75217e-07
4.75089e-07
4.75005e-07
4.74905e-07
4.74586e-07
4.73268e-07
4.68228e-07
4.51539e-07
4.05793e-07
3.09142e-07
4.75091e-07
4.74965e-07
4.74881e-07
4.74782e-07
4.74464e-07
4.73147e-07
4.68112e-07
4.51435e-07
4.05712e-07
3.09092e-07
4.7502e-07
4.74894e-07
4.74811e-07
4.74712e-07
4.74394e-07
4.73078e-07
4.68046e-07
4.51376e-07
4.05666e-07
3.09063e-07
4.74988e-07
4.74862e-07
4.74779e-07
4.7468e-07
4.74362e-07
4.73047e-07
4.68017e-07
4.5135e-07
4.05646e-07
3.09051e-07
4.74984e-07
4.74859e-07
4.74776e-07
4.74677e-07
4.7436e-07
4.73045e-07
4.68015e-07
4.5135e-07
4.05647e-07
3.09053e-07
4.75015e-07
4.7489e-07
4.74808e-07
4.7471e-07
4.74393e-07
4.73078e-07
4.68048e-07
4.51382e-07
4.05676e-07
3.09076e-07
4.75105e-07
4.74982e-07
4.74902e-07
4.74805e-07
4.74488e-07
4.73174e-07
4.68143e-07
4.51474e-07
4.05758e-07
3.09139e-07
4.75306e-07
4.75189e-07
4.75113e-07
4.75019e-07
4.74704e-07
4.73389e-07
4.68356e-07
4.51679e-07
4.05943e-07
3.09282e-07
4.75695e-07
4.75593e-07
4.75527e-07
4.75438e-07
4.75124e-07
4.73809e-07
4.68772e-07
4.5208e-07
4.06305e-07
3.09563e-07
4.76342e-07
4.7629e-07
4.7624e-07
4.76156e-07
4.75843e-07
4.74527e-07
4.69483e-07
4.52768e-07
4.0693e-07
3.10051e-07
7.92447e-08
7.9222e-08
7.92065e-08
7.9186e-08
7.91184e-08
7.88492e-08
7.78681e-08
7.4787e-08
6.68075e-08
5.08908e-08
7.92226e-08
7.92001e-08
7.91847e-08
7.91642e-08
7.90967e-08
7.88278e-08
7.78477e-08
7.47687e-08
6.67933e-08
5.0882e-08
7.921e-08
7.91876e-08
7.91722e-08
7.91518e-08
7.90844e-08
7.88157e-08
7.78362e-08
7.47585e-08
6.67853e-08
5.08769e-08
7.92043e-08
7.91819e-08
7.91666e-08
7.91461e-08
7.90788e-08
7.88103e-08
7.7831e-08
7.4754e-08
6.67818e-08
5.08748e-08
7.92039e-08
7.91815e-08
7.91662e-08
7.91459e-08
7.90786e-08
7.88101e-08
7.7831e-08
7.47541e-08
6.67822e-08
5.08752e-08
7.92097e-08
7.91875e-08
7.91723e-08
7.91521e-08
7.90848e-08
7.88164e-08
7.78372e-08
7.47602e-08
6.67877e-08
5.08795e-08
7.92268e-08
7.92049e-08
7.91901e-08
7.917e-08
7.91029e-08
7.88344e-08
7.78551e-08
7.47773e-08
6.6803e-08
5.08914e-08
7.92649e-08
7.92439e-08
7.92299e-08
7.92104e-08
7.91435e-08
7.88749e-08
7.78951e-08
7.48157e-08
6.68374e-08
5.09179e-08
7.93382e-08
7.93201e-08
7.93079e-08
7.92891e-08
7.92225e-08
7.89538e-08
7.79731e-08
7.48907e-08
6.69047e-08
5.09702e-08
7.94605e-08
7.94513e-08
7.94418e-08
7.9424e-08
7.93576e-08
7.90886e-08
7.81063e-08
7.50191e-08
6.70205e-08
5.10606e-08
1.25986e-08
1.25948e-08
1.25921e-08
1.25881e-08
1.2575e-08
1.25243e-08
1.23472e-08
1.18159e-08
1.05047e-08
8.01053e-09
1.25949e-08
1.25911e-08
1.25884e-08
1.25845e-08
1.25713e-08
1.25207e-08
1.23438e-08
1.18129e-08
1.05024e-08
8.00904e-09
1.25928e-08
1.2589e-08
1.25863e-08
1.25824e-08
1.25693e-08
1.25187e-08
1.23419e-08
1.18112e-08
1.05011e-08
8.0082e-09
1.25919e-08
1.25881e-08
1.25854e-08
1.25814e-08
1.25683e-08
1.25178e-08
1.2341e-08
1.18104e-08
1.05005e-08
8.00784e-09
1.25918e-08
1.2588e-08
1.25853e-08
1.25814e-08
1.25683e-08
1.25178e-08
1.2341e-08
1.18105e-08
1.05006e-08
8.00793e-09
1.25929e-08
1.25891e-08
1.25865e-08
1.25826e-08
1.25694e-08
1.25189e-08
1.23421e-08
1.18116e-08
1.05016e-08
8.0087e-09
1.25959e-08
1.25922e-08
1.25896e-08
1.25858e-08
1.25727e-08
1.25221e-08
1.23453e-08
1.18146e-08
1.05043e-08
8.0108e-09
1.26027e-08
1.25992e-08
1.25967e-08
1.2593e-08
1.25799e-08
1.25293e-08
1.23524e-08
1.18214e-08
1.05103e-08
8.0155e-09
1.26158e-08
1.26128e-08
1.26106e-08
1.2607e-08
1.2594e-08
1.25434e-08
1.23663e-08
1.18347e-08
1.05222e-08
8.02472e-09
1.26377e-08
1.26362e-08
1.26345e-08
1.2631e-08
1.2618e-08
1.25673e-08
1.23899e-08
1.18574e-08
1.05426e-08
8.04063e-09
1.91405e-09
1.91344e-09
1.91298e-09
1.91227e-09
1.90989e-09
1.901e-09
1.87111e-09
1.78501e-09
1.58188e-09
1.21732e-09
1.91346e-09
1.91285e-09
1.91239e-09
1.91168e-09
1.9093e-09
1.90043e-09
1.87056e-09
1.78453e-09
1.58151e-09
1.21707e-09
1.91312e-09
1.91251e-09
1.91206e-09
1.91135e-09
1.90898e-09
1.90011e-09
1.87026e-09
1.78426e-09
1.5813e-09
1.21694e-09
1.91297e-09
1.91236e-09
1.91191e-09
1.9112e-09
1.90883e-09
1.89996e-09
1.87012e-09
1.78414e-09
1.58121e-09
1.21688e-09
1.91297e-09
1.91236e-09
1.91191e-09
1.9112e-09
1.90883e-09
1.89997e-09
1.87013e-09
1.78415e-09
1.58123e-09
1.2169e-09
1.91315e-09
1.91255e-09
1.9121e-09
1.9114e-09
1.90902e-09
1.90016e-09
1.87032e-09
1.78434e-09
1.58139e-09
1.21703e-09
1.91367e-09
1.91308e-09
1.91264e-09
1.91194e-09
1.90957e-09
1.90071e-09
1.87086e-09
1.78485e-09
1.58185e-09
1.21739e-09
1.91483e-09
1.91426e-09
1.91384e-09
1.91316e-09
1.91079e-09
1.90193e-09
1.87206e-09
1.786e-09
1.58287e-09
1.21819e-09
1.91705e-09
1.91656e-09
1.91619e-09
1.91553e-09
1.91317e-09
1.9043e-09
1.8744e-09
1.78823e-09
1.58486e-09
1.21975e-09
1.92076e-09
1.92051e-09
1.92022e-09
1.91958e-09
1.91723e-09
1.90834e-09
1.87838e-09
1.79204e-09
1.58827e-09
1.22243e-09
0.0012141
0.000240899
4.5909e-05
8.52218e-06
2.39586e-06
5.82739e-06
3.20009e-05
0.000175154
0.000919433
0.00463365
0.001214
0.000240877
4.59044e-05
8.52103e-06
2.39457e-06
5.82167e-06
3.19735e-05
0.000175031
0.000918914
0.00463165
0.00121394
0.000240863
4.59017e-05
8.52044e-06
2.39399e-06
5.81922e-06
3.19622e-05
0.000174981
0.000918715
0.0046309
0.00121391
0.000240857
4.59005e-05
8.52018e-06
2.39377e-06
5.81831e-06
3.19581e-05
0.000174963
0.000918642
0.00463062
0.0012139
0.000240857
4.59006e-05
8.52022e-06
2.39373e-06
5.8181e-06
3.19571e-05
0.00017496
0.000918626
0.00463055
0.00121394
0.000240867
4.59027e-05
8.52068e-06
2.39386e-06
5.81832e-06
3.19582e-05
0.000174965
0.000918652
0.00463067
0.00121406
0.000240893
4.59087e-05
8.52196e-06
2.39424e-06
5.81906e-06
3.19619e-05
0.000174983
0.000918736
0.00463103
0.00121431
0.000240953
4.59221e-05
8.52483e-06
2.39505e-06
5.82055e-06
3.19692e-05
0.00017502
0.000918914
0.00463184
0.00121482
0.000241071
4.59481e-05
8.53037e-06
2.3965e-06
5.82282e-06
3.19806e-05
0.000175079
0.00091921
0.00463324
0.00121568
0.00024127
4.59918e-05
8.53957e-06
2.39866e-06
5.82516e-06
3.1992e-05
0.000175142
0.000919538
0.00463494
0.000406394
0.000102395
2.26587e-05
4.66754e-06
1.43523e-06
3.42193e-06
1.74464e-05
8.63057e-05
0.000390285
0.00154912
0.000406357
0.000102386
2.26564e-05
4.66692e-06
1.43445e-06
3.41863e-06
1.74318e-05
8.62461e-05
0.00039007
0.00154847
0.000406334
0.00010238
2.26551e-05
4.66658e-06
1.43409e-06
3.41716e-06
1.74254e-05
8.62205e-05
0.000389979
0.00154819
0.000406323
0.000102377
2.26545e-05
4.66644e-06
1.43395e-06
3.4166e-06
1.74229e-05
8.62109e-05
0.000389944
0.00154808
0.000406323
0.000102377
2.26546e-05
4.66647e-06
1.43393e-06
3.41646e-06
1.74224e-05
8.62087e-05
0.000389936
0.00154806
0.000406338
0.000102382
2.26557e-05
4.66674e-06
1.43401e-06
3.4166e-06
1.7423e-05
8.62117e-05
0.000389949
0.0015481
0.000406382
0.000102395
2.2659e-05
4.66751e-06
1.43425e-06
3.41707e-06
1.74252e-05
8.62213e-05
0.000389988
0.00154824
0.000406481
0.000102423
2.26663e-05
4.66922e-06
1.43478e-06
3.41802e-06
1.74295e-05
8.62415e-05
0.000390072
0.00154855
0.000406677
0.00010248
2.26807e-05
4.67258e-06
1.43573e-06
3.41954e-06
1.74367e-05
8.62751e-05
0.000390217
0.00154909
0.000407024
0.00010258
2.27058e-05
4.67839e-06
1.43726e-06
3.4215e-06
1.74457e-05
8.63191e-05
0.000390416
0.00154989
0.00010559
3.16387e-05
7.97559e-06
1.82251e-06
6.18584e-07
1.4403e-06
6.77436e-06
3.03307e-05
0.000120461
0.00040218
0.00010558
3.16356e-05
7.97477e-06
1.82226e-06
6.18242e-07
1.43892e-06
6.76868e-06
3.03098e-05
0.000120395
0.000402012
0.000105573
3.16336e-05
7.97428e-06
1.82212e-06
6.18077e-07
1.43828e-06
6.76608e-06
3.03003e-05
0.000120365
0.000401932
0.00010557
3.16328e-05
7.97406e-06
1.82206e-06
6.18011e-07
1.43803e-06
6.76506e-06
3.02966e-05
0.000120353
0.000401899
0.00010557
3.16329e-05
7.97411e-06
1.82208e-06
6.18001e-07
1.43797e-06
6.76482e-06
3.02957e-05
0.00012035
0.000401892
0.000105575
3.16345e-05
7.97458e-06
1.8222e-06
6.1804e-07
1.43803e-06
6.7651e-06
3.02969e-05
0.000120355
0.000401905
0.000105588
3.1639e-05
7.97586e-06
1.82253e-06
6.18153e-07
1.43825e-06
6.76601e-06
3.03007e-05
0.000120368
0.000401947
0.000105618
3.16491e-05
7.97876e-06
1.82327e-06
6.18401e-07
1.43869e-06
6.76791e-06
3.03086e-05
0.000120398
0.000402038
0.000105678
3.16693e-05
7.9845e-06
1.82474e-06
6.18861e-07
1.43943e-06
6.77112e-06
3.03224e-05
0.00012045
0.000402205
0.000105783
3.17048e-05
7.99458e-06
1.8273e-06
6.19613e-07
1.44048e-06
6.77566e-06
3.03424e-05
0.000120529
0.000402471
2.39913e-05
8.15235e-06
2.28325e-06
5.71453e-07
2.12497e-07
4.83358e-07
2.11127e-06
8.66937e-06
3.10081e-05
9.13153e-05
2.39887e-05
8.1515e-06
2.28301e-06
5.71371e-07
2.12376e-07
4.82894e-07
2.1095e-06
8.66339e-06
3.0991e-05
9.12766e-05
2.39871e-05
8.15098e-06
2.28286e-06
5.71325e-07
2.12316e-07
4.82671e-07
2.10865e-06
8.66051e-06
3.09827e-05
9.12567e-05
2.39864e-05
8.15074e-06
2.2828e-06
5.71305e-07
2.12292e-07
4.8258e-07
2.1083e-06
8.65935e-06
3.09793e-05
9.12483e-05
2.39865e-05
8.15079e-06
2.28282e-06
5.71311e-07
2.12288e-07
4.82558e-07
2.10822e-06
8.65908e-06
3.09785e-05
9.12465e-05
2.39877e-05
8.15127e-06
2.28297e-06
5.71354e-07
2.12303e-07
4.82582e-07
2.10832e-06
8.65945e-06
3.09797e-05
9.12499e-05
2.39912e-05
8.15259e-06
2.28338e-06
5.71469e-07
2.12346e-07
4.82661e-07
2.10863e-06
8.66065e-06
3.09837e-05
9.12608e-05
2.3999e-05
8.15557e-06
2.28432e-06
5.7173e-07
2.1244e-07
4.82827e-07
2.1093e-06
8.66322e-06
3.09924e-05
9.12848e-05
2.40147e-05
8.1615e-06
2.28617e-06
5.72244e-07
2.12616e-07
4.83115e-07
2.11046e-06
8.6678e-06
3.10081e-05
9.13296e-05
2.40423e-05
8.17194e-06
2.28943e-06
5.7314e-07
2.12907e-07
4.83547e-07
2.1122e-06
8.67487e-06
3.10333e-05
9.1404e-05
4.96473e-06
1.85348e-06
5.65198e-07
1.52961e-07
6.167e-08
1.37246e-07
5.61541e-07
2.14254e-06
7.04284e-06
1.88833e-05
4.96414e-06
1.85327e-06
5.65134e-07
1.52937e-07
6.16336e-08
1.37113e-07
5.61064e-07
2.14104e-06
7.03891e-06
1.8875e-05
4.96379e-06
1.85315e-06
5.65097e-07
1.52924e-07
6.16152e-08
1.37048e-07
5.60828e-07
2.1403e-06
7.0369e-06
1.88706e-05
4.96363e-06
1.85309e-06
5.65081e-07
1.52919e-07
6.16076e-08
1.3702e-07
5.6073e-07
2.13999e-06
7.03605e-06
1.88687e-05
4.96365e-06
1.85311e-06
5.65087e-07
1.5292e-07
6.16064e-08
1.37014e-07
5.60706e-07
2.13991e-06
7.03585e-06
1.88683e-05
4.96395e-06
1.85323e-06
5.6513e-07
1.52933e-07
6.16111e-08
1.37021e-07
5.60734e-07
2.14001e-06
7.03617e-06
1.88691e-05
4.96478e-06
1.85357e-06
5.65245e-07
1.52968e-07
6.16248e-08
1.37046e-07
5.60827e-07
2.14035e-06
7.0372e-06
1.88717e-05
4.96666e-06
1.85435e-06
5.65506e-07
1.53046e-07
6.16549e-08
1.37099e-07
5.61026e-07
2.14107e-06
7.03944e-06
1.88774e-05
4.97038e-06
1.85588e-06
5.66023e-07
1.53199e-07
6.17118e-08
1.37193e-07
5.61382e-07
2.14237e-06
7.04359e-06
1.88882e-05
4.97691e-06
1.85856e-06
5.66927e-07
1.53465e-07
6.18067e-08
1.37338e-07
5.61939e-07
2.14447e-06
7.05044e-06
1.89067e-05
9.5357e-07
3.82727e-07
1.25114e-07
3.62142e-08
1.56724e-08
3.4185e-08
1.32082e-07
4.73478e-07
1.4528e-06
3.62421e-06
9.53448e-07
3.82682e-07
1.251e-07
3.62083e-08
1.56628e-08
3.41515e-08
1.31968e-07
4.73141e-07
1.45197e-06
3.62258e-06
9.53375e-07
3.82655e-07
1.25091e-07
3.6205e-08
1.56579e-08
3.41345e-08
1.3191e-07
4.72968e-07
1.45154e-06
3.62168e-06
9.53343e-07
3.82643e-07
1.25087e-07
3.62036e-08
1.56558e-08
3.41273e-08
1.31886e-07
4.72894e-07
1.45135e-06
3.62128e-06
9.5335e-07
3.82647e-07
1.25089e-07
3.62042e-08
1.56555e-08
3.41255e-08
1.31879e-07
4.72876e-07
1.4513e-06
3.62119e-06
9.53417e-07
3.82676e-07
1.251e-07
3.62075e-08
1.56568e-08
3.41276e-08
1.31887e-07
4.72901e-07
1.45138e-06
3.62136e-06
9.53599e-07
3.82756e-07
1.25129e-07
3.62167e-08
1.56607e-08
3.41344e-08
1.31911e-07
4.72984e-07
1.45161e-06
3.62193e-06
9.5401e-07
3.82936e-07
1.25193e-07
3.62371e-08
1.56691e-08
3.41491e-08
1.31964e-07
4.73163e-07
1.45214e-06
3.62319e-06
9.54824e-07
3.83293e-07
1.25321e-07
3.62774e-08
1.56851e-08
3.41758e-08
1.32059e-07
4.73495e-07
1.45313e-06
3.6256e-06
9.56246e-07
3.83916e-07
1.25544e-07
3.63473e-08
1.5712e-08
3.42183e-08
1.32213e-07
4.74039e-07
1.45479e-06
3.62975e-06
1.71803e-07
7.30075e-08
2.5283e-08
7.75653e-09
3.57133e-09
7.64805e-09
2.8103e-08
9.55098e-08
2.76837e-07
6.52458e-07
1.71779e-07
7.29983e-08
2.52799e-08
7.75518e-09
3.56907e-09
7.64045e-09
2.80783e-08
9.54405e-08
2.76675e-07
6.52154e-07
1.71765e-07
7.29929e-08
2.52781e-08
7.75442e-09
3.56789e-09
7.63652e-09
2.80655e-08
9.5404e-08
2.76587e-07
6.51982e-07
1.71759e-07
7.29906e-08
2.52773e-08
7.75411e-09
3.56739e-09
7.63482e-09
2.80599e-08
9.5388e-08
2.76548e-07
6.51903e-07
1.71761e-07
7.29916e-08
2.52778e-08
7.75424e-09
3.56732e-09
7.63439e-09
2.80585e-08
9.53841e-08
2.76539e-07
6.51886e-07
1.71775e-07
7.29979e-08
2.52802e-08
7.75505e-09
3.56764e-09
7.63489e-09
2.80602e-08
9.53898e-08
2.76555e-07
6.51922e-07
1.71812e-07
7.30151e-08
2.52867e-08
7.75721e-09
3.5686e-09
7.63659e-09
2.8066e-08
9.54084e-08
2.76606e-07
6.52038e-07
1.71896e-07
7.30536e-08
2.53012e-08
7.76206e-09
3.57072e-09
7.64027e-09
2.80785e-08
9.54491e-08
2.76719e-07
6.52296e-07
1.72061e-07
7.31299e-08
2.533e-08
7.77159e-09
3.57477e-09
7.64702e-09
2.81017e-08
9.55254e-08
2.76935e-07
6.52795e-07
1.7235e-07
7.32626e-08
2.53801e-08
7.78809e-09
3.58156e-09
7.65795e-09
2.81395e-08
9.56524e-08
2.77301e-07
6.53659e-07
2.92352e-08
1.30088e-08
4.72879e-09
1.5263e-09
7.42001e-10
1.56254e-09
5.49321e-09
1.78302e-08
4.92729e-08
1.10935e-07
2.92309e-08
1.3007e-08
4.72817e-09
1.52602e-09
7.41516e-10
1.56096e-09
5.48829e-09
1.7817e-08
4.92432e-08
1.10882e-07
2.92283e-08
1.3006e-08
4.72781e-09
1.52586e-09
7.41259e-10
1.56013e-09
5.48569e-09
1.78099e-08
4.92269e-08
1.10851e-07
2.92273e-08
1.30056e-08
4.72767e-09
1.52579e-09
7.41149e-10
1.55977e-09
5.48454e-09
1.78067e-08
4.92194e-08
1.10836e-07
2.92277e-08
1.30058e-08
4.72777e-09
1.52582e-09
7.41132e-10
1.55967e-09
5.48425e-09
1.78059e-08
4.92177e-08
1.10833e-07
2.92303e-08
1.30071e-08
4.72828e-09
1.526e-09
7.41207e-10
1.55979e-09
5.48462e-09
1.78071e-08
4.92209e-08
1.1084e-07
2.92374e-08
1.30105e-08
4.72963e-09
1.52647e-09
7.41426e-10
1.56017e-09
5.48587e-09
1.7811e-08
4.92311e-08
1.10862e-07
2.92535e-08
1.30182e-08
4.73265e-09
1.52752e-09
7.4191e-10
1.56101e-09
5.4886e-09
1.78195e-08
4.92538e-08
1.10912e-07
2.92852e-08
1.30333e-08