/*--------------------------------*- C++ -*----------------------------------*\
  =========                 |
  \\      /  F ield         | OpenFOAM: The Open Source CFD Toolbox
   \\    /   O peration     | Website:  https://openfoam.org
    \\  /    A nd           | Version:  6
     \\/     M anipulation  |
\*---------------------------------------------------------------------------*/
FoamFile
{
    version     2.0;
    format      ascii;
    class       volScalarField;
    location    "0.305";
    object      T;
}
// * * * * * * * * * * * * * * * * * * * * * * * * * * * * * * * * * * * * * //

dimensions      [0 0 0 1 0 0 0];

internalField   nonuniform List<scalar> 
7000
(
104.36
104.36
104.358
104.356
104.353
104.349
104.346
104.343
104.34
104.339
104.36
104.36
104.358
104.356
104.353
104.349
104.346
104.343
104.34
104.339
104.36
104.36
104.358
104.356
104.353
104.349
104.346
104.343
104.34
104.339
104.36
104.36
104.358
104.356
104.353
104.349
104.346
104.343
104.34
104.339
104.36
104.36
104.358
104.356
104.353
104.349
104.346
104.343
104.34
104.339
104.36
104.36
104.358
104.356
104.353
104.349
104.346
104.343
104.34
104.339
104.36
104.36
104.358
104.356
104.353
104.349
104.346
104.343
104.34
104.339
104.36
104.36
104.358
104.356
104.353
104.349
104.346
104.343
104.34
104.339
104.36
104.36
104.358
104.356
104.353
104.349
104.346
104.343
104.34
104.339
104.36
104.36
104.358
104.356
104.353
104.349
104.346
104.343
104.34
104.339
93.1737
93.171
93.1659
93.1584
93.149
93.1382
93.127
93.1167
93.1088
93.1044
93.1736
93.171
93.1659
93.1584
93.149
93.1382
93.127
93.1167
93.1087
93.1044
93.1736
93.171
93.1658
93.1584
93.1489
93.1381
93.127
93.1167
93.1087
93.1043
93.1736
93.1709
93.1658
93.1583
93.1489
93.1381
93.1269
93.1166
93.1087
93.1043
93.1736
93.1709
93.1658
93.1583
93.1489
93.1381
93.1269
93.1166
93.1087
93.1043
93.1735
93.1709
93.1658
93.1583
93.1489
93.1381
93.1269
93.1166
93.1087
93.1043
93.1736
93.1709
93.1658
93.1583
93.1489
93.1381
93.1269
93.1166
93.1087
93.1043
93.1736
93.1709
93.1658
93.1583
93.1489
93.1381
93.127
93.1167
93.1087
93.1043
93.1736
93.171
93.1658
93.1584
93.1489
93.1381
93.127
93.1167
93.1087
93.1044
93.1736
93.171
93.1659
93.1584
93.149
93.1382
93.127
93.1167
93.1088
93.1044
82.259
82.2543
82.245
82.2314
82.214
82.1939
82.1728
82.1532
82.1378
82.1293
82.2589
82.2542
82.2449
82.2313
82.2139
82.1938
82.1728
82.1531
82.1377
82.1292
82.2589
82.2541
82.2449
82.2312
82.2139
82.1938
82.1727
82.1531
82.1377
82.1292
82.2588
82.2541
82.2448
82.2312
82.2138
82.1938
82.1727
82.153
82.1376
82.1291
82.2588
82.2541
82.2448
82.2312
82.2138
82.1937
82.1727
82.153
82.1376
82.1291
82.2588
82.2541
82.2448
82.2312
82.2138
82.1937
82.1727
82.153
82.1376
82.1291
82.2588
82.2541
82.2448
82.2312
82.2138
82.1938
82.1727
82.153
82.1376
82.1291
82.2588
82.2541
82.2448
82.2312
82.2139
82.1938
82.1727
82.1531
82.1377
82.1292
82.2589
82.2542
82.2449
82.2313
82.2139
82.1938
82.1728
82.1531
82.1377
82.1292
82.2589
82.2542
82.2449
82.2313
82.2139
82.1939
82.1728
82.1532
82.1378
82.1293
71.7833
71.7759
71.7614
71.7398
71.712
71.6792
71.6442
71.6108
71.5842
71.5692
71.7832
71.7758
71.7613
71.7397
71.7119
71.6791
71.6441
71.6107
71.5841
71.5692
71.7831
71.7758
71.7612
71.7397
71.7118
71.679
71.644
71.6107
71.584
71.5691
71.7831
71.7757
71.7612
71.7396
71.7117
71.679
71.644
71.6106
71.584
71.5691
71.783
71.7757
71.7611
71.7396
71.7117
71.679
71.6439
71.6106
71.584
71.5691
71.783
71.7757
71.7611
71.7396
71.7117
71.679
71.6439
71.6106
71.584
71.5691
71.783
71.7757
71.7611
71.7396
71.7117
71.679
71.644
71.6106
71.584
71.5691
71.7831
71.7757
71.7612
71.7396
71.7118
71.679
71.644
71.6107
71.584
71.5691
71.7831
71.7758
71.7612
71.7397
71.7118
71.6791
71.6441
71.6107
71.5841
71.5692
71.7832
71.7758
71.7613
71.7398
71.7119
71.6792
71.6441
71.6108
71.5842
71.5693
61.8925
61.8819
61.8606
61.8286
61.7865
61.7359
61.6803
61.626
61.5813
61.5557
61.8924
61.8818
61.8605
61.8285
61.7864
61.7358
61.6802
61.6259
61.5812
61.5556
61.8923
61.8817
61.8604
61.8284
61.7863
61.7357
61.6802
61.6258
61.5811
61.5555
61.8923
61.8816
61.8603
61.8284
61.7863
61.7357
61.6801
61.6257
61.5811
61.5555
61.8923
61.8816
61.8603
61.8283
61.7862
61.7356
61.6801
61.6257
61.5811
61.5555
61.8923
61.8816
61.8603
61.8283
61.7862
61.7356
61.6801
61.6257
61.5811
61.5555
61.8923
61.8816
61.8603
61.8284
61.7863
61.7357
61.6801
61.6258
61.5811
61.5555
61.8923
61.8817
61.8604
61.8284
61.7863
61.7357
61.6802
61.6258
61.5811
61.5556
61.8924
61.8817
61.8604
61.8285
61.7864
61.7358
61.6802
61.6259
61.5812
61.5556
61.8924
61.8818
61.8605
61.8286
61.7865
61.7359
61.6803
61.626
61.5813
61.5557
52.7063
52.6915
52.6617
52.6163
52.555
52.4794
52.3935
52.3061
52.2314
52.187
52.7062
52.6914
52.6616
52.6162
52.5549
52.4793
52.3934
52.306
52.2313
52.1869
52.7061
52.6913
52.6615
52.6161
52.5548
52.4792
52.3933
52.3059
52.2312
52.1868
52.706
52.6913
52.6615
52.616
52.5548
52.4791
52.3932
52.3059
52.2312
52.1868
52.706
52.6912
52.6614
52.616
52.5548
52.4791
52.3932
52.3059
52.2311
52.1868
52.706
52.6912
52.6614
52.616
52.5548
52.4791
52.3932
52.3059
52.2311
52.1868
52.706
52.6913
52.6615
52.616
52.5548
52.4791
52.3933
52.3059
52.2312
52.1868
52.7061
52.6913
52.6615
52.6161
52.5548
52.4792
52.3933
52.3059
52.2312
52.1869
52.7061
52.6914
52.6616
52.6161
52.5549
52.4793
52.3934
52.306
52.2313
52.1869
52.7062
52.6915
52.6617
52.6162
52.555
52.4794
52.3935
52.3061
52.2314
52.187
44.3138
44.2941
44.254
44.1918
44.1057
43.9958
43.8656
43.7262
43.5998
43.5203
44.3136
44.294
44.2539
44.1916
44.1056
43.9957
43.8655
43.7261
43.5997
43.5202
44.3135
44.2939
44.2538
44.1915
44.1055
43.9956
43.8654
43.726
43.5996
43.5201
44.3135
44.2938
44.2537
44.1915
44.1055
43.9955
43.8654
43.726
43.5996
43.5201
44.3134
44.2938
44.2537
44.1915
44.1054
43.9955
43.8653
43.7259
43.5996
43.52
44.3134
44.2938
44.2537
44.1915
44.1055
43.9955
43.8653
43.7259
43.5996
43.5201
44.3135
44.2938
44.2537
44.1915
44.1055
43.9956
43.8654
43.726
43.5996
43.5201
44.3135
44.2939
44.2538
44.1915
44.1055
43.9956
43.8654
43.726
43.5997
43.5202
44.3136
44.294
44.2539
44.1916
44.1056
43.9957
43.8655
43.7261
43.5998
43.5202
44.3137
44.2941
44.254
44.1918
44.1057
43.9958
43.8656
43.7262
43.5999
43.5204
36.7721
36.747
36.6953
36.6134
36.4971
36.3426
36.1499
35.9293
35.7118
35.561
36.7719
36.7469
36.6952
36.6133
36.497
36.3425
36.1498
35.9292
35.7117
35.5609
36.7718
36.7468
36.6951
36.6132
36.4969
36.3424
36.1497
35.9291
35.7116
35.5608
36.7718
36.7467
36.695
36.6131
36.4968
36.3423
36.1497
35.9291
35.7116
35.5608
36.7718
36.7467
36.695
36.6131
36.4968
36.3423
36.1497
35.9291
35.7115
35.5608
36.7717
36.7467
36.695
36.6131
36.4968
36.3423
36.1497
35.9291
35.7116
35.5608
36.7718
36.7467
36.695
36.6132
36.4968
36.3423
36.1497
35.9291
35.7116
35.5608
36.7718
36.7468
36.6951
36.6132
36.4969
36.3424
36.1498
35.9292
35.7117
35.5609
36.7719
36.7469
36.6952
36.6133
36.497
36.3425
36.1499
35.9293
35.7118
35.561
36.772
36.747
36.6953
36.6134
36.4971
36.3426
36.15
35.9294
35.7119
35.5611
30.1069
30.0764
30.0127
29.9101
29.76
29.5523
29.2776
28.9352
28.5545
28.2431
30.1067
30.0763
30.0126
29.91
29.7599
29.5522
29.2775
28.9351
28.5544
28.243
30.1067
30.0762
30.0125
29.9099
29.7598
29.5521
29.2774
28.935
28.5543
28.243
30.1066
30.0761
30.0125
29.9098
29.7598
29.5521
29.2773
28.935
28.5542
28.2429
30.1066
30.0761
30.0124
29.9098
29.7598
29.5521
29.2773
28.9349
28.5542
28.2429
30.1066
30.0761
30.0124
29.9098
29.7598
29.5521
29.2773
28.9349
28.5542
28.2429
30.1066
30.0761
30.0125
29.9098
29.7598
29.5521
29.2774
28.935
28.5543
28.2429
30.1066
30.0762
30.0125
29.9099
29.7599
29.5522
29.2774
28.935
28.5543
28.243
30.1067
30.0763
30.0126
29.91
29.76
29.5523
29.2775
28.9351
28.5544
28.2431
30.1068
30.0764
30.0127
29.9101
29.7601
29.5524
29.2776
28.9353
28.5546
28.2432
24.3144
24.2793
24.2051
24.0835
23.9013
23.6391
23.2706
22.764
22.1
21.3773
24.3143
24.2791
24.205
24.0834
23.9012
23.639
23.2705
22.7639
22.0999
21.3772
24.3142
24.2791
24.2049
24.0833
23.9011
23.6389
23.2704
22.7638
22.0998
21.3772
24.3142
24.279
24.2048
24.0833
23.9011
23.6388
23.2703
22.7638
22.0998
21.3771
24.3142
24.279
24.2048
24.0833
23.901
23.6388
23.2703
22.7637
22.0998
21.3771
24.3142
24.279
24.2048
24.0833
23.901
23.6388
23.2703
22.7638
22.0998
21.3771
24.3142
24.279
24.2048
24.0833
23.9011
23.6389
23.2704
22.7638
22.0998
21.3772
24.3142
24.2791
24.2049
24.0834
23.9011
23.6389
23.2704
22.7639
22.0999
21.3772
24.3143
24.2792
24.205
24.0834
23.9012
23.639
23.2705
22.7639
22.1
21.3773
24.3144
24.2793
24.2051
24.0836
23.9014
23.6391
23.2706
22.7641
22.1001
21.3774
19.3652
19.3268
19.2455
19.1108
18.9056
18.6025
18.1568
17.4881
16.4237
14.4918
19.3651
19.3267
19.2454
19.1107
18.9055
18.6024
18.1567
17.488
16.4236
14.4917
19.365
19.3266
19.2453
19.1106
18.9055
18.6024
18.1567
17.488
16.4235
14.4917
19.3649
19.3266
19.2452
19.1106
18.9054
18.6023
18.1566
17.4879
16.4235
14.4917
19.3649
19.3266
19.2452
19.1106
18.9054
18.6023
18.1566
17.4879
16.4235
14.4916
19.3649
19.3266
19.2452
19.1106
18.9054
18.6023
18.1566
17.4879
16.4235
14.4917
19.3649
19.3266
19.2452
19.1106
18.9054
18.6023
18.1566
17.4879
16.4235
14.4917
19.365
19.3267
19.2453
19.1107
18.9055
18.6024
18.1567
17.488
16.4236
14.4917
19.3651
19.3267
19.2454
19.1107
18.9056
18.6025
18.1568
17.4881
16.4236
14.4918
19.3651
19.3268
19.2455
19.1109
18.9057
18.6026
18.1569
17.4882
16.4237
14.4919
15.208
15.1686
15.085
14.9463
14.7344
14.4209
13.9609
13.2816
12.262
10.7168
15.2079
15.1685
15.0849
14.9462
14.7343
14.4208
13.9608
13.2815
12.2619
10.7167
15.2078
15.1685
15.0848
14.9461
14.7342
14.4208
13.9608
13.2814
12.2619
10.7167
15.2078
15.1684
15.0848
14.9461
14.7342
14.4207
13.9607
13.2814
12.2618
10.7167
15.2078
15.1684
15.0848
14.946
14.7342
14.4207
13.9607
13.2814
12.2618
10.7166
15.2078
15.1684
15.0848
14.9461
14.7342
14.4207
13.9607
13.2814
12.2618
10.7167
15.2078
15.1684
15.0848
14.9461
14.7342
14.4208
13.9608
13.2814
12.2619
10.7167
15.2079
15.1685
15.0848
14.9461
14.7343
14.4208
13.9608
13.2815
12.2619
10.7167
15.2079
15.1686
15.0849
14.9462
14.7344
14.4209
13.9609
13.2816
12.262
10.7168
15.208
15.1687
15.085
14.9463
14.7345
14.421
13.961
13.2817
12.2621
10.7169
11.7755
11.7374
11.6567
11.5235
11.3219
11.0281
10.6085
10.0173
9.2015
8.12853
11.7754
11.7373
11.6566
11.5234
11.3218
11.0281
10.6084
10.0173
9.20144
8.12847
11.7754
11.7373
11.6566
11.5234
11.3218
11.028
10.6083
10.0172
9.20139
8.12842
11.7753
11.7373
11.6565
11.5233
11.3217
11.028
10.6083
10.0172
9.20136
8.12839
11.7753
11.7372
11.6565
11.5233
11.3217
11.028
10.6083
10.0172
9.20135
8.12838
11.7753
11.7372
11.6565
11.5233
11.3217
11.028
10.6083
10.0172
9.20136
8.12839
11.7754
11.7373
11.6565
11.5233
11.3218
11.028
10.6083
10.0172
9.20139
8.12842
11.7754
11.7373
11.6566
11.5234
11.3218
11.0281
10.6084
10.0173
9.20143
8.12846
11.7755
11.7374
11.6567
11.5235
11.3219
11.0281
10.6084
10.0173
9.2015
8.12852
11.7755
11.7375
11.6567
11.5236
11.322
11.0282
10.6085
10.0174
9.20158
8.1286
8.98941
8.95456
8.88107
8.76102
8.58213
8.32751
7.97622
7.5062
6.90363
6.186
8.98934
8.95448
8.881
8.76095
8.58207
8.32745
7.97616
7.50614
6.90357
6.18594
8.98929
8.95443
8.88095
8.76091
8.58202
8.3274
7.97611
7.5061
6.90353
6.1859
8.98926
8.9544
8.88091
8.76088
8.58199
8.32738
7.97609
7.50607
6.90351
6.18588
8.98925
8.95439
8.8809
8.76086
8.58198
8.32737
7.97608
7.50606
6.9035
6.18587
8.98925
8.95439
8.88091
8.76087
8.58199
8.32737
7.97609
7.50607
6.90351
6.18588
8.98927
8.95442
8.88093
8.7609
8.58201
8.3274
7.97611
7.5061
6.90353
6.1859
8.98931
8.95446
8.88098
8.76094
8.58206
8.32744
7.97616
7.50614
6.90357
6.18594
8.98936
8.95452
8.88104
8.761
8.58212
8.32751
7.97622
7.5062
6.90363
6.18599
8.98943
8.95459
8.88112
8.76109
8.5822
8.32759
7.97629
7.50627
6.9037
6.18606
6.76596
6.73564
6.67217
6.56978
6.42001
6.21237
5.93598
5.5834
5.15825
4.68786
6.7659
6.73558
6.67211
6.56972
6.41996
6.21232
5.93593
5.58335
5.1582
4.68781
6.76586
6.73554
6.67207
6.56968
6.41992
6.21228
5.9359
5.58332
5.15816
4.68777
6.76583
6.73551
6.67204
6.56965
6.41989
6.21226
5.93587
5.5833
5.15814
4.68775
6.76582
6.7355
6.67203
6.56964
6.41988
6.21225
5.93587
5.58329
5.15814
4.68775
6.76582
6.7355
6.67204
6.56965
6.41989
6.21226
5.93587
5.5833
5.15814
4.68775
6.76584
6.73553
6.67206
6.56967
6.41991
6.21228
5.9359
5.58332
5.15816
4.68777
6.76588
6.73556
6.6721
6.56971
6.41995
6.21232
5.93593
5.58335
5.1582
4.68781
6.76592
6.73561
6.67215
6.56977
6.42001
6.21237
5.93599
5.58341
5.15825
4.68785
6.76598
6.73568
6.67222
6.56984
6.42008
6.21244
5.93605
5.58347
5.15831
4.68791
5.02098
4.99579
4.94347
4.86022
4.74085
4.57972
4.37259
4.11975
3.83083
3.53079
5.02093
4.99574
4.94343
4.86018
4.7408
4.57968
4.37255
4.11971
3.83079
3.53075
5.0209
4.9957
4.94339
4.86014
4.74077
4.57964
4.37252
4.11968
3.83077
3.53072
5.02088
4.99568
4.94337
4.86012
4.74075
4.57963
4.3725
4.11966
3.83075
3.53071
5.02087
4.99568
4.94336
4.86012
4.74074
4.57962
4.3725
4.11966
3.83074
3.5307
5.02087
4.99568
4.94337
4.86012
4.74075
4.57963
4.3725
4.11966
3.83075
3.53071
5.02089
4.9957
4.94339
4.86014
4.74077
4.57965
4.37252
4.11968
3.83077
3.53072
5.02092
4.99573
4.94342
4.86017
4.7408
4.57968
4.37255
4.11971
3.8308
3.53075
5.02096
4.99577
4.94346
4.86022
4.74085
4.57972
4.3726
4.11975
3.83084
3.53079
5.021
4.99583
4.94352
4.86028
4.74091
4.57978
4.37266
4.11981
3.83089
3.53084
3.67392
3.65384
3.61248
3.5476
3.45645
3.33672
3.18815
3.01473
2.8275
2.64678
3.67388
3.6538
3.61244
3.54756
3.45641
3.33669
3.18812
3.0147
2.82747
2.64674
3.67385
3.65377
3.61242
3.54754
3.45638
3.33666
3.18809
3.01467
2.82745
2.64672
3.67384
3.65375
3.6124
3.54752
3.45637
3.33665
3.18808
3.01466
2.82743
2.6467
3.67383
3.65375
3.61239
3.54752
3.45636
3.33664
3.18807
3.01466
2.82743
2.6467
3.67383
3.65375
3.6124
3.54752
3.45637
3.33665
3.18808
3.01466
2.82743
2.64671
3.67385
3.65377
3.61241
3.54754
3.45639
3.33667
3.1881
3.01468
2.82745
2.64672
3.67387
3.65379
3.61244
3.54756
3.45641
3.33669
3.18812
3.0147
2.82747
2.64674
3.6739
3.65383
3.61248
3.5476
3.45645
3.33673
3.18816
3.01474
2.82751
2.64678
3.67394
3.65387
3.61253
3.54765
3.4565
3.33678
3.18821
3.01478
2.82755
2.64682
2.65079
2.63537
2.6039
2.55524
2.4883
2.40291
2.30105
2.18856
2.07692
1.9837
2.65076
2.63534
2.60387
2.55521
2.48827
2.40288
2.30102
2.18854
2.0769
1.98367
2.65074
2.63532
2.60385
2.55519
2.48825
2.40286
2.301
2.18852
2.07688
1.98365
2.65073
2.63531
2.60383
2.55517
2.48824
2.40285
2.30099
2.18851
2.07687
1.98364
2.65072
2.6353
2.60383
2.55517
2.48824
2.40285
2.30098
2.1885
2.07686
1.98364
2.65073
2.63531
2.60383
2.55517
2.48824
2.40285
2.30099
2.18851
2.07687
1.98364
2.65074
2.63532
2.60385
2.55519
2.48826
2.40287
2.301
2.18852
2.07688
1.98365
2.65076
2.63534
2.60387
2.55521
2.48828
2.40289
2.30102
2.18854
2.0769
1.98367
2.65079
2.63537
2.6039
2.55524
2.48831
2.40292
2.30105
2.18857
2.07693
1.9837
2.65082
2.63541
2.60394
2.55528
2.48835
2.40296
2.30109
2.18861
2.07697
1.98374
1.88604
1.8746
1.85146
1.81621
1.76881
1.71026
1.64373
1.57614
1.52019
1.49616
1.88602
1.87458
1.85143
1.81619
1.76879
1.71024
1.64371
1.57612
1.52017
1.49614
1.886
1.87456
1.85142
1.81617
1.76877
1.71022
1.6437
1.5761
1.52015
1.49612
1.88599
1.87455
1.85141
1.81616
1.76876
1.71021
1.64369
1.5761
1.52015
1.49611
1.88599
1.87455
1.8514
1.81616
1.76876
1.71021
1.64368
1.57609
1.52014
1.49611
1.88599
1.87455
1.85141
1.81616
1.76876
1.71021
1.64369
1.5761
1.52015
1.49612
1.886
1.87456
1.85142
1.81618
1.76878
1.71023
1.6437
1.57611
1.52016
1.49613
1.88601
1.87458
1.85144
1.81619
1.76879
1.71024
1.64372
1.57613
1.52018
1.49614
1.88604
1.8746
1.85146
1.81622
1.76882
1.71027
1.64374
1.57615
1.5202
1.49617
1.88606
1.87463
1.85149
1.81625
1.76885
1.7103
1.64377
1.57618
1.52023
1.4962
1.32336
1.31513
1.29864
1.27389
1.24137
1.20255
1.16085
1.12317
1.1032
1.13142
1.32334
1.31511
1.29862
1.27388
1.24135
1.20253
1.16083
1.12315
1.10319
1.13141
1.32332
1.3151
1.29861
1.27386
1.24134
1.20252
1.16082
1.12314
1.10317
1.13139
1.32332
1.31509
1.2986
1.27386
1.24134
1.20252
1.16082
1.12313
1.10317
1.13139
1.32331
1.31509
1.2986
1.27386
1.24133
1.20251
1.16082
1.12313
1.10317
1.13139
1.32332
1.31509
1.2986
1.27386
1.24134
1.20252
1.16082
1.12314
1.10317
1.13139
1.32332
1.3151
1.29861
1.27387
1.24135
1.20253
1.16083
1.12315
1.10318
1.1314
1.32334
1.31511
1.29862
1.27388
1.24136
1.20254
1.16084
1.12316
1.10319
1.13141
1.32335
1.31513
1.29864
1.2739
1.24138
1.20256
1.16086
1.12318
1.10321
1.13143
1.32337
1.31516
1.29866
1.27393
1.2414
1.20258
1.16088
1.1232
1.10323
1.13146
10.0601
7.70222
6.60478
6.47406
7.24892
9.01838
12.0178
16.6825
23.7985
34.9035
10.06
7.70215
6.60471
6.47398
7.24883
9.01827
12.0176
16.6823
23.7983
34.9032
10.0599
7.7021
6.60465
6.47392
7.24876
9.01818
12.0175
16.6822
23.7982
34.903
10.0599
7.70206
6.60462
6.47388
7.24871
9.01813
12.0175
16.6821
23.7981
34.9029
10.0599
7.70205
6.6046
6.47386
7.24869
9.0181
12.0174
16.6821
23.798
34.9028
10.0599
7.70205
6.6046
6.47386
7.24868
9.01809
12.0174
16.6821
23.798
34.9028
10.0599
7.70207
6.60462
6.47388
7.2487
9.01812
12.0175
16.6821
23.7981
34.9029
10.06
7.70211
6.60466
6.47391
7.24874
9.01816
12.0175
16.6822
23.7981
34.903
10.06
7.70216
6.60471
6.47396
7.24879
9.01822
12.0176
16.6823
23.7982
34.9031
10.0601
7.70222
6.60476
6.47402
7.24885
9.01829
12.0177
16.6824
23.7984
34.9033
8.52871
6.95449
6.15294
6.1175
6.87143
8.5107
11.2211
15.293
21.1205
29.0815
8.52864
6.95442
6.15286
6.11742
6.87134
8.5106
11.2209
15.2928
21.1203
29.0813
8.52859
6.95437
6.15281
6.11737
6.87127
8.51051
11.2208
15.2927
21.1202
29.0811
8.52856
6.95434
6.15278
6.11733
6.87122
8.51046
11.2208
15.2926
21.1201
29.081
8.52855
6.95433
6.15276
6.11731
6.8712
8.51043
11.2207
15.2926
21.12
29.081
8.52856
6.95433
6.15276
6.11731
6.8712
8.51043
11.2207
15.2926
21.12
29.081
8.52858
6.95436
6.15278
6.11733
6.87122
8.51045
11.2207
15.2926
21.1201
29.081
8.52862
6.95439
6.15282
6.11736
6.87126
8.5105
11.2208
15.2927
21.1202
29.0811
8.52868
6.95445
6.15287
6.11742
6.87131
8.51056
11.2209
15.2928
21.1203
29.0813
8.52876
6.95452
6.15294
6.11749
6.87139
8.51065
11.221
15.2929
21.1204
29.0815
6.89122
5.9237
5.43111
5.50251
6.20554
7.62924
9.89779
13.1611
17.5438
22.9936
6.89116
5.92363
5.43104
5.50244
6.20545
7.62914
9.89767
13.161
17.5436
22.9934
6.89111
5.92359
5.43099
5.50238
6.20539
7.62906
9.89758
13.1609
17.5435
22.9933
6.89109
5.92356
5.43096
5.50235
6.20535
7.62902
9.89752
13.1608
17.5434
22.9932
6.89108
5.92355
5.43095
5.50233
6.20533
7.62899
9.89749
13.1608
17.5433
22.9931
6.89108
5.92355
5.43095
5.50233
6.20533
7.62899
9.89749
13.1608
17.5433
22.9931
6.8911
5.92357
5.43097
5.50235
6.20535
7.62901
9.89751
13.1608
17.5434
22.9932
6.89114
5.92361
5.43101
5.50239
6.20539
7.62906
9.89756
13.1609
17.5435
22.9933
6.8912
5.92366
5.43106
5.50244
6.20544
7.62912
9.89764
13.1609
17.5436
22.9934
6.89127
5.92373
5.43113
5.50251
6.20552
7.62921
9.89775
13.1611
17.5437
22.9936
5.44418
4.86979
4.6081
4.75353
5.37862
6.55439
8.35471
10.8409
14.0173
17.7472
5.44412
4.86974
4.60804
4.75347
5.37854
6.5543
8.3546
10.8407
14.0171
17.747
5.44408
4.8697
4.60799
4.75342
5.37849
6.55423
8.35453
10.8406
14.017
17.7469
5.44406
4.86967
4.60797
4.75339
5.37845
6.55419
8.35447
10.8406
14.017
17.7468
5.44405
4.86966
4.60795
4.75337
5.37843
6.55417
8.35445
10.8405
14.0169
17.7467
5.44406
4.86967
4.60796
4.75337
5.37843
6.55417
8.35445
10.8405
14.0169
17.7468
5.44408
4.86969
4.60798
4.75339
5.37845
6.55419
8.35447
10.8406
14.017
17.7468
5.44411
4.86972
4.60801
4.75343
5.37849
6.55423
8.35452
10.8406
14.017
17.7469
5.44416
4.86977
4.60806
4.75348
5.37855
6.5543
8.3546
10.8407
14.0171
17.747
5.44423
4.86983
4.60812
4.75354
5.37862
6.55438
8.3547
10.8408
14.0173
17.7472
4.23759
3.90942
3.79823
3.97897
4.51158
5.44678
6.82444
8.66063
10.921
13.4846
4.23755
3.90937
3.79818
3.97891
4.51151
5.4467
6.82435
8.66052
10.9209
13.4845
4.23751
3.90934
3.79814
3.97887
4.51146
5.44664
6.82428
8.66044
10.9208
13.4844
4.23749
3.90932
3.79812
3.97884
4.51143
5.4466
6.82424
8.66039
10.9208
13.4843
4.23748
3.90931
3.79811
3.97883
4.51141
5.44658
6.82422
8.66037
10.9207
13.4843
4.23749
3.90931
3.79811
3.97883
4.51142
5.44659
6.82422
8.66037
10.9207
13.4843
4.23751
3.90933
3.79813
3.97885
4.51144
5.44661
6.82424
8.6604
10.9208
13.4843
4.23754
3.90936
3.79816
3.97888
4.51147
5.44665
6.82429
8.66045
10.9208
13.4844
4.23758
3.9094
3.7982
3.97892
4.51152
5.4467
6.82435
8.66053
10.9209
13.4845
4.23764
3.90946
3.79826
3.97899
4.51159
5.44678
6.82445
8.66064
10.9211
13.4847
3.2639
3.08994
3.07005
3.25793
3.69754
4.42229
5.45123
6.78037
8.36945
10.1298
3.26385
3.08989
3.07
3.25788
3.69748
4.42222
5.45115
6.78028
8.36935
10.1297
3.26383
3.08986
3.06997
3.25784
3.69744
4.42217
5.4511
6.78022
8.36927
10.1296
3.26381
3.08985
3.06995
3.25782
3.69741
4.42214
5.45106
6.78017
8.36922
10.1295
3.2638
3.08984
3.06994
3.25781
3.6974
4.42212
5.45104
6.78015
8.3692
10.1295
3.26381
3.08984
3.06995
3.25781
3.6974
4.42213
5.45104
6.78016
8.3692
10.1295
3.26382
3.08986
3.06996
3.25782
3.69742
4.42214
5.45107
6.78018
8.36923
10.1295
3.26385
3.08989
3.06999
3.25785
3.69745
4.42218
5.45111
6.78023
8.36929
10.1296
3.26389
3.08992
3.07003
3.2579
3.6975
4.42223
5.45117
6.7803
8.36937
10.1297
3.26394
3.08997
3.07008
3.25795
3.69756
4.4223
5.45125
6.7804
8.36948
10.1298
2.50184
2.4271
2.46137
2.64174
2.9988
3.55325
4.31183
5.262
6.36656
7.5627
2.5018
2.42707
2.46133
2.64169
2.99875
3.55319
4.31177
5.26192
6.36647
7.5626
2.50178
2.42704
2.4613
2.64166
2.99871
3.55315
4.31172
5.26187
6.36641
7.56253
2.50176
2.42702
2.46129
2.64164
2.99869
3.55312
4.31169
5.26183
6.36637
7.56249
2.50176
2.42702
2.46128
2.64163
2.99868
3.55311
4.31167
5.26182
6.36635
7.56247
2.50176
2.42702
2.46128
2.64163
2.99868
3.55312
4.31168
5.26182
6.36636
7.56247
2.50178
2.42704
2.4613
2.64165
2.9987
3.55313
4.3117
5.26184
6.36638
7.5625
2.5018
2.42706
2.46132
2.64167
2.99873
3.55317
4.31173
5.26189
6.36643
7.56256
2.50184
2.42709
2.46136
2.64171
2.99877
3.55321
4.31179
5.26195
6.3665
7.56264
2.50188
2.42714
2.4614
2.64176
2.99882
3.55327
4.31186
5.26203
6.3666
7.56275
1.92873
1.92324
1.9916
2.16076
2.45269
2.8798
3.44129
4.11964
4.87879
5.66854
1.9287
1.92321
1.99157
2.16072
2.45264
2.87975
3.44124
4.11958
4.87872
5.66846
1.92868
1.92319
1.99154
2.16069
2.45261
2.87971
3.4412
4.11953
4.87867
5.6684
1.92866
1.92318
1.99153
2.16068
2.45259
2.87969
3.44117
4.1195
4.87864
5.66837
1.92866
1.92317
1.99152
2.16067
2.45258
2.87968
3.44116
4.11949
4.87862
5.66835
1.92866
1.92317
1.99152
2.16067
2.45259
2.87968
3.44116
4.11949
4.87863
5.66836
1.92868
1.92319
1.99154
2.16069
2.4526
2.8797
3.44118
4.11951
4.87865
5.66839
1.9287
1.92321
1.99156
2.16071
2.45263
2.87973
3.44121
4.11955
4.87869
5.66843
1.92872
1.92324
1.99159
2.16074
2.45266
2.87977
3.44126
4.11961
4.87876
5.6685
1.92876
1.92327
1.99163
2.16079
2.45271
2.87982
3.44132
4.11968
4.87884
5.66859
1.52666
1.57778
1.67094
1.832
2.07979
2.42237
2.854
3.35193
3.87386
4.36074
1.52663
1.57775
1.67091
1.83196
2.07976
2.42233
2.85395
3.35188
3.8738
4.36067
1.52662
1.57774
1.67089
1.83194
2.07973
2.4223
2.85392
3.35184
3.87376
4.36063
1.52661
1.57773
1.67088
1.83193
2.07971
2.42228
2.85389
3.35182
3.87373
4.3606
1.5266
1.57772
1.67088
1.83192
2.07971
2.42227
2.85389
3.35181
3.87372
4.36059
1.52661
1.57772
1.67088
1.83192
2.07971
2.42227
2.85389
3.35181
3.87372
4.3606
1.52662
1.57774
1.67089
1.83194
2.07972
2.42229
2.85391
3.35183
3.87375
4.36062
1.52664
1.57775
1.67091
1.83196
2.07975
2.42232
2.85394
3.35186
3.87378
4.36066
1.52666
1.57778
1.67094
1.83199
2.07978
2.42235
2.85398
3.35191
3.87384
4.36072
1.52669
1.57781
1.67097
1.83203
2.07982
2.4224
2.85403
3.35197
3.87391
4.3608
1.29434
1.39604
1.50698
1.66505
1.89091
2.19124
2.55749
2.9618
3.34887
3.61774
1.29433
1.39602
1.50696
1.66503
1.89088
2.1912
2.55745
2.96176
3.34882
3.6177
1.29431
1.39601
1.50694
1.66501
1.89086
2.19118
2.55742
2.96173
3.34879
3.61766
1.2943
1.396
1.50693
1.66499
1.89084
2.19116
2.5574
2.96171
3.34876
3.61763
1.2943
1.39599
1.50692
1.66499
1.89084
2.19115
2.5574
2.9617
3.34876
3.61763
1.2943
1.396
1.50693
1.66499
1.89084
2.19116
2.5574
2.9617
3.34876
3.61763
1.29431
1.39601
1.50694
1.665
1.89085
2.19117
2.55742
2.96172
3.34878
3.61765
1.29433
1.39602
1.50696
1.66502
1.89088
2.1912
2.55745
2.96175
3.34882
3.61769
1.29435
1.39605
1.50698
1.66505
1.89091
2.19123
2.55749
2.9618
3.34886
3.61774
1.29438
1.39608
1.50701
1.66509
1.89095
2.19128
2.55754
2.96186
3.34893
3.61781
53.4645
61.6109
66.1037
68.914
70.774
72.0291
72.8724
73.4223
73.7528
73.908
53.4641
61.6105
66.1032
68.9135
70.7736
72.0287
72.872
73.4218
73.7524
73.9076
53.4639
61.6103
66.103
68.9132
70.7733
72.0284
72.8717
73.4216
73.7522
73.9074
53.4638
61.6101
66.1028
68.9131
70.7731
72.0282
72.8715
73.4214
73.752
73.9072
53.4637
61.61
66.1027
68.913
70.7731
72.0282
72.8715
73.4213
73.7519
73.9072
53.4637
61.61
66.1027
68.913
70.7731
72.0282
72.8715
73.4214
73.752
73.9072
53.4638
61.6101
66.1028
68.9131
70.7732
72.0283
72.8716
73.4215
73.7521
73.9074
53.4639
61.6103
66.103
68.9133
70.7734
72.0285
72.8719
73.4218
73.7524
73.9076
53.4641
61.6105
66.1033
68.9136
70.7737
72.0288
72.8722
73.4221
73.7527
73.908
53.4643
61.6108
66.1036
68.9139
70.774
72.0292
72.8725
73.4225
73.7531
73.9083
38.8071
45.5403
49.9339
52.8313
54.7729
56.083
56.9603
57.5304
57.8722
58.0323
38.8068
45.54
49.9336
52.831
54.7726
56.0826
56.96
57.5301
57.8718
58.032
38.8066
45.5398
49.9334
52.8307
54.7723
56.0823
56.9597
57.5298
57.8716
58.0318
38.8065
45.5397
49.9332
52.8306
54.7722
56.0822
56.9596
57.5297
57.8715
58.0317
38.8064
45.5396
49.9332
52.8305
54.7721
56.0821
56.9595
57.5296
57.8714
58.0317
38.8064
45.5396
49.9332
52.8305
54.7721
56.0822
56.9595
57.5296
57.8715
58.0317
38.8065
45.5397
49.9332
52.8306
54.7722
56.0823
56.9596
57.5298
57.8716
58.0318
38.8066
45.5398
49.9334
52.8308
54.7724
56.0825
56.9599
57.53
57.8718
58.0321
38.8068
45.54
49.9337
52.831
54.7727
56.0828
56.9601
57.5303
57.8721
58.0324
38.807
45.5403
49.934
52.8314
54.773
56.0831
56.9605
57.5307
57.8725
58.0328
28.9298
33.8182
37.4352
40.006
41.8029
43.044
43.8862
44.4375
44.7694
44.9252
28.9296
33.818
37.4349
40.0057
41.8026
43.0437
43.8858
44.4372
44.7691
44.925
28.9294
33.8178
37.4347
40.0055
41.8024
43.0435
43.8856
44.437
44.7689
44.9248
28.9293
33.8177
37.4346
40.0054
41.8022
43.0433
43.8855
44.4368
44.7688
44.9247
28.9292
33.8176
37.4345
40.0053
41.8022
43.0433
43.8854
44.4368
44.7687
44.9247
28.9292
33.8176
37.4345
40.0053
41.8022
43.0433
43.8855
44.4368
44.7688
44.9247
28.9293
33.8177
37.4346
40.0054
41.8023
43.0434
43.8856
44.4369
44.7689
44.9248
28.9294
33.8178
37.4348
40.0056
41.8025
43.0436
43.8858
44.4371
44.7691
44.925
28.9296
33.818
37.435
40.0058
41.8027
43.0438
43.886
44.4374
44.7694
44.9253
28.9298
33.8183
37.4353
40.0061
41.803
43.0442
43.8864
44.4378
44.7697
44.9257
21.6444
25.0999
27.8687
29.9634
31.494
32.5838
33.3388
33.8398
34.144
34.2875
21.6442
25.0997
27.8685
29.9631
31.4937
32.5836
33.3385
33.8395
34.1437
34.2873
21.644
25.0995
27.8683
29.963
31.4935
32.5834
33.3383
33.8393
34.1436
34.2872
21.6439
25.0994
27.8682
29.9628
31.4934
32.5833
33.3382
33.8392
34.1435
34.2871
21.6439
25.0994
27.8681
29.9628
31.4934
32.5832
33.3382
33.8392
34.1434
34.2871
21.6439
25.0994
27.8682
29.9628
31.4934
32.5833
33.3382
33.8392
34.1435
34.2871
21.644
25.0995
27.8682
29.9629
31.4935
32.5834
33.3383
33.8393
34.1436
34.2872
21.6441
25.0996
27.8684
29.963
31.4936
32.5835
33.3385
33.8395
34.1438
34.2874
21.6442
25.0998
27.8685
29.9632
31.4939
32.5838
33.3387
33.8397
34.144
34.2877
21.6444
25.1
27.8688
29.9635
31.4942
32.5841
33.339
33.8401
34.1443
34.288
16.1212
18.5442
20.5857
22.2049
23.4351
24.3379
24.9774
25.4089
25.6737
25.7995
16.1211
18.544
20.5855
22.2047
23.4349
24.3376
24.9772
25.4086
25.6735
25.7993
16.121
18.5439
20.5854
22.2046
23.4347
24.3375
24.9771
25.4085
25.6734
25.7992
16.1209
18.5438
20.5853
22.2045
23.4346
24.3374
24.977
25.4084
25.6733
25.7991
16.1209
18.5438
20.5853
22.2045
23.4346
24.3374
24.977
25.4084
25.6733
25.7991
16.1209
18.5438
20.5853
22.2045
23.4346
24.3374
24.977
25.4084
25.6733
25.7991
16.1209
18.5439
20.5854
22.2046
23.4347
24.3375
24.9771
25.4085
25.6734
25.7992
16.121
18.544
20.5855
22.2047
23.4348
24.3376
24.9772
25.4087
25.6736
25.7994
16.1211
18.5441
20.5856
22.2049
23.435
24.3378
24.9774
25.4089
25.6738
25.7996
16.1213
18.5443
20.5858
22.2051
23.4353
24.3381
24.9777
25.4091
25.6741
25.7999
11.9262
13.6098
15.0764
16.2819
17.2282
17.9421
18.4591
18.8138
19.0341
19.1394
11.926
13.6097
15.0763
16.2818
17.228
17.9419
18.4589
18.8136
19.0339
19.1393
11.9259
13.6096
15.0761
16.2816
17.2279
17.9418
18.4588
18.8135
19.0338
19.1392
11.9259
13.6095
15.0761
16.2816
17.2278
17.9417
18.4587
18.8134
19.0338
19.1392
11.9258
13.6095
15.076
16.2815
17.2278
17.9417
18.4587
18.8134
19.0337
19.1392
11.9259
13.6095
15.0761
16.2816
17.2278
17.9417
18.4587
18.8134
19.0338
19.1392
11.9259
13.6095
15.0761
16.2816
17.2279
17.9418
18.4588
18.8135
19.0339
19.1393
11.926
13.6096
15.0762
16.2817
17.228
17.9419
18.4589
18.8136
19.034
19.1394
11.9261
13.6097
15.0763
16.2819
17.2282
17.942
18.4591
18.8138
19.0342
19.1396
11.9262
13.6099
15.0765
16.2821
17.2284
17.9423
18.4593
18.814
19.0344
19.1398
8.77166
9.91928
10.9449
11.8132
12.5146
13.0573
13.4588
13.7388
13.9148
13.9995
8.77155
9.91917
10.9448
11.8131
12.5145
13.0572
13.4587
13.7386
13.9146
13.9994
8.77147
9.91908
10.9447
11.813
12.5144
13.0571
13.4586
13.7385
13.9145
13.9994
8.77143
9.91903
10.9446
11.8129
12.5143
13.057
13.4585
13.7385
13.9145
13.9993
8.77141
9.91901
10.9446
11.8129
12.5143
13.057
13.4585
13.7385
13.9145
13.9993
8.77141
9.91902
10.9446
11.8129
12.5143
13.057
13.4585
13.7385
13.9145
13.9993
8.77145
9.91906
10.9446
11.813
12.5144
13.0571
13.4586
13.7386
13.9146
13.9994
8.77151
9.91913
10.9447
11.8131
12.5145
13.0572
13.4587
13.7387
13.9147
13.9995
8.77161
9.91924
10.9448
11.8132
12.5146
13.0573
13.4588
13.7388
13.9148
13.9997
8.77173
9.91937
10.945
11.8134
12.5148
13.0575
13.459
13.739
13.915
13.9999
6.44259
7.19009
7.87953
8.48248
8.984
9.38195
9.68253
9.89561
10.0312
10.0969
6.4425
7.19
7.87943
8.48238
8.98389
9.38184
9.68242
9.8955
10.0311
10.0968
6.44244
7.18994
7.87936