/*--------------------------------*- C++ -*----------------------------------*\
  =========                 |
  \\      /  F ield         | OpenFOAM: The Open Source CFD Toolbox
   \\    /   O peration     | Website:  https://openfoam.org
    \\  /    A nd           | Version:  6
     \\/     M anipulation  |
\*---------------------------------------------------------------------------*/
FoamFile
{
    version     2.0;
    format      ascii;
    class       volScalarField;
    location    "0.96";
    object      T;
}
// * * * * * * * * * * * * * * * * * * * * * * * * * * * * * * * * * * * * * //

dimensions      [0 0 0 1 0 0 0];

internalField   nonuniform List<scalar> 
7000
(
106.733
106.732
106.731
106.728
106.725
106.722
106.719
106.716
106.714
106.713
106.733
106.732
106.731
106.728
106.725
106.722
106.719
106.716
106.714
106.713
106.733
106.732
106.731
106.728
106.725
106.722
106.719
106.716
106.714
106.713
106.733
106.732
106.731
106.728
106.725
106.722
106.719
106.716
106.714
106.713
106.733
106.732
106.731
106.728
106.725
106.722
106.719
106.716
106.714
106.713
106.733
106.732
106.731
106.728
106.725
106.722
106.719
106.716
106.714
106.713
106.733
106.732
106.731
106.728
106.725
106.722
106.719
106.716
106.714
106.713
106.733
106.732
106.731
106.728
106.725
106.722
106.719
106.716
106.714
106.713
106.733
106.732
106.731
106.728
106.725
106.722
106.719
106.716
106.714
106.713
106.733
106.732
106.731
106.728
106.725
106.722
106.719
106.716
106.714
106.713
100.218
100.216
100.21
100.203
100.194
100.184
100.175
100.166
100.159
100.156
100.218
100.216
100.21
100.203
100.194
100.184
100.175
100.166
100.159
100.156
100.218
100.216
100.21
100.203
100.194
100.184
100.175
100.166
100.159
100.156
100.218
100.216
100.21
100.203
100.194
100.184
100.175
100.166
100.159
100.156
100.218
100.216
100.21
100.203
100.194
100.184
100.175
100.166
100.159
100.156
100.218
100.216
100.21
100.203
100.194
100.184
100.175
100.166
100.159
100.156
100.218
100.216
100.21
100.203
100.194
100.184
100.175
100.166
100.159
100.156
100.218
100.216
100.21
100.203
100.194
100.184
100.175
100.166
100.159
100.156
100.218
100.216
100.21
100.203
100.194
100.184
100.175
100.166
100.159
100.156
100.218
100.216
100.21
100.203
100.194
100.184
100.175
100.166
100.159
100.156
93.7597
93.7553
93.7466
93.7344
93.7193
93.7027
93.6859
93.6708
93.6593
93.6531
93.7597
93.7552
93.7466
93.7344
93.7193
93.7026
93.6859
93.6708
93.6593
93.6531
93.7597
93.7552
93.7466
93.7344
93.7193
93.7026
93.6858
93.6708
93.6593
93.6531
93.7597
93.7552
93.7466
93.7344
93.7193
93.7026
93.6858
93.6708
93.6593
93.653
93.7597
93.7552
93.7466
93.7344
93.7193
93.7026
93.6858
93.6707
93.6593
93.653
93.7597
93.7552
93.7466
93.7344
93.7193
93.7026
93.6858
93.6707
93.6593
93.653
93.7597
93.7552
93.7466
93.7344
93.7193
93.7026
93.6858
93.6707
93.6593
93.653
93.7597
93.7552
93.7466
93.7344
93.7193
93.7026
93.6858
93.6708
93.6593
93.653
93.7597
93.7552
93.7466
93.7344
93.7193
93.7026
93.6858
93.6708
93.6593
93.6531
93.7597
93.7552
93.7466
93.7344
93.7193
93.7026
93.6859
93.6708
93.6593
93.6531
87.3943
87.3882
87.3761
87.3588
87.3374
87.3133
87.2887
87.2663
87.2489
87.2394
87.3943
87.3881
87.3761
87.3588
87.3374
87.3133
87.2887
87.2663
87.2489
87.2393
87.3943
87.3881
87.3761
87.3588
87.3374
87.3133
87.2887
87.2662
87.2489
87.2393
87.3943
87.3881
87.3761
87.3588
87.3373
87.3133
87.2887
87.2662
87.2489
87.2393
87.3943
87.3881
87.376
87.3588
87.3373
87.3133
87.2887
87.2662
87.2489
87.2393
87.3943
87.3881
87.376
87.3588
87.3373
87.3133
87.2887
87.2662
87.2489
87.2393
87.3943
87.3881
87.376
87.3588
87.3373
87.3133
87.2887
87.2662
87.2489
87.2393
87.3943
87.3881
87.3761
87.3588
87.3373
87.3133
87.2887
87.2662
87.2489
87.2393
87.3943
87.3881
87.3761
87.3588
87.3374
87.3133
87.2887
87.2662
87.2489
87.2393
87.3943
87.3881
87.3761
87.3588
87.3374
87.3133
87.2887
87.2663
87.2489
87.2394
81.158
81.1502
81.1349
81.1127
81.0848
81.0528
81.0194
80.9881
80.9631
80.9492
81.158
81.1502
81.1349
81.1127
81.0848
81.0528
81.0194
80.988
80.9631
80.9491
81.158
81.1502
81.1349
81.1127
81.0848
81.0528
81.0194
80.988
80.9631
80.9491
81.158
81.1502
81.1348
81.1127
81.0847
81.0528
81.0194
80.988
80.9631
80.9491
81.158
81.1502
81.1348
81.1127
81.0847
81.0528
81.0193
80.988
80.9631
80.9491
81.158
81.1502
81.1348
81.1127
81.0847
81.0528
81.0193
80.988
80.9631
80.9491
81.158
81.1502
81.1348
81.1127
81.0847
81.0528
81.0194
80.988
80.9631
80.9491
81.158
81.1502
81.1348
81.1127
81.0847
81.0528
81.0194
80.988
80.9631
80.9491
81.158
81.1502
81.1349
81.1127
81.0848
81.0528
81.0194
80.988
80.9631
80.9491
81.158
81.1502
81.1349
81.1127
81.0848
81.0528
81.0194
80.988
80.9631
80.9491
75.0851
75.076
75.0579
75.0314
74.9973
74.9572
74.9137
74.8712
74.8359
74.8153
75.0851
75.0759
75.0579
75.0314
74.9972
74.9571
74.9137
74.8711
74.8358
74.8153
75.0851
75.0759
75.0579
75.0313
74.9972
74.9571
74.9136
74.8711
74.8358
74.8152
75.0851
75.0759
75.0578
75.0313
74.9972
74.9571
74.9136
74.8711
74.8358
74.8152
75.085
75.0759
75.0578
75.0313
74.9972
74.9571
74.9136
74.8711
74.8358
74.8152
75.085
75.0759
75.0578
75.0313
74.9972
74.9571
74.9136
74.8711
74.8358
74.8152
75.085
75.0759
75.0578
75.0313
74.9972
74.9571
74.9136
74.8711
74.8358
74.8152
75.0851
75.0759
75.0578
75.0313
74.9972
74.9571
74.9136
74.8711
74.8358
74.8152
75.0851
75.0759
75.0579
75.0313
74.9972
74.9571
74.9136
74.8711
74.8358
74.8153
75.0851
75.0759
75.0579
75.0314
74.9973
74.9571
74.9137
74.8712
74.8359
74.8153
69.2078
69.1979
69.1782
69.1487
69.1097
69.0619
69.0074
68.9506
68.8999
68.8682
69.2078
69.1979
69.1782
69.1487
69.1096
69.0618
69.0073
68.9506
68.8999
68.8682
69.2078
69.1979
69.1781
69.1486
69.1096
69.0618
69.0073
68.9505
68.8998
68.8681
69.2078
69.1979
69.1781
69.1486
69.1096
69.0618
69.0073
68.9505
68.8998
68.8681
69.2077
69.1979
69.1781
69.1486
69.1096
69.0618
69.0073
68.9505
68.8998
68.8681
69.2077
69.1978
69.1781
69.1486
69.1096
69.0618
69.0073
68.9505
68.8998
68.8681
69.2077
69.1979
69.1781
69.1486
69.1096
69.0618
69.0073
68.9505
68.8998
68.8681
69.2078
69.1979
69.1781
69.1486
69.1096
69.0618
69.0073
68.9505
68.8998
68.8681
69.2078
69.1979
69.1781
69.1486
69.1096
69.0618
69.0073
68.9505
68.8999
68.8682
69.2078
69.1979
69.1782
69.1487
69.1096
69.0619
69.0074
68.9506
68.8999
68.8682
63.5557
63.5461
63.5266
63.4968
63.4558
63.4027
63.3374
63.2624
63.1872
63.1338
63.5557
63.546
63.5266
63.4967
63.4557
63.4026
63.3373
63.2624
63.1872
63.1338
63.5556
63.546
63.5265
63.4967
63.4557
63.4026
63.3373
63.2623
63.1872
63.1338
63.5556
63.546
63.5265
63.4967
63.4557
63.4026
63.3373
63.2623
63.1871
63.1337
63.5556
63.546
63.5265
63.4967
63.4557
63.4026
63.3373
63.2623
63.1871
63.1337
63.5556
63.546
63.5265
63.4967
63.4556
63.4026
63.3373
63.2623
63.1871
63.1337
63.5556
63.546
63.5265
63.4967
63.4557
63.4026
63.3373
63.2623
63.1871
63.1337
63.5556
63.546
63.5265
63.4967
63.4557
63.4026
63.3373
63.2623
63.1871
63.1337
63.5556
63.546
63.5265
63.4967
63.4557
63.4026
63.3373
63.2624
63.1872
63.1338
63.5556
63.546
63.5266
63.4967
63.4557
63.4027
63.3374
63.2624
63.1872
63.1338
58.1547
58.1469
58.1308
58.1052
58.0679
58.0155
57.9433
57.8472
57.7314
57.6282
58.1546
58.1468
58.1307
58.1051
58.0679
58.0155
57.9433
57.8472
57.7313
57.6282
58.1546
58.1468
58.1307
58.1051
58.0679
58.0155
57.9432
57.8472
57.7313
57.6281
58.1546
58.1468
58.1307
58.1051
58.0678
58.0154
57.9432
57.8471
57.7313
57.6281
58.1546
58.1467
58.1306
58.1051
58.0678
58.0154
57.9432
57.8471
57.7312
57.6281
58.1546
58.1467
58.1306
58.1051
58.0678
58.0154
57.9432
57.8471
57.7312
57.6281
58.1546
58.1467
58.1306
58.1051
58.0678
58.0154
57.9432
57.8471
57.7312
57.6281
58.1546
58.1468
58.1307
58.1051
58.0678
58.0155
57.9432
57.8472
57.7313
57.6281
58.1546
58.1468
58.1307
58.1051
58.0679
58.0155
57.9433
57.8472
57.7313
57.6282
58.1546
58.1468
58.1307
58.1051
58.0679
58.0155
57.9433
57.8472
57.7313
57.6282
53.0264
53.0225
53.0141
52.9996
52.9758
52.9363
52.87
52.7582
52.5782
52.3414
53.0264
53.0224
53.014
52.9995
52.9757
52.9363
52.8699
52.7581
52.5781
52.3414
53.0263
53.0224
53.014
52.9995
52.9757
52.9362
52.8699
52.7581
52.5781
52.3413
53.0263
53.0224
53.014
52.9995
52.9757
52.9362
52.8698
52.7581
52.578
52.3413
53.0263
53.0224
53.014
52.9995
52.9757
52.9362
52.8698
52.7581
52.578
52.3413
53.0263
53.0224
53.014
52.9995
52.9756
52.9362
52.8698
52.7581
52.578
52.3413
53.0263
53.0224
53.014
52.9995
52.9757
52.9362
52.8698
52.7581
52.578
52.3413
53.0263
53.0224
53.014
52.9995
52.9757
52.9362
52.8698
52.7581
52.5781
52.3413
53.0263
53.0224
53.014
52.9995
52.9757
52.9363
52.8699
52.7581
52.5781
52.3413
53.0264
53.0225
53.014
52.9996
52.9757
52.9363
52.8699
52.7582
52.5781
52.3414
48.1873
48.1897
48.1943
48.1999
48.2033
48.1976
48.167
48.0758
47.8349
47.1845
48.1873
48.1897
48.1943
48.1998
48.2033
48.1976
48.167
48.0758
47.8348
47.1844
48.1872
48.1897
48.1943
48.1998
48.2032
48.1975
48.1669
48.0757
47.8348
47.1844
48.1872
48.1896
48.1942
48.1998
48.2032
48.1975
48.1669
48.0757
47.8348
47.1843
48.1872
48.1896
48.1942
48.1997
48.2032
48.1975
48.1669
48.0757
47.8347
47.1843
48.1872
48.1896
48.1942
48.1997
48.2032
48.1975
48.1669
48.0757
47.8347
47.1843
48.1872
48.1896
48.1942
48.1998
48.2032
48.1975
48.1669
48.0757
47.8347
47.1843
48.1872
48.1896
48.1942
48.1998
48.2032
48.1975
48.1669
48.0757
47.8348
47.1844
48.1872
48.1897
48.1943
48.1998
48.2033
48.1976
48.167
48.0758
47.8348
47.1844
48.1873
48.1897
48.1943
48.1998
48.2033
48.1976
48.167
48.0758
47.8349
47.1844
43.6478
43.6592
43.6823
43.7174
43.7641
43.8193
43.8746
43.9109
43.8915
43.7662
43.6478
43.6591
43.6822
43.7174
43.7641
43.8193
43.8745
43.9108
43.8914
43.7662
43.6478
43.6591
43.6822
43.7173
43.764
43.8192
43.8745
43.9107
43.8913
43.7661
43.6477
43.6591
43.6822
43.7173
43.764
43.8192
43.8745
43.9107
43.8913
43.7661
43.6477
43.6591
43.6821
43.7173
43.764
43.8192
43.8744
43.9107
43.8913
43.766
43.6477
43.6591
43.6821
43.7173
43.764
43.8192
43.8744
43.9107
43.8913
43.766
43.6477
43.6591
43.6822
43.7173
43.764
43.8192
43.8745
43.9107
43.8913
43.7661
43.6477
43.6591
43.6822
43.7173
43.764
43.8192
43.8745
43.9107
43.8913
43.7661
43.6478
43.6591
43.6822
43.7174
43.7641
43.8193
43.8745
43.9108
43.8914
43.7661
43.6478
43.6592
43.6822
43.7174
43.7641
43.8193
43.8746
43.9108
43.8914
43.7662
39.4125
39.4348
39.4808
39.5535
39.6565
39.7942
39.9707
40.1916
40.4699
40.8516
39.4124
39.4347
39.4808
39.5535
39.6565
39.7941
39.9706
40.1915
40.4699
40.8516
39.4124
39.4347
39.4808
39.5534
39.6565
39.7941
39.9706
40.1915
40.4698
40.8515
39.4124
39.4346
39.4807
39.5534
39.6564
39.794
39.9706
40.1915
40.4698
40.8515
39.4124
39.4346
39.4807
39.5534
39.6564
39.794
39.9705
40.1914
40.4698
40.8515
39.4124
39.4346
39.4807
39.5534
39.6564
39.794
39.9705
40.1914
40.4698
40.8515
39.4124
39.4346
39.4807
39.5534
39.6564
39.794
39.9706
40.1914
40.4698
40.8515
39.4124
39.4347
39.4807
39.5534
39.6564
39.794
39.9706
40.1915
40.4698
40.8515
39.4124
39.4347
39.4808
39.5535
39.6565
39.7941
39.9706
40.1915
40.4698
40.8515
39.4124
39.4347
39.4808
39.5535
39.6565
39.7941
39.9707
40.1916
40.4699
40.8516
35.4799
35.5142
35.5858
35.7002
35.8662
36.096
36.4061
36.8205
37.3773
38.1449
35.4799
35.5142
35.5857
35.7001
35.8662
36.0959
36.4061
36.8204
37.3772
38.1448
35.4798
35.5141
35.5857
35.7001
35.8661
36.0959
36.406
36.8204
37.3772
38.1448
35.4798
35.5141
35.5856
35.7001
35.8661
36.0959
36.406
36.8203
37.3772
38.1447
35.4798
35.5141
35.5856
35.7
35.8661
36.0959
36.406
36.8203
37.3771
38.1447
35.4798
35.5141
35.5856
35.7
35.8661
36.0958
36.406
36.8203
37.3771
38.1447
35.4798
35.5141
35.5856
35.7001
35.8661
36.0959
36.406
36.8203
37.3771
38.1447
35.4798
35.5141
35.5857
35.7001
35.8661
36.0959
36.406
36.8204
37.3772
38.1448
35.4798
35.5142
35.5857
35.7001
35.8661
36.0959
36.4061
36.8204
37.3772
38.1448
35.4799
35.5142
35.5857
35.7002
35.8662
36.096
36.4061
36.8205
37.3773
38.1449
31.844
31.8903
31.9871
32.1429
32.3713
32.6915
33.1298
33.7218
34.5154
35.5755
31.8439
31.8902
31.987
32.1429
32.3712
32.6914
33.1297
33.7217
34.5154
35.5755
31.8439
31.8902
31.987
32.1428
32.3712
32.6914
33.1297
33.7217
34.5153
35.5754
31.8439
31.8902
31.9869
32.1428
32.3712
32.6913
33.1296
33.7216
34.5153
35.5754
31.8439
31.8901
31.9869
32.1428
32.3711
32.6913
33.1296
33.7216
34.5153
35.5753
31.8439
31.8901
31.9869
32.1428
32.3711
32.6913
33.1296
33.7216
34.5153
35.5753
31.8439
31.8902
31.9869
32.1428
32.3712
32.6913
33.1296
33.7216
34.5153
35.5754
31.8439
31.8902
31.987
32.1428
32.3712
32.6913
33.1296
33.7217
34.5153
35.5754
31.8439
31.8902
31.987
32.1428
32.3712
32.6914
33.1297
33.7217
34.5154
35.5754
31.844
31.8903
31.987
32.1429
32.3713
32.6914
33.1297
33.7218
34.5154
35.5755
28.4952
28.552
28.6711
28.8635
29.1467
29.5461
30.0957
30.84
31.8323
33.1301
28.4951
28.552
28.6711
28.8635
29.1467
29.546
30.0957
30.84
31.8323
33.13
28.4951
28.5519
28.671
28.8634
29.1467
29.546
30.0956
30.8399
31.8322
33.1299
28.495
28.5519
28.671
28.8634
29.1466
29.5459
30.0956
30.8399
31.8322
33.1299
28.495
28.5519
28.671
28.8634
29.1466
29.5459
30.0956
30.8399
31.8322
33.1299
28.495
28.5519
28.671
28.8634
29.1466
29.5459
30.0956
30.8399
31.8322
33.1299
28.495
28.5519
28.671
28.8634
29.1466
29.5459
30.0956
30.8399
31.8322
33.1299
28.495
28.5519
28.671
28.8634
29.1466
29.5459
30.0956
30.8399
31.8322
33.1299
28.4951
28.5519
28.6711
28.8635
29.1467
29.546
30.0957
30.84
31.8323
33.13
28.4951
28.552
28.6711
28.8635
29.1467
29.546
30.0957
30.84
31.8323
33.13
25.4217
25.4866
25.6227
25.8427
26.1672
26.6265
27.262
28.1278
29.2877
30.802
25.4217
25.4866
25.6226
25.8426
26.1672
26.6264
27.2619
28.1277
29.2876
30.802
25.4216
25.4865
25.6226
25.8426
26.1671
26.6264
27.2619
28.1276
29.2876
30.8019
25.4216
25.4865
25.6226
25.8426
26.1671
26.6264
27.2618
28.1276
29.2876
30.8019
25.4216
25.4865
25.6225
25.8425
26.1671
26.6264
27.2618
28.1276
29.2875
30.8019
25.4216
25.4865
25.6225
25.8425
26.1671
26.6264
27.2618
28.1276
29.2875
30.8019
25.4216
25.4865
25.6226
25.8426
26.1671
26.6264
27.2618
28.1276
29.2875
30.8019
25.4216
25.4865
25.6226
25.8426
26.1671
26.6264
27.2619
28.1276
29.2876
30.8019
25.4216
25.4866
25.6226
25.8426
26.1672
26.6264
27.2619
28.1277
29.2876
30.802
25.4217
25.4866
25.6227
25.8427
26.1672
26.6265
27.262
28.1277
29.2877
30.802
22.6114
22.681
22.8266
23.062
23.4093
23.9017
24.5873
25.533
26.8267
28.5629
22.6114
22.6809
22.8266
23.062
23.4092
23.9017
24.5872
25.5329
26.8267
28.5629
22.6113
22.6809
22.8266
23.0619
23.4092
23.9016
24.5872
25.5329
26.8266
28.5628
22.6113
22.6809
22.8265
23.0619
23.4092
23.9016
24.5872
25.5328
26.8266
28.5628
22.6113
22.6809
22.8265
23.0619
23.4092
23.9016
24.5871
25.5328
26.8266
28.5628
22.6113
22.6809
22.8265
23.0619
23.4092
23.9016
24.5871
25.5328
26.8266
28.5628
22.6113
22.6809
22.8265
23.0619
23.4092
23.9016
24.5872
25.5328
26.8266
28.5628
22.6113
22.6809
22.8266
23.0619
23.4092
23.9016
24.5872
25.5329
26.8266
28.5628
22.6114
22.6809
22.8266
23.062
23.4092
23.9017
24.5872
25.5329
26.8267
28.5629
22.6114
22.681
22.8266
23.062
23.4093
23.9017
24.5873
25.533
26.8267
28.5629
20.0527
20.123
20.2699
20.5064
20.8541
21.3459
22.0321
22.9913
24.3508
26.3109
20.0526
20.123
20.2699
20.5064
20.8541
21.3458
22.032
22.9912
24.3507
26.3108
20.0526
20.1229
20.2698
20.5064
20.854
21.3458
22.032
22.9912
24.3507
26.3108
20.0526
20.1229
20.2698
20.5063
20.854
21.3458
22.032
22.9912
24.3506
26.3108
20.0526
20.1229
20.2698
20.5063
20.854
21.3458
22.032
22.9912
24.3506
26.3107
20.0526
20.1229
20.2698
20.5063
20.854
21.3458
22.032
22.9912
24.3506
26.3107
20.0526
20.1229
20.2698
20.5063
20.854
21.3458
22.032
22.9912
24.3506
26.3108
20.0526
20.1229
20.2698
20.5064
20.854
21.3458
22.032
22.9912
24.3507
26.3108
20.0526
20.123
20.2699
20.5064
20.8541
21.3459
22.032
22.9912
24.3507
26.3108
20.0526
20.123
20.2699
20.5064
20.8541
21.3459
22.0321
22.9913
24.3508
26.3109
17.7354
17.8028
17.9427
18.1663
18.4914
18.9452
19.5697
20.4354
21.6854
23.7001
17.7354
17.8027
17.9427
18.1662
18.4913
18.9452
19.5697
20.4354
21.6854
23.7
17.7354
17.8027
17.9426
18.1662
18.4913
18.9451
19.5696
20.4353
21.6853
23.7
17.7353
17.8027
17.9426
18.1662
18.4913
18.9451
19.5696
20.4353
21.6853
23.7
17.7353
17.8027
17.9426
18.1662
18.4913
18.9451
19.5696
20.4353
21.6853
23.6999
17.7353
17.8027
17.9426
18.1662
18.4913
18.9451
19.5696
20.4353
21.6853
23.6999
17.7353
17.8027
17.9426
18.1662
18.4913
18.9451
19.5696
20.4353
21.6853
23.7
17.7354
17.8027
17.9426
18.1662
18.4913
18.9452
19.5696
20.4353
21.6854
23.7
17.7354
17.8027
17.9427
18.1662
18.4913
18.9452
19.5697
20.4354
21.6854
23.7
17.7354
17.8028
17.9427
18.1663
18.4914
18.9452
19.5697
20.4354
21.6855
23.7001
45.2185
45.3675
47.0496
50.0825
54.4662
60.3252
67.9165
77.6954
90.4906
107.968
45.2184
45.3674
47.0495
50.0824
54.4661
60.3251
67.9164
77.6953
90.4905
107.968
45.2183
45.3674
47.0494
50.0823
54.466
60.325
67.9163
77.6952
90.4904
107.968
45.2183
45.3673
47.0494
50.0822
54.466
60.325
67.9162
77.6952
90.4903
107.968
45.2183
45.3673
47.0493
50.0822
54.4659
60.325
67.9162
77.6951
90.4903
107.968
45.2183
45.3673
47.0493
50.0822
54.4659
60.325
67.9162
77.6951
90.4903
107.968
45.2183
45.3673
47.0494
50.0822
54.466
60.325
67.9162
77.6952
90.4903
107.968
45.2183
45.3673
47.0494
50.0823
54.466
60.325
67.9163
77.6952
90.4904
107.968
45.2184
45.3674
47.0494
50.0823
54.466
60.3251
67.9163
77.6953
90.4904
107.968
45.2184
45.3674
47.0495
50.0824
54.4661
60.3251
67.9164
77.6953
90.4905
107.968
43.587
44.3669
46.2738
49.3449
53.639
59.2721
66.435
75.4077
86.5532
100.165
43.587
44.3668
46.2737
49.3448
53.6389
59.272
66.4349
75.4076
86.5531
100.165
43.5869
44.3667
46.2736
49.3448
53.6388
59.272
66.4348
75.4075
86.553
100.165
43.5869
44.3667
46.2736
49.3447
53.6388
59.2719
66.4348
75.4075
86.553
100.165
43.5868
44.3667
46.2735
49.3447
53.6387
59.2719
66.4347
75.4075
86.5529
100.165
43.5868
44.3667
46.2735
49.3447
53.6387
59.2719
66.4347
75.4074
86.5529
100.165
43.5869
44.3667
46.2736
49.3447
53.6388
59.2719
66.4347
75.4075
86.5529
100.165
43.5869
44.3667
46.2736
49.3447
53.6388
59.2719
66.4348
75.4075
86.553
100.165
43.5869
44.3668
46.2736
49.3448
53.6389
59.272
66.4349
75.4076
86.5531
100.165
43.587
44.3668
46.2737
49.3449
53.6389
59.2721
66.4349
75.4077
86.5532
100.165
41.49
42.7755
44.9103
47.9984
52.1208
57.3684
63.8499
71.6763
80.8966
91.3152
41.4899
42.7754
44.9102
47.9983
52.1207
57.3683
63.8498
71.6762
80.8964
91.3151
41.4899
42.7754
44.9101
47.9982
52.1206
57.3682
63.8497
71.6762
80.8964
91.315
41.4898
42.7753
44.9101
47.9982
52.1206
57.3681
63.8496
71.6761
80.8963
91.3149
41.4898
42.7753
44.91
47.9981
52.1206
57.3681
63.8496
71.6761
80.8963
91.3149
41.4898
42.7753
44.91
47.9981
52.1206
57.3681
63.8496
71.6761
80.8963
91.3149
41.4898
42.7753
44.91
47.9982
52.1206
57.3681
63.8496
71.6761
80.8963
91.3149
41.4899
42.7754
44.9101
47.9982
52.1206
57.3682
63.8497
71.6761
80.8963
91.315
41.4899
42.7754
44.9101
47.9983
52.1207
57.3682
63.8497
71.6762
80.8964
91.3151
41.49
42.7755
44.9102
47.9983
52.1208
57.3683
63.8498
71.6763
80.8965
91.3152
39.2476
40.8753
43.1715
46.2317
50.1252
54.909
60.6254
67.2803
74.7898
82.883
39.2475
40.8752
43.1714
46.2316
50.1251
54.9089
60.6253
67.2802
74.7897
82.8829
39.2475
40.8752
43.1714
46.2315
50.1251
54.9088
60.6252
67.2801
74.7896
82.8828
39.2474
40.8751
43.1713
46.2315
50.125
54.9088
60.6252
67.2801
74.7895
82.8828
39.2474
40.8751
43.1713
46.2314
50.125
54.9088
60.6252
67.28
74.7895
82.8827
39.2474
40.8751
43.1713
46.2314
50.125
54.9088
60.6252
67.28
74.7895
82.8827
39.2474
40.8751
43.1713
46.2315
50.125
54.9088
60.6252
67.2801
74.7895
82.8828
39.2475
40.8751
43.1713
46.2315
50.125
54.9088
60.6252
67.2801
74.7896
82.8828
39.2475
40.8752
43.1714
46.2316
50.1251
54.9089
60.6253
67.2802
74.7897
82.8829
39.2476
40.8753
43.1715
46.2316
50.1252
54.909
60.6254
67.2803
74.7898
82.883
36.9871
38.8495
41.2478
44.2454
47.8861
52.1941
57.1668
62.7578
68.8476
75.2074
36.987
38.8494
41.2477
44.2453
47.886
52.194
57.1667
62.7577
68.8475
75.2072
36.987
38.8493
41.2476
44.2452
47.8859
52.1939
57.1666
62.7576
68.8474
75.2072
36.9869
38.8493
41.2476
44.2451
47.8859
52.1939
57.1666
62.7576
68.8473
75.2071
36.9869
38.8493
41.2475
44.2451
47.8858
52.1938
57.1666
62.7575
68.8473
75.2071
36.9869
38.8493
41.2475
44.2451
47.8858
52.1938
57.1666
62.7575
68.8473
75.2071
36.9869
38.8493
41.2475
44.2451
47.8859
52.1939
57.1666
62.7576
68.8473
75.2071
36.987
38.8493
41.2476
44.2452
47.8859
52.1939
57.1666
62.7576
68.8474
75.2072
36.987
38.8494
41.2476
44.2452
47.886
52.194
57.1667
62.7577
68.8475
75.2072
36.9871
38.8495
41.2477
44.2453
47.8861
52.1941
57.1668
62.7578
68.8476
75.2074
34.7843
36.8311
39.303
42.2284
45.6246
49.4894
53.792
58.4625
63.3818
68.3793
34.7843
36.831
39.3029
42.2283
45.6245
49.4893
53.7919
58.4624
63.3817
68.3792
34.7842
36.831
39.3029
42.2282
45.6244
49.4893
53.7918
58.4623
63.3817
68.3791
34.7842
36.8309
39.3028
42.2282
45.6244
49.4892
53.7918
58.4622
63.3816
68.3791
34.7841
36.8309
39.3028
42.2282
45.6244
49.4892
53.7918
58.4622
63.3816
68.3791
34.7841
36.8309
39.3028
42.2282
45.6244
49.4892
53.7918
58.4622
63.3816
68.3791
34.7842
36.8309
39.3028
42.2282
45.6244
49.4892
53.7918
58.4622
63.3816
68.3791
34.7842
36.831
39.3028
42.2282
45.6244
49.4893
53.7918
58.4623
63.3817
68.3791
34.7842
36.831
39.3029
42.2283
45.6245
49.4893
53.7919
58.4624
63.3817
68.3792
34.7843
36.8311
39.303
42.2284
45.6246
49.4894
53.792
58.4625
63.3818
68.3793
32.696
34.9292
37.4811
40.3509
43.537
47.0192
50.7485
54.6409
58.5809
62.4402
32.696
34.9291
37.481
40.3509
43.5369
47.0191
50.7484
54.6407
58.5808
62.4401
32.6959
34.9291
37.4809
40.3508
43.5368
47.019
50.7483
54.6407
58.5807
62.44
32.6959
34.929
37.4809
40.3507
43.5367
47.019
50.7482
54.6406
58.5807
62.44
32.6959
34.929
37.4809
40.3507
43.5367
47.019
50.7482
54.6406
58.5807
62.4399
32.6959
34.929
37.4809
40.3507
43.5367
47.019
50.7482
54.6406
58.5807
62.4399
32.6959
34.929
37.4809
40.3507
43.5367
47.019
50.7482
54.6406
58.5807
62.44
32.6959
34.9291
37.4809
40.3508
43.5368
47.019
50.7483
54.6407
58.5807
62.44
32.696
34.9291
37.481
40.3509
43.5369
47.0191
50.7484
54.6408
58.5808
62.4401
32.696
34.9292
37.4811
40.3509
43.537
47.0192
50.7485
54.6409
58.5809
62.4402
30.771
33.2464
35.9144
38.7646
41.7926
44.971
48.2373
51.4901
54.5989
57.439
30.7709
33.2463
35.9143
38.7645
41.7925
44.9709
48.2372
51.49
54.5988
57.4389
30.7708
33.2462
35.9142
38.7645
41.7924
44.9708
48.2371
51.49
54.5987
57.4388
30.7708
33.2462
35.9142
38.7644
41.7924
44.9708
48.237
51.4899
54.5987
57.4388
30.7708
33.2462
35.9142
38.7644
41.7924
44.9708
48.237
51.4899
54.5986
57.4387
30.7708
33.2462
35.9142
38.7644
41.7924
44.9708
48.237
51.4899
54.5986
57.4387
30.7708
33.2462
35.9142
38.7644
41.7924
44.9708
48.2371
51.4899
54.5987
57.4388
30.7708
33.2462
35.9142
38.7645
41.7924
44.9708
48.2371
51.49
54.5987
57.4388
30.7709
33.2463
35.9143
38.7645
41.7925
44.9709
48.2372
51.4901
54.5988
57.4389
30.771
33.2464
35.9144
38.7646
41.7926
44.971
48.2373
51.4902
54.5989
57.439
29.0736
31.9034
34.7346
37.6047
40.5342
43.5009
46.4315
49.1979
51.6181
53.484
29.0735
31.9033
34.7345
37.6046
40.5342
43.5008
46.4314
49.1978
51.618
53.4839
29.0735
31.9033
34.7345
37.6045
40.5341
43.5007
46.4313
49.1977
51.6179
53.4838
29.0734
31.9033
34.7345
37.6045
40.5341
43.5007
46.4313
49.1977
51.6178
53.4838
29.0734
31.9032
34.7344
37.6045
40.534
43.5007
46.4313
49.1977
51.6178
53.4838
29.0734
31.9032
34.7344
37.6045
40.534
43.5007
46.4313
49.1977
51.6178
53.4838
29.0734
31.9033
34.7345
37.6045
40.5341
43.5007
46.4313
49.1977
51.6179
53.4838
29.0735
31.9033
34.7345
37.6046
40.5341
43.5008
46.4313
49.1978
51.6179
53.4839
29.0735
31.9034
34.7346
37.6046
40.5342
43.5008
46.4314
49.1978
51.618
53.4839
29.0736
31.9034
34.7346
37.6047
40.5343
43.5009
46.4315
49.1979
51.6181
53.4841
27.7946
31.0858
34.0814
36.9865
39.8728
42.7303
45.479
47.9625
49.9189
50.9001
27.7945
31.0857
34.0813
36.9864
39.8728
42.7302
45.4789
47.9624
49.9188
50.9001
27.7945
31.0857
34.0813
36.9864
39.8727
42.7301
45.4788
47.9624
49.9188
50.9
27.7944
31.0856
34.0812
36.9863
39.8727
42.7301
45.4788
47.9623
49.9187
50.8999
27.7944
31.0856
34.0812
36.9863
39.8726
42.7301
45.4788
47.9623
49.9187
50.8999
27.7944
31.0856
34.0812
36.9863
39.8727
42.7301
45.4788
47.9623
49.9187
50.8999
27.7944
31.0856
34.0812
36.9863
39.8727
42.7301
45.4788
47.9623
49.9187
50.9
27.7945
31.0857
34.0813
36.9864
39.8727
42.7301
45.4789
47.9624
49.9188
50.9
27.7945
31.0857
34.0813
36.9865
39.8728
42.7302
45.4789
47.9625
49.9189
50.9001
27.7946
31.0858
34.0814
36.9865
39.8729
42.7303
45.479
47.9626
49.919
50.9002
134.002
146.497
154.239
159.714
163.803
166.897
169.205
170.852
171.914
172.434
134.002
146.497
154.239
159.714
163.803
166.896
169.205
170.852
171.914
172.434
134.002
146.497
154.239
159.714
163.803
166.896
169.205
170.852
171.914
172.434
134.002
146.497
154.239
159.714
163.802
166.896
169.205
170.852
171.914
172.434
134.002
146.497
154.239
159.714
163.802
166.896
169.205
170.852
171.914
172.434
134.002
146.497
154.239
159.714
163.802
166.896
169.205
170.852
171.914
172.434
134.002
146.497
154.239
159.714
163.802
166.896
169.205
170.852
171.914
172.434
134.002
146.497
154.239
159.714
163.803
166.896
169.205
170.852
171.914
172.434
134.002
146.497
154.239
159.714
163.803
166.896
169.205
170.852
171.914
172.434
134.002
146.497
154.239
159.714
163.803
166.897
169.205
170.852
171.914
172.434
115.582
126.847
134.869
140.739
145.131
148.436
150.889
152.63
153.749
154.296
115.582
126.847
134.869
140.739
145.131
148.436
150.888
152.63
153.748
154.296
115.582
126.847
134.869
140.739
145.131
148.436
150.888
152.63
153.748
154.296
115.582
126.847
134.869
140.739
145.131
148.436
150.888
152.63
153.748
154.296
115.582
126.847
134.869
140.739
145.13
148.436
150.888
152.63
153.748
154.296
115.582
126.847
134.869
140.739
145.13
148.436
150.888
152.63
153.748
154.296
115.582
126.847
134.869
140.739
145.131
148.436
150.888
152.63
153.748
154.296
115.582
126.847
134.869
140.739
145.131
148.436
150.888
152.63
153.748
154.296
115.582
126.847
134.869
140.739
145.131
148.436
150.888
152.63
153.748
154.296
115.582
126.847
134.869
140.739
145.131
148.436
150.889
152.63
153.749
154.296
102.08
111.211
118.43
124.025
128.335
131.625
134.082
135.833
136.959
137.511
102.079
111.211
118.43
124.025
128.335
131.625
134.082
135.833
136.959
137.511
102.079
111.211
118.43
124.025
128.335
131.625
134.082
135.832
136.959
137.511
102.079
111.211
118.43
124.025
128.335
131.625
134.082
135.832
136.959
137.511
102.079
111.211
118.43
124.025
128.335
131.625
134.082
135.832
136.959
137.511
102.079
111.211
118.43
124.025
128.335
131.625
134.082
135.832
136.959
137.511
102.079
111.211
118.43
124.025
128.335
131.625
134.082
135.832
136.959
137.511
102.079
111.211
118.43
124.025
128.335
131.625
134.082
135.833
136.959
137.511
102.079
111.211
118.43
124.025
128.335
131.625
134.082
135.833
136.959
137.511
102.08
111.211
118.43
124.025
128.335
131.625
134.082
135.833
136.959
137.511
90.9846
98.2711
104.408
109.396
113.365
116.458
118.798
120.48
121.567
122.101
90.9845
98.271
104.407
109.396
113.365
116.458
118.798
120.48
121.567
122.101
90.9844
98.2709
104.407
109.396
113.364
116.458
118.798
120.479
121.567
122.1
90.9844
98.2709
104.407
109.396
113.364
116.457
118.798
120.479
121.567
122.1
90.9844
98.2708
104.407
109.396
113.364
116.457
118.798
120.479
121.567
122.1
90.9844
98.2708
104.407
109.396
113.364
116.457
118.798
120.479
121.567
122.1
90.9844
98.2709
104.407
109.396
113.364
116.457
118.798
120.479
121.567
122.1
90.9844
98.2709
104.407
109.396
113.365
116.458
118.798
120.479
121.567
122.1
90.9845
98.271
104.407
109.396
113.365
116.458
118.798
120.48
121.567
122.101
90.9846
98.2711
104.408
109.396
113.365
116.458
118.798
120.48
121.567
122.101
81.4832
87.2708
92.3317
96.5947
100.085
102.864
104.999
106.55
107.559
108.057
81.4831
87.2707
92.3316
96.5946
100.084
102.864
104.999
106.55
107.559
108.057
81.483
87.2706
92.3315
96.5945
100.084
102.863
104.999
106.55
107.559
108.057
81.4829
87.2706
92.3315
96.5944
100.084
102.863
104.999
106.55
107.559
108.057
81.4829
87.2705
92.3315
96.5944
100.084
102.863
104.999
106.55
107.559
108.057
81.4829
87.2705
92.3315
96.5944
100.084
102.863
104.999
106.55
107.559
108.057
81.4829
87.2706
92.3315
96.5944
100.084
102.863
104.999
106.55
107.559
108.057
81.483
87.2706
92.3315
96.5945
100.084
102.863
104.999
106.55
107.559
108.057
81.4831
87.2707
92.3316
96.5946
100.084
102.864
104.999
106.55
107.559
108.057
81.4832
87.2708
92.3318
96.5947
100.085
102.864
104.999
106.55
107.559
108.057
73.2478
77.7871
81.8539
85.3749
88.3311
90.735
92.6125
93.9919
94.8971
95.3454
73.2477
77.787
81.8538
85.3748
88.331
90.7349
92.6124
93.9918
94.897
95.3453
73.2476
77.7869
81.8537
85.3747
88.3309
90.7348
92.6123
93.9917
94.897
95.3453
73.2476
77.7869
81.8537
85.3747
88.3309
90.7347
92.6123
93.9916
94.8969
95.3452
73.2475
77.7868
81.8536
85.3746
88.3308
90.7347
92.6122
93.9916
94.8969
95.3452
73.2475
77.7868
81.8536
85.3746
88.3308
90.7347
92.6122
93.9916
94.8969
95.3452
73.2476
77.7869
81.8537
85.3747
88.3309
90.7347
92.6123
93.9916
94.8969
95.3453
73.2476
77.7869
81.8537
85.3747
88.3309
90.7348
92.6123
93.9917
94.897
95.3453
73.2477
77.787
81.8538
85.3748
88.331
90.7349
92.6124
93.9918
94.8971
95.3454
73.2478
77.7871
81.8539
85.3749
88.3311
90.735
92.6126
93.9919
94.8972
95.3455
66.1156
69.5617
72.7176
75.5241
77.9412
79.9499
81.5459
82.7335
83.5199
83.9113
66.1155
69.5616
72.7174
75.524
77.9411
79.9497
81.5458
82.7334
83.5198
83.9112
66.1154
69.5615
72.7174
75.5239
77.941
79.9497
81.5457
82.7334
83.5197
83.9112
66.1154
69.5615
72.7173
75.5238
77.941
79.9496
81.5456
82.7333
83.5197
83.9111
66.1154
69.5614
72.7173
75.5238
77.941
79.9496
81.5456
82.7333
83.5197
83.9111
66.1154
69.5614
72.7173
75.5238
77.941
79.9496
81.5456
82.7333
83.5197
83.9111
66.1154
69.5615
72.7173
75.5238
77.941
79.9496
81.5457
82.7333
83.5197
83.9112
66.1154
69.5615
72.7174
75.5239
77.9411
79.9497
81.5457
82.7334
83.5198
83.9112
66.1155
69.5616
72.7175
75.524
77.9411
79.9498
81.5458
82.7335
83.5199
83.9113
66.1156
69.5617
72.7176
75.5241
77.9413
79.9499
81.5459
82.7336
83.52
83.9114
59.9799
62.4044
64.7174
66.8572
68.7611
70.3841
71.6989
72.6912
73.3546
73.6866
59.9798