/*--------------------------------*- C++ -*----------------------------------*\
  =========                 |
  \\      /  F ield         | OpenFOAM: The Open Source CFD Toolbox
   \\    /   O peration     | Website:  https://openfoam.org
    \\  /    A nd           | Version:  6
     \\/     M anipulation  |
\*---------------------------------------------------------------------------*/
FoamFile
{
    version     2.0;
    format      ascii;
    class       volScalarField;
    location    "0.49";
    object      T;
}
// * * * * * * * * * * * * * * * * * * * * * * * * * * * * * * * * * * * * * //

dimensions      [0 0 0 1 0 0 0];

internalField   nonuniform List<scalar> 
7000
(
105.512
105.51
105.506
105.5
105.493
105.485
105.478
105.471
105.466
105.463
105.512
105.51
105.506
105.5
105.493
105.485
105.478
105.471
105.466
105.463
105.512
105.51
105.506
105.5
105.493
105.485
105.478
105.471
105.466
105.463
105.512
105.51
105.506
105.5
105.493
105.485
105.478
105.471
105.466
105.463
105.512
105.51
105.506
105.5
105.493
105.485
105.478
105.471
105.466
105.463
105.512
105.51
105.506
105.5
105.493
105.485
105.478
105.471
105.466
105.463
105.512
105.51
105.506
105.5
105.493
105.485
105.478
105.471
105.466
105.463
105.512
105.51
105.506
105.5
105.493
105.485
105.478
105.471
105.466
105.463
105.512
105.51
105.506
105.5
105.493
105.485
105.478
105.471
105.466
105.463
105.512
105.51
105.506
105.5
105.493
105.485
105.478
105.471
105.466
105.463
96.5804
96.5741
96.5618
96.5442
96.5227
96.4988
96.4748
96.4534
96.4371
96.4284
96.5804
96.574
96.5617
96.5442
96.5226
96.4988
96.4748
96.4534
96.4371
96.4283
96.5804
96.574
96.5617
96.5442
96.5226
96.4988
96.4748
96.4534
96.4371
96.4283
96.5804
96.574
96.5617
96.5442
96.5226
96.4987
96.4748
96.4533
96.4371
96.4283
96.5804
96.574
96.5617
96.5442
96.5226
96.4987
96.4748
96.4533
96.4371
96.4283
96.5804
96.574
96.5617
96.5442
96.5226
96.4987
96.4748
96.4533
96.4371
96.4283
96.5804
96.574
96.5617
96.5442
96.5226
96.4987
96.4748
96.4533
96.4371
96.4283
96.5804
96.574
96.5617
96.5442
96.5226
96.4988
96.4748
96.4534
96.4371
96.4283
96.5804
96.574
96.5617
96.5442
96.5226
96.4988
96.4748
96.4534
96.4371
96.4283
96.5804
96.574
96.5617
96.5442
96.5226
96.4988
96.4748
96.4534
96.4371
96.4283
87.7821
87.7711
87.7495
87.7186
87.6804
87.6378
87.5946
87.5556
87.5258
87.5096
87.7821
87.771
87.7495
87.7186
87.6804
87.6378
87.5946
87.5556
87.5258
87.5096
87.7821
87.771
87.7494
87.7186
87.6804
87.6378
87.5946
87.5556
87.5258
87.5096
87.7821
87.771
87.7494
87.7185
87.6804
87.6377
87.5946
87.5556
87.5258
87.5095
87.7821
87.771
87.7494
87.7185
87.6803
87.6377
87.5946
87.5556
87.5257
87.5095
87.7821
87.771
87.7494
87.7185
87.6803
87.6377
87.5946
87.5556
87.5257
87.5095
87.7821
87.771
87.7494
87.7185
87.6803
87.6377
87.5946
87.5556
87.5257
87.5095
87.7821
87.771
87.7494
87.7185
87.6804
87.6377
87.5946
87.5556
87.5258
87.5095
87.7821
87.771
87.7494
87.7186
87.6804
87.6378
87.5946
87.5556
87.5258
87.5096
87.7821
87.771
87.7495
87.7186
87.6804
87.6378
87.5946
87.5556
87.5258
87.5096
79.2019
79.1854
79.153
79.1064
79.0481
78.9823
78.9147
78.8527
78.8045
78.7781
79.2019
79.1853
79.153
79.1063
79.0481
78.9823
78.9146
78.8526
78.8045
78.778
79.2018
79.1853
79.1529
79.1063
79.048
78.9822
78.9146
78.8526
78.8045
78.778
79.2018
79.1853
79.1529
79.1063
79.048
78.9822
78.9146
78.8526
78.8044
78.778
79.2018
79.1852
79.1529
79.1063
79.048
78.9822
78.9146
78.8525
78.8044
78.778
79.2018
79.1852
79.1529
79.1063
79.048
78.9822
78.9146
78.8525
78.8044
78.778
79.2018
79.1852
79.1529
79.1063
79.048
78.9822
78.9146
78.8526
78.8044
78.778
79.2018
79.1853
79.1529
79.1063
79.048
78.9822
78.9146
78.8526
78.8045
78.778
79.2018
79.1853
79.1529
79.1063
79.0481
78.9823
78.9146
78.8526
78.8045
78.778
79.2019
79.1853
79.153
79.1063
79.0481
78.9823
78.9147
78.8526
78.8045
78.7781
70.9188
70.8959
70.8508
70.7851
70.702
70.6065
70.5063
70.4123
70.3377
70.2959
70.9188
70.8958
70.8507
70.7851
70.7019
70.6064
70.5062
70.4122
70.3377
70.2959
70.9187
70.8958
70.8507
70.785
70.7019
70.6064
70.5062
70.4122
70.3376
70.2959
70.9187
70.8958
70.8506
70.785
70.7019
70.6063
70.5062
70.4122
70.3376
70.2958
70.9187
70.8957
70.8506
70.785
70.7018
70.6063
70.5062
70.4122
70.3376
70.2958
70.9187
70.8957
70.8506
70.785
70.7018
70.6063
70.5062
70.4122
70.3376
70.2958
70.9187
70.8957
70.8506
70.785
70.7019
70.6063
70.5062
70.4122
70.3376
70.2959
70.9187
70.8958
70.8506
70.785
70.7019
70.6064
70.5062
70.4122
70.3376
70.2959
70.9187
70.8958
70.8507
70.785
70.7019
70.6064
70.5062
70.4122
70.3377
70.2959
70.9188
70.8958
70.8507
70.7851
70.702
70.6064
70.5063
70.4123
70.3377
70.296
63.0044
62.9741
62.9139
62.8254
62.7115
62.5776
62.4332
62.2933
62.1784
62.1121
63.0044
62.974
62.9139
62.8254
62.7114
62.5775
62.4331
62.2932
62.1783
62.1121
63.0043
62.974
62.9138
62.8253
62.7114
62.5775
62.4331
62.2932
62.1783
62.112
63.0043
62.9739
62.9138
62.8253
62.7113
62.5774
62.4331
62.2931
62.1783
62.112
63.0043
62.9739
62.9138
62.8253
62.7113
62.5774
62.4331
62.2931
62.1783
62.112
63.0043
62.9739
62.9138
62.8253
62.7113
62.5774
62.4331
62.2931
62.1783
62.112
63.0043
62.9739
62.9138
62.8253
62.7113
62.5774
62.4331
62.2931
62.1783
62.112
63.0043
62.9739
62.9138
62.8253
62.7114
62.5775
62.4331
62.2932
62.1783
62.112
63.0043
62.974
62.9138
62.8254
62.7114
62.5775
62.4331
62.2932
62.1784
62.1121
63.0044
62.974
62.9139
62.8254
62.7115
62.5776
62.4332
62.2933
62.1784
62.1121
55.521
55.4824
55.4052
55.29
55.1387
54.9559
54.7516
54.5444
54.3653
54.2565
55.5209
55.4823
55.4051
55.29
55.1386
54.9558
54.7515
54.5444
54.3652
54.2564
55.5209
55.4822
55.4051
55.2899
55.1386
54.9558
54.7515
54.5443
54.3652
54.2564
55.5209
55.4822
55.405
55.2899
55.1386
54.9558
54.7514
54.5443
54.3652
54.2564
55.5208
55.4822
55.405
55.2899
55.1385
54.9557
54.7514
54.5443
54.3652
54.2563
55.5208
55.4822
55.405
55.2899
55.1385
54.9557
54.7514
54.5443
54.3652
54.2563
55.5208
55.4822
55.405
55.2899
55.1386
54.9558
54.7514
54.5443
54.3652
54.2564
55.5209
55.4822
55.405
55.2899
55.1386
54.9558
54.7515
54.5443
54.3652
54.2564
55.5209
55.4822
55.4051
55.2899
55.1386
54.9558
54.7515
54.5444
54.3653
54.2564
55.5209
55.4823
55.4051
55.29
55.1387
54.9559
54.7516
54.5444
54.3653
54.2565
48.5205
48.4731
48.3776
48.233
48.0386
47.796
47.5122
47.2064
46.9206
46.7306
48.5204
48.473
48.3775
48.2329
48.0386
47.7959
47.5121
47.2063
46.9205
46.7306
48.5204
48.4729
48.3775
48.2329
48.0385
47.7959
47.5121
47.2063
46.9205
46.7305
48.5203
48.4729
48.3774
48.2329
48.0385
47.7958
47.512
47.2062
46.9205
46.7305
48.5203
48.4729
48.3774
48.2328
48.0385
47.7958
47.512
47.2062
46.9205
46.7305
48.5203
48.4729
48.3774
48.2328
48.0385
47.7958
47.512
47.2062
46.9205
46.7305
48.5203
48.4729
48.3774
48.2329
48.0385
47.7958
47.512
47.2062
46.9205
46.7305
48.5203
48.4729
48.3775
48.2329
48.0385
47.7959
47.5121
47.2063
46.9205
46.7305
48.5204
48.473
48.3775
48.2329
48.0386
47.7959
47.5121
47.2063
46.9206
46.7306
48.5204
48.473
48.3776
48.233
48.0386
47.796
47.5122
47.2064
46.9206
46.7307
42.0433
41.9874
41.874
41.6997
41.4598
41.1493
40.7663
40.3199
39.852
39.4871
42.0432
41.9873
41.874
41.6996
41.4597
41.1492
40.7663
40.3198
39.852
39.4871
42.0431
41.9873
41.8739
41.6996
41.4596
41.1492
40.7662
40.3198
39.8519
39.487
42.0431
41.9872
41.8739
41.6995
41.4596
41.1491
40.7662
40.3197
39.8519
39.487
42.0431
41.9872
41.8738
41.6995
41.4596
41.1491
40.7662
40.3197
39.8519
39.487
42.0431
41.9872
41.8738
41.6995
41.4596
41.1491
40.7662
40.3197
39.8519
39.487
42.0431
41.9872
41.8739
41.6995
41.4596
41.1491
40.7662
40.3198
39.8519
39.487
42.0431
41.9873
41.8739
41.6996
41.4596
41.1492
40.7662
40.3198
39.8519
39.487
42.0431
41.9873
41.8739
41.6996
41.4597
41.1492
40.7663
40.3198
39.852
39.4871
42.0432
41.9874
41.874
41.6997
41.4597
41.1493
40.7663
40.3199
39.8521
39.4872
36.1175
36.0546
35.926
35.7258
35.4443
35.0676
34.5765
33.9484
33.1756
32.3754
36.1174
36.0545
35.9259
35.7257
35.4442
35.0675
34.5764
33.9483
33.1756
32.3754
36.1174
36.0544
35.9259
35.7256
35.4442
35.0675
34.5764
33.9482
33.1755
32.3753
36.1173
36.0544
35.9258
35.7256
35.4441
35.0674
34.5763
33.9482
33.1755
32.3753
36.1173
36.0544
35.9258
35.7256
35.4441
35.0674
34.5763
33.9482
33.1755
32.3753
36.1173
36.0544
35.9258
35.7256
35.4441
35.0674
34.5763
33.9482
33.1755
32.3753
36.1173
36.0544
35.9258
35.7256
35.4441
35.0675
34.5764
33.9482
33.1755
32.3753
36.1173
36.0544
35.9259
35.7256
35.4442
35.0675
34.5764
33.9482
33.1755
32.3753
36.1174
36.0545
35.9259
35.7257
35.4442
35.0675
34.5764
33.9483
33.1756
32.3754
36.1174
36.0545
35.926
35.7258
35.4443
35.0676
34.5765
33.9484
33.1756
32.3755
30.7584
30.6909
30.5525
30.3353
30.0258
29.6022
29.0266
28.2268
27.0362
24.978
30.7583
30.6909
30.5524
30.3352
30.0257
29.6021
29.0266
28.2267
27.0361
24.9779
30.7583
30.6908
30.5524
30.3351
30.0257
29.602
29.0265
28.2266
27.0361
24.9778
30.7582
30.6908
30.5523
30.3351
30.0256
29.602
29.0265
28.2266
27.036
24.9778
30.7582
30.6908
30.5523
30.3351
30.0256
29.602
29.0265
28.2266
27.036
24.9778
30.7582
30.6908
30.5523
30.3351
30.0256
29.602
29.0265
28.2266
27.036
24.9778
30.7582
30.6908
30.5523
30.3351
30.0256
29.602
29.0265
28.2266
27.036
24.9778
30.7582
30.6908
30.5524
30.3351
30.0257
29.602
29.0265
28.2267
27.0361
24.9778
30.7583
30.6908
30.5524
30.3352
30.0257
29.6021
29.0266
28.2267
27.0361
24.9779
30.7583
30.6909
30.5525
30.3353
30.0258
29.6022
29.0266
28.2268
27.0362
24.978
25.968
25.8993
25.7584
25.5371
25.2216
24.7896
24.2043
23.4038
22.2805
20.6685
25.9679
25.8993
25.7584
25.537
25.2215
24.7895
24.2043
23.4037
22.2804
20.6684
25.9678
25.8992
25.7583
25.537
25.2215
24.7894
24.2042
23.4036
22.2803
20.6683
25.9678
25.8992
25.7583
25.537
25.2214
24.7894
24.2042
23.4036
22.2803
20.6683
25.9678
25.8992
25.7583
25.5369
25.2214
24.7894
24.2042
23.4036
22.2803
20.6683
25.9678
25.8992
25.7583
25.5369
25.2214
24.7894
24.2042
23.4036
22.2803
20.6683
25.9678
25.8992
25.7583
25.537
25.2215
24.7894
24.2042
23.4036
22.2803
20.6683
25.9678
25.8992
25.7583
25.537
25.2215
24.7894
24.2042
23.4036
22.2803
20.6683
25.9679
25.8993
25.7584
25.537
25.2215
24.7895
24.2043
23.4037
22.2804
20.6684
25.9679
25.8993
25.7584
25.5371
25.2216
24.7896
24.2043
23.4038
22.2805
20.6685
21.7354
21.6692
21.5336
21.3219
21.0232
20.621
20.0917
19.4041
18.5248
17.4517
21.7354
21.6691
21.5336
21.3219
21.0231
20.6209
20.0917
19.404
18.5248
17.4516
21.7353
21.6691
21.5335
21.3218
21.0231
20.6209
20.0916
19.404
18.5247
17.4516
21.7353
21.6691
21.5335
21.3218
21.0231
20.6208
20.0916
19.404
18.5247
17.4515
21.7353
21.669
21.5335
21.3218
21.023
20.6208
20.0916
19.4039
18.5247
17.4515
21.7353
21.669
21.5335
21.3218
21.023
20.6208
20.0916
19.4039
18.5247
17.4515
21.7353
21.6691
21.5335
21.3218
21.0231
20.6208
20.0916
19.404
18.5247
17.4515
21.7353
21.6691
21.5335
21.3218
21.0231
20.6209
20.0916
19.404
18.5247
17.4516
21.7354
21.6691
21.5336
21.3219
21.0232
20.6209
20.0917
19.4041
18.5248
17.4516
21.7354
21.6692
21.5336
21.322
21.0232
20.621
20.0917
19.4041
18.5248
17.4517
18.0384
17.9776
17.854
17.6633
17.3988
17.0523
16.6149
16.0813
15.4604
14.8014
18.0383
17.9776
17.854
17.6632
17.3987
17.0522
16.6148
16.0812
15.4604
14.8014
18.0383
17.9775
17.8539
17.6632
17.3987
17.0522
16.6148
16.0811
15.4603
14.8013
18.0382
17.9775
17.8539
17.6631
17.3986
17.0521
16.6148
16.0811
15.4603
14.8013
18.0382
17.9775
17.8539
17.6631
17.3986
17.0521
16.6147
16.0811
15.4603
14.8013
18.0382
17.9775
17.8539
17.6631
17.3986
17.0521
16.6148
16.0811
15.4603
14.8013
18.0382
17.9775
17.8539
17.6631
17.3987
17.0522
16.6148
16.0811
15.4603
14.8013
18.0383
17.9775
17.8539
17.6632
17.3987
17.0522
16.6148
16.0812
15.4603
14.8013
18.0383
17.9776
17.854
17.6632
17.3987
17.0522
16.6149
16.0812
15.4604
14.8014
18.0384
17.9776
17.8541
17.6633
17.3988
17.0523
16.6149
16.0813
15.4604
14.8014
14.8447
14.7917
14.6847
14.5219
14.3016
14.0229
13.6883
13.3085
12.9105
12.5507
14.8447
14.7916
14.6846
14.5219
14.3016
14.0228
13.6883
13.3084
12.9104
12.5506
14.8446
14.7916
14.6846
14.5218
14.3015
14.0228
13.6882
13.3084
12.9103
12.5506
14.8446
14.7916
14.6845
14.5218
14.3015
14.0228
13.6882
13.3084
12.9103
12.5505
14.8446
14.7915
14.6845
14.5218
14.3015
14.0227
13.6882
13.3083
12.9103
12.5505
14.8446
14.7915
14.6845
14.5218
14.3015
14.0227
13.6882
13.3084
12.9103
12.5505
14.8446
14.7916
14.6845
14.5218
14.3015
14.0228
13.6882
13.3084
12.9103
12.5505
14.8446
14.7916
14.6846
14.5218
14.3015
14.0228
13.6882
13.3084
12.9104
12.5506
14.8447
14.7916
14.6846
14.5219
14.3016
14.0228
13.6883
13.3085
12.9104
12.5506
14.8447
14.7917
14.6847
14.522
14.3016
14.0229
13.6883
13.3085
12.9105
12.5507
12.1155
12.0712
11.9829
11.8512
11.6781
11.4684
11.2325
10.9895
10.7724
10.6321
12.1154
12.0712
11.9829
11.8511
11.678
11.4683
11.2324
10.9895
10.7723
10.632
12.1154
12.0711
11.9828
11.8511
11.678
11.4683
11.2324
10.9894
10.7722
10.632
12.1154
12.0711
11.9828
11.8511
11.6779
11.4683
11.2324
10.9894
10.7722
10.6319
12.1153
12.0711
11.9828
11.8511
11.6779
11.4683
11.2323
10.9894
10.7722
10.6319
12.1153
12.0711
11.9828
11.8511
11.6779
11.4683
11.2324
10.9894
10.7722
10.6319
12.1154
12.0711
11.9828
11.8511
11.6779
11.4683
11.2324
10.9894
10.7722
10.6319
12.1154
12.0711
11.9828
11.8511
11.678
11.4683
11.2324
10.9894
10.7723
10.632
12.1154
12.0712
11.9829
11.8512
11.678
11.4684
11.2324
10.9895
10.7723
10.632
12.1155
12.0712
11.9829
11.8512
11.6781
11.4684
11.2325
10.9895
10.7724
10.6321
9.80703
9.77174
9.7022
9.60088
9.47265
9.3264
9.17725
9.04932
8.97783
9.00823
9.80699
9.77169
9.70216
9.60084
9.47261
9.32635
9.1772
9.04927
8.97778
9.00817
9.80695
9.77165
9.70212
9.6008
9.47257
9.32631
9.17716
9.04923
8.97774
9.00813
9.80693
9.77163
9.7021
9.60078
9.47255
9.32629
9.17714
9.0492
8.97771
9.0081
9.80692
9.77162
9.70209
9.60077
9.47254
9.32628
9.17713
9.04919
8.9777
9.00808
9.80692
9.77162
9.70209
9.60077
9.47254
9.32628
9.17713
9.04919
8.9777
9.00809
9.80693
9.77164
9.7021
9.60078
9.47256
9.3263
9.17715
9.04921
8.97772
9.0081
9.80696
9.77166
9.70213
9.60081
9.47258
9.32633
9.17718
9.04924
8.97775
9.00814
9.80699
9.7717
9.70217
9.60085
9.47262
9.32637
9.17722
9.04929
8.97779
9.00818
9.80703
9.77175
9.70222
9.60091
9.47268
9.32642
9.17728
9.04934
8.97785
9.00825
7.87394
7.84694
7.79458
7.72049
7.63134
7.53844
7.46
7.42392
7.46988
7.64631
7.8739
7.8469
7.79454
7.72045
7.6313
7.5384
7.45995
7.42387
7.46983
7.64626
7.87387
7.84687
7.79451
7.72042
7.63127
7.53837
7.45992
7.42384
7.46979
7.64622
7.87385
7.84685
7.79449
7.7204
7.63125
7.53835
7.4599
7.42382
7.46977
7.64619
7.87384
7.84684
7.79448
7.72039
7.63124
7.53834
7.45989
7.42381
7.46976
7.64618
7.87384
7.84684
7.79448
7.72039
7.63125
7.53834
7.45989
7.42381
7.46976
7.64619
7.87385
7.84685
7.79449
7.72041
7.63126
7.53836
7.45991
7.42383
7.46978
7.6462
7.87387
7.84688
7.79452
7.72043
7.63128
7.53838
7.45994
7.42385
7.4698
7.64623
7.8739
7.84691
7.79455
7.72047
7.63132
7.53842
7.45998
7.42389
7.46985
7.64628
7.87394
7.84695
7.7946
7.72052
7.63137
7.53847
7.46003
7.42395
7.4699
7.64633
6.27079
6.25092
6.21309
6.16145
6.10336
6.05099
6.02379
6.05263
6.18612
6.49731
6.27075
6.25088
6.21305
6.16141
6.10333
6.05095
6.02375
6.05258
6.18607
6.49727
6.27072
6.25086
6.21303
6.16138
6.1033
6.05092
6.02372
6.05255
6.18604
6.49723
6.27071
6.25084
6.21301
6.16137
6.10328
6.0509
6.0237
6.05253
6.18602
6.49721
6.2707
6.25083
6.213
6.16136
6.10327
6.0509
6.0237
6.05253
6.18601
6.4972
6.2707
6.25083
6.213
6.16136
6.10328
6.0509
6.0237
6.05253
6.18601
6.4972
6.27071
6.25084
6.21302
6.16137
6.10329
6.05091
6.02371
6.05254
6.18603
6.49722
6.27073
6.25086
6.21304
6.1614
6.10331
6.05094
6.02374
6.05257
6.18606
6.49725
6.27076
6.25089
6.21307
6.16143
6.10335
6.05097
6.02377
6.05261
6.18609
6.49729
6.27079
6.25093
6.21311
6.16147
6.10339
6.05101
6.02382
6.05265
6.18614
6.49734
4.95392
4.93977
4.91336
4.87873
4.84284
4.81685
4.81837
4.87621
5.04338
5.44299
4.95389
4.93974
4.91333
4.8787
4.84281
4.81682
4.81834
4.87617
5.04334
5.44295
4.95387
4.93972
4.9133
4.87867
4.84278
4.81679
4.81831
4.87615
5.04332
5.44292
4.95385
4.9397
4.91329
4.87866
4.84277
4.81678
4.8183
4.87613
5.0433
5.4429
4.95385
4.9397
4.91328
4.87865
4.84276
4.81677
4.81829
4.87612
5.04329
5.44289
4.95385
4.9397
4.91329
4.87865
4.84276
4.81677
4.81829
4.87613
5.0433
5.4429
4.95386
4.93971
4.9133
4.87866
4.84278
4.81679
4.81831
4.87614
5.04331
5.44291
4.95387
4.93973
4.91331
4.87868
4.8428
4.81681
4.81833
4.87616
5.04333
5.44294
4.9539
4.93975
4.91334
4.87871
4.84282
4.81684
4.81836
4.87619
5.04337
5.44297
4.95393
4.93978
4.91338
4.87875
4.84286
4.81688
4.8184
4.87624
5.04341
5.44302
20.3626
18.1785
17.6047
18.3667
20.4308
23.9158
29.0896
36.4303
46.7972
61.8898
20.3625
18.1785
17.6046
18.3666
20.4307
23.9156
29.0894
36.4302
46.797
61.8896
20.3624
18.1784
17.6045
18.3665
20.4306
23.9155
29.0893
36.4301
46.7969
61.8894
20.3624
18.1783
17.6045
18.3665
20.4306
23.9155
29.0893
36.43
46.7968
61.8893
20.3624
18.1783
17.6044
18.3665
20.4305
23.9154
29.0892
36.4299
46.7967
61.8893
20.3624
18.1783
17.6044
18.3665
20.4305
23.9154
29.0892
36.4299
46.7967
61.8892
20.3624
18.1783
17.6045
18.3665
20.4306
23.9155
29.0892
36.4299
46.7968
61.8893
20.3624
18.1784
17.6045
18.3665
20.4306
23.9155
29.0893
36.43
46.7968
61.8894
20.3625
18.1784
17.6046
18.3666
20.4307
23.9156
29.0894
36.4301
46.7969
61.8895
20.3626
18.1785
17.6046
18.3666
20.4307
23.9157
29.0895
36.4302
46.797
61.8896
18.4922
17.1652
16.9101
17.7609
19.7724
23.0675
27.8539
34.439
43.2235
54.5547
18.4921
17.1651
16.91
17.7607
19.7723
23.0674
27.8538
34.4388
43.2234
54.5545
18.492
17.165
16.91
17.7607
19.7722
23.0673
27.8537
34.4387
43.2232
54.5543
18.492
17.165
16.9099
17.7606
19.7721
23.0672
27.8536
34.4386
43.2232
54.5542
18.492
17.1649
16.9099
17.7606
19.7721
23.0672
27.8535
34.4386
43.2231
54.5542
18.492
17.1649
16.9099
17.7606
19.7721
23.0672
27.8535
34.4386
43.2231
54.5542
18.492
17.165
16.9099
17.7606
19.7721
23.0672
27.8536
34.4386
43.2231
54.5542
18.492
17.165
16.91
17.7606
19.7722
23.0672
27.8536
34.4387
43.2232
54.5543
18.4921
17.1651
16.91
17.7607
19.7722
23.0673
27.8537
34.4388
43.2233
54.5544
18.4922
17.1651
16.9101
17.7608
19.7723
23.0674
27.8538
34.4389
43.2235
54.5546
16.3276
15.6695
15.7434
16.6816
18.5828
21.5565
25.7359
31.2634
38.2281
46.4869
16.3275
15.6694
15.7433
16.6815
18.5827
21.5564
25.7357
31.2632
38.2279
46.4867
16.3274
15.6693
15.7432
16.6814
18.5826
21.5563
25.7356
31.2631
38.2278
46.4866
16.3274
15.6693
15.7432
16.6814
18.5825
21.5562
25.7356
31.263
38.2277
46.4865
16.3274
15.6692
15.7431
16.6813
18.5825
21.5562
25.7355
31.263
38.2277
46.4865
16.3274
15.6692
15.7431
16.6813
18.5825
21.5562
25.7355
31.263
38.2277
46.4865
16.3274
15.6693
15.7431
16.6813
18.5825
21.5562
25.7356
31.263
38.2277
46.4865
16.3274
15.6693
15.7432
16.6814
18.5826
21.5563
25.7356
31.2631
38.2278
46.4866
16.3275
15.6694
15.7432
16.6815
18.5826
21.5564
25.7357
31.2632
38.2279
46.4867
16.3276
15.6694
15.7433
16.6815
18.5827
21.5565
25.7358
31.2633
38.228
46.4869
14.2384
14.0171
14.3304
15.3099
17.0537
19.6458
23.1582
27.6306
33.0177
39.0917
14.2384
14.017
14.3303
15.3098
17.0536
19.6456
23.1581
27.6305
33.0176
39.0916
14.2383
14.0169
14.3303
15.3098
17.0535
19.6455
23.158
27.6304
33.0174
39.0914
14.2383
14.0169
14.3302
15.3097
17.0534
19.6455
23.1579
27.6303
33.0174
39.0914
14.2382
14.0169
14.3302
15.3097
17.0534
19.6455
23.1579
27.6303
33.0173
39.0913
14.2382
14.0169
14.3302
15.3097
17.0534
19.6455
23.1579
27.6303
33.0173
39.0913
14.2383
14.0169
14.3302
15.3097
17.0534
19.6455
23.1579
27.6303
33.0174
39.0914
14.2383
14.0169
14.3303
15.3098
17.0535
19.6455
23.1579
27.6304
33.0174
39.0914
14.2384
14.017
14.3303
15.3098
17.0536
19.6456
23.158
27.6305
33.0175
39.0916
14.2384
14.0171
14.3304
15.3099
17.0537
19.6457
23.1582
27.6306
33.0177
39.0917
12.3291
12.3851
12.8482
13.8215
15.3831
17.5896
20.4718
24.0178
28.1433
32.6523
12.329
12.385
12.8482
13.8214
15.383
17.5895
20.4717
24.0177
28.1431
32.6522
12.3289
12.3849
12.8481
13.8213
15.3829
17.5894
20.4716
24.0176
28.143
32.6521
12.3289
12.3849
12.848
13.8213
15.3828
17.5894
20.4715
24.0175
28.1429
32.652
12.3289
12.3849
12.848
13.8213
15.3828
17.5893
20.4715
24.0175
28.1429
32.652
12.3289
12.3849
12.848
13.8213
15.3828
17.5893
20.4715
24.0175
28.1429
32.652
12.3289
12.3849
12.848
13.8213
15.3828
17.5894
20.4715
24.0175
28.1429
32.652
12.3289
12.3849
12.8481
13.8213
15.3829
17.5894
20.4716
24.0176
28.143
32.6521
12.329
12.385
12.8482
13.8214
15.383
17.5895
20.4717
24.0176
28.1431
32.6522
12.3291
12.3851
12.8482
13.8215
15.3831
17.5896
20.4718
24.0178
28.1433
32.6523
10.6391
10.8764
11.4275
12.3648
13.7436
15.5971
17.9303
20.7086
23.8459
27.1949
10.639
10.8764
11.4275
12.3647
13.7435
15.597
17.9302
20.7085
23.8457
27.1948
10.639
10.8763
11.4274
12.3647
13.7434
15.5969
17.9301
20.7084
23.8456
27.1947
10.6389
10.8763
11.4274
12.3646
13.7433
15.5969
17.93
20.7084
23.8456
27.1946
10.6389
10.8763
11.4273
12.3646
13.7433
15.5969
17.93
20.7083
23.8455
27.1946
10.6389
10.8763
11.4273
12.3646
13.7433
15.5969
17.93
20.7083
23.8455
27.1946
10.6389
10.8763
11.4274
12.3646
13.7433
15.5969
17.93
20.7084
23.8456
27.1946
10.639
10.8763
11.4274
12.3647
13.7434
15.5969
17.9301
20.7084
23.8456
27.1947
10.639
10.8764
11.4275
12.3647
13.7435
15.597
17.9302
20.7085
23.8457
27.1948
10.6391
10.8765
11.4275
12.3648
13.7436
15.5971
17.9303
20.7086
23.8459
27.1949
9.18852
9.55807
10.1651
11.0578
12.2731
13.827
15.7081
17.8707
20.2336
22.6868
9.18845
9.558
10.165
11.0577
12.273
13.8269
15.708
17.8706
20.2335
22.6867
9.18841
9.55795
10.1649
11.0577
12.2729
13.8269
15.7079
17.8705
20.2334
22.6866
9.18837
9.55792
10.1649
11.0576
12.2729
13.8268
15.7078
17.8705
20.2334
22.6865
9.18836
9.5579
10.1649
11.0576
12.2729
13.8268
15.7078
17.8705
20.2333
22.6865
9.18836
9.55791
10.1649
11.0576
12.2729
13.8268
15.7078
17.8705
20.2333
22.6865
9.18838
9.55793
10.1649
11.0576
12.2729
13.8268
15.7078
17.8705
20.2334
22.6865
9.18842
9.55796
10.1649
11.0577
12.2729
13.8269
15.7079
17.8706
20.2334
22.6866
9.18847
9.55802
10.165
11.0577
12.273
13.827
15.708
17.8706
20.2335
22.6867
9.18853
9.55809
10.1651
11.0578
12.2731
13.8271
15.7081
17.8708
20.2337
22.6868
7.99038
8.47951
9.13468
9.99153
11.0769
12.3964
13.9268
15.6122
17.367
19.0929
7.99032
8.47944
9.1346
9.99145
11.0769
12.3963
13.9267
15.6121
17.3669
19.0928
7.99028
8.47939
9.13455
9.99139
11.0768
12.3962
13.9266
15.6121
17.3668
19.0927
7.99025
8.47936
9.13452
9.99136
11.0768
12.3962
13.9265
15.612
17.3668
19.0926
7.99024
8.47935
9.1345
9.99134
11.0767
12.3962
13.9265
15.612
17.3668
19.0926
7.99024
8.47935
9.13451
9.99134
11.0767
12.3962
13.9265
15.612
17.3668
19.0926
7.99026
8.47937
9.13453
9.99137
11.0768
12.3962
13.9265
15.612
17.3668
19.0926
7.99029
8.47941
9.13456
9.99141
11.0768
12.3963
13.9266
15.6121
17.3669
19.0927
7.99034
8.47946
9.13462
9.99147
11.0769
12.3963
13.9267
15.6122
17.367
19.0928
7.9904
8.47952
9.13469
9.99155
11.077
12.3964
13.9268
15.6123
17.3671
19.0929
7.0614
7.68745
8.3969
9.23578
10.2334
11.391
12.6767
14.0201
15.3109
16.4123
7.06135
7.68739
8.39684
9.23571
10.2333
11.391
12.6766
14.02
15.3108
16.4122
7.06131
7.68735
8.39679
9.23565
10.2332
11.3909
12.6765
14.0199
15.3107
16.4121
7.06129
7.68732
8.39676
9.23562
10.2332
11.3909
12.6765
14.0198
15.3107
16.4121
7.06128
7.68731
8.39675
9.23561
10.2332
11.3908
12.6765
14.0198
15.3107
16.4121
7.06128
7.68731
8.39675
9.23561
10.2332
11.3908
12.6765
14.0198
15.3107
16.4121
7.0613
7.68733
8.39677
9.23563
10.2332
11.3909
12.6765
14.0199
15.3107
16.4121
7.06133
7.68737
8.39681
9.23567
10.2332
11.3909
12.6766
14.0199
15.3108
16.4122
7.06137
7.68742
8.39686
9.23573
10.2333
11.391
12.6766
14.02
15.3109
16.4123
7.06143
7.68748
8.39693
9.23581
10.2334
11.3911
12.6767
14.0201
15.311
16.4124
6.45962
7.24436
8.00588
8.84239
9.79684
10.8715
12.0286
13.1826
14.1828
14.7679
6.45957
7.24431
8.00583
8.84233
9.79678
10.8715
12.0285
13.1825
14.1827
14.7679
6.45954
7.24427
8.00579
8.84229
9.79673
10.8714
12.0284
13.1824
14.1827
14.7678
6.45952
7.24425
8.00576
8.84226
9.7967
10.8714
12.0284
13.1824
14.1826
14.7678
6.45951
7.24424
8.00575
8.84225
9.79668
10.8713
12.0284
13.1824
14.1826
14.7677
6.45951
7.24424
8.00575
8.84225
9.79668
10.8714
12.0284
13.1824
14.1826
14.7677
6.45953
7.24426
8.00577
8.84227
9.79671
10.8714
12.0284
13.1824
14.1826
14.7678
6.45956
7.24429
8.00581
8.84231
9.79675
10.8714
12.0285
13.1825
14.1827
14.7678
6.4596
7.24434
8.00586
8.84237
9.79681
10.8715
12.0285
13.1825
14.1828
14.7679
6.45965
7.2444
8.00593
8.84244
9.7969
10.8716
12.0286
13.1827
14.1829
14.768
85.6037
96.5767
103.073
107.462
110.602
112.886
114.533
115.675
116.396
116.745
85.6035
96.5764
103.073
107.462
110.601
112.886
114.533
115.675
116.396
116.744
85.6033
96.5763
103.073
107.462
110.601
112.886
114.533
115.675
116.395
116.744
85.6032
96.5761
103.072
107.461
110.601
112.886
114.533
115.675
116.395
116.744
85.6031
96.5761
103.072
107.461
110.601
112.885
114.533
115.675
116.395
116.744
85.6031
96.5761
103.072
107.461
110.601
112.885
114.533
115.675
116.395
116.744
85.6032
96.5761
103.072
107.461
110.601
112.886
114.533
115.675
116.395
116.744
85.6032
96.5762
103.073
107.462
110.601
112.886
114.533
115.675
116.395
116.744
85.6034
96.5764
103.073
107.462
110.601
112.886
114.533
115.675
116.396
116.744
85.6035
96.5766
103.073
107.462
110.601
112.886
114.533
115.675
116.396
116.745
67.8614
77.3952
83.9668
88.5967
91.9294
94.3466
96.0809
97.2785
98.0318
98.3957
67.8612
77.395
83.9666
88.5965
91.9291
94.3464
96.0807
97.2783
98.0316
98.3955
67.861
77.3948
83.9664
88.5963
91.9289
94.3462
96.0805
97.2781
98.0314
98.3953
67.8609
77.3947
83.9663
88.5962
91.9288
94.3461
96.0804
97.278
98.0313
98.3952
67.8609
77.3946
83.9663
88.5961
91.9288
94.346
96.0803
97.278
98.0313
98.3952
67.8609
77.3946
83.9663
88.5961
91.9288
94.346
96.0804
97.278
98.0313
98.3952
67.8609
77.3947
83.9663
88.5962
91.9288
94.3461
96.0804
97.2781
98.0314
98.3953
67.861
77.3948
83.9664
88.5963
91.929
94.3462
96.0806
97.2782
98.0315
98.3954
67.8611
77.3949
83.9666
88.5965
91.9291
94.3464
96.0808
97.2784
98.0317
98.3956
67.8613
77.3951
83.9668
88.5967
91.9294
94.3467
96.081
97.2786
98.032
98.3959
55.2558
62.6362
68.3405
72.6308
75.828
78.1891
79.8991
81.0857
81.834
82.1959
55.2557
62.636
68.3403
72.6306
75.8278
78.1889
79.8989
81.0855
81.8338
82.1957
55.2555
62.6359
68.3401
72.6304
75.8276
78.1887
79.8987
81.0853
81.8336
82.1956
55.2554
62.6358
68.34
72.6303
75.8275
78.1886
79.8986
81.0852
81.8335
82.1955
55.2554
62.6357
68.3399
72.6302
75.8275
78.1886
79.8986
81.0852
81.8335
82.1955
55.2554
62.6357
68.3399
72.6302
75.8275
78.1886
79.8986
81.0852
81.8335
82.1955
55.2554
62.6358
68.34
72.6303
75.8275
78.1887
79.8986
81.0853
81.8336
82.1956
55.2555
62.6359
68.3401
72.6304
75.8277
78.1888
79.8988
81.0854
81.8337
82.1957
55.2556
62.636
68.3403
72.6306
75.8278
78.189
79.899
81.0856
81.8339
82.1959
55.2558
62.6362
68.3405
72.6308
75.8281
78.1892
79.8992
81.0859
81.8342
82.1962
45.3231
50.9277
55.5793
59.2744
62.1338
64.2986
65.892
67.0091
67.718
68.0621
45.3229
50.9276
55.5791
59.2742
62.1336
64.2984
65.8917
67.0089
67.7178
68.0619
45.3228
50.9274
55.579
59.274
62.1334
64.2983
65.8916
67.0087
67.7177
68.0618
45.3227
50.9273
55.5789
59.274
62.1333
64.2982
65.8915
67.0086
67.7176
68.0617
45.3226
50.9273
55.5788
59.2739
62.1333
64.2981
65.8915
67.0086
67.7176
68.0617
45.3226
50.9273
55.5789
59.2739
62.1333
64.2981
65.8915
67.0086
67.7176
68.0617
45.3227
50.9273
55.5789
59.274
62.1333
64.2982
65.8915
67.0087
67.7177
68.0618
45.3228
50.9274
55.579
59.2741
62.1335
64.2983
65.8917
67.0088
67.7178
68.0619
45.3229
50.9276
55.5792
59.2742
62.1336
64.2985
65.8918
67.009
67.718
68.0621
45.3231
50.9278
55.5794
59.2745
62.1338
64.2987
65.8921
67.0093
67.7182
68.0624
37.2183
41.4547
45.129
48.1704
50.6037
52.4931
53.9094
54.9152
55.5589
55.8727
37.2181
41.4545
45.1288
48.1702
50.6035
52.4929
53.9092
54.915
55.5587
55.8726
37.218
41.4544
45.1287
48.1701
50.6034
52.4927
53.9091
54.9149
55.5586
55.8725
37.2179
41.4543
45.1286
48.17
50.6033
52.4926
53.909
54.9148
55.5585
55.8724
37.2179
41.4543
45.1286
48.1699
50.6032
52.4926
53.9089
54.9148
55.5585
55.8724
37.2179
41.4543
45.1286
48.1699
50.6032
52.4926
53.9089
54.9148
55.5585
55.8724
37.2179
41.4543
45.1286
48.17
50.6033
52.4927
53.909
54.9149
55.5586
55.8725
37.218
41.4544
45.1287
48.1701
50.6034
52.4928
53.9091
54.915
55.5587
55.8726
37.2181
41.4545
45.1289
48.1703
50.6036
52.493
53.9093
54.9151
55.5589
55.8728
37.2183
41.4547
45.1291
48.1705
50.6038
52.4932
53.9095
54.9154
55.5591
55.873
30.5579
33.7297
36.5621
38.9819
40.9742
42.5583
43.7681
44.639
45.2016
45.4775
30.5577
33.7295
36.5619
38.9817
40.974
42.5581
43.7679
44.6389
45.2015
45.4773
30.5576
33.7294
36.5618
38.9816
40.9739
42.558
43.7678
44.6387
45.2014
45.4772
30.5575
33.7293
36.5617
38.9815
40.9738
42.5579
43.7677
44.6387
45.2013
45.4772
30.5575
33.7293
36.5617
38.9815
40.9737
42.5579
43.7676
44.6386
45.2013
45.4771
30.5575
33.7293
36.5617
38.9815
40.9738
42.5579
43.7677
44.6387
45.2013
45.4772
30.5575
33.7293
36.5618
38.9815
40.9738
42.558
43.7677
44.6387
45.2014
45.4772
30.5576
33.7294
36.5619
38.9816
40.9739
42.5581
43.7678
44.6388
45.2015
45.4774
30.5577
33.7295
36.562
38.9818
40.9741
42.5582
43.768
44.639
45.2016
45.4775
30.5579
33.7297
36.5622
38.9819
40.9743
42.5584
43.7682
44.6392
45.2018
45.4777
25.1157
27.4314
29.5508
31.4138
32.9896
34.2719
35.2695
35.998
36.4732
36.7076
25.1156
27.4313
29.5507
31.4136
32.9894
34.2717
35.2694
35.9979
36.4731
36.7075
25.1155
27.4312
29.5506
31.4135
32.9893
34.2716
35.2693
35.9978
36.473
36.7074
25.1155
27.4311
29.5505
31.4135
32.9892
34.2715
35.2692
35.9977
36.4729
36.7073
25.1154
27.4311
29.5505
31.4134
32.9892
34.2715
35.2692
35.9977
36.4729
36.7073
25.1154
27.4311
29.5505
31.4134
32.9892
34.2715
35.2692
35.9977
36.4729
36.7073
25.1155
27.4311
29.5505
31.4135
32.9893
34.2716
35.2692
35.9977
36.473
36.7074
25.1155
27.4312
29.5506
31.4136
32.9894
34.2717
35.2693
35.9978
36.4731
36.7075
25.1156
27.4313
29.5508
31.4137
32.9895
34.2718
35.2695
35.998
36.4732
36.7076
25.1158
27.4315
29.5509
31.4139
32.9897
34.272
35.2697
35.9982
36.4734
36.7078
20.7279
22.3187
23.831
25.2098
26.4128
27.4167
28.2133
28.8037
29.1928
29.3858
20.7278