/*--------------------------------*- C++ -*----------------------------------*\
  =========                 |
  \\      /  F ield         | OpenFOAM: The Open Source CFD Toolbox
   \\    /   O peration     | Website:  https://openfoam.org
    \\  /    A nd           | Version:  6
     \\/     M anipulation  |
\*---------------------------------------------------------------------------*/
FoamFile
{
    version     2.0;
    format      ascii;
    class       surfaceScalarField;
    location    "0.05";
    object      phi;
}
// * * * * * * * * * * * * * * * * * * * * * * * * * * * * * * * * * * * * * //

dimensions      [0 3 -1 0 0 0 0];

internalField   nonuniform List<scalar> 
162000
(
-5.37415e-14
1.63752e-12
5.40934e-07
1.6851e-12
5.40934e-07
-1.6136e-14
3.93654e-12
8.30823e-07
3.96825e-12
8.30823e-07
-3.05155e-15
6.0767e-12
9.08506e-07
6.08568e-12
9.08506e-07
-9.67988e-16
7.61441e-12
9.29334e-07
7.61706e-12
9.29334e-07
-2.76756e-16
8.31068e-12
9.34926e-07
8.31168e-12
9.34926e-07
3.03675e-17
8.08992e-12
9.3644e-07
8.0903e-12
9.3644e-07
1.47138e-16
6.98395e-12
9.36859e-07
6.98408e-12
9.36859e-07
1.879e-16
5.11983e-12
9.3698e-07
5.11986e-12
9.3698e-07
1.99225e-16
2.70346e-12
9.3702e-07
2.70347e-12
9.3702e-07
1.981e-16
-3.52375e-15
9.37034e-07
-3.53125e-15
9.37034e-07
1.9125e-16
-2.71075e-12
9.37034e-07
-2.71077e-12
9.37034e-07
1.8155e-16
-5.1279e-12
9.3702e-07
-5.12793e-12
9.3702e-07
1.70363e-16
-6.99346e-12
9.3698e-07
-6.99349e-12
9.3698e-07
1.56787e-16
-8.10178e-12
9.36859e-07
-8.1018e-12
9.36859e-07
1.38873e-16
-8.32623e-12
9.3644e-07
-8.32624e-12
9.3644e-07
1.24304e-16
-7.63623e-12
9.34926e-07
-7.63629e-12
9.34926e-07
1.36638e-16
-6.11265e-12
9.29334e-07
-6.11295e-12
9.29334e-07
-3.47625e-17
-4.00666e-12
9.08506e-07
-4.0071e-12
9.08506e-07
-4.05625e-16
-1.72245e-12
8.30823e-07
-1.72276e-12
8.30823e-07
-4.8975e-16
5.40934e-07
5.40934e-07
-1.55601e-14
5.31745e-12
5.40929e-07
5.3311e-12
5.40929e-07
-6.45913e-15
1.24152e-11
8.30815e-07
1.24256e-11
8.30815e-07
-1.53525e-15
1.89678e-11
9.085e-07
1.89718e-11
9.085e-07
-9.8175e-17
2.37025e-11
9.29329e-07
2.37042e-11
9.29329e-07
4.70487e-16
2.58423e-11
9.34924e-07
2.5843e-11
9.34924e-07
7.16534e-16
2.51403e-11
9.3644e-07
2.51406e-11
9.3644e-07
8.16137e-16
2.16949e-11
9.36861e-07
2.1695e-11
9.36861e-07
8.55e-16
1.59012e-11
9.36986e-07
1.59012e-11
9.36986e-07
8.68225e-16
8.3979e-12
9.37027e-07
8.3979e-12
9.37027e-07
8.69362e-16
-4.4e-15
9.37043e-07
-4.4125e-15
9.37043e-07
8.64225e-16
-8.40692e-12
9.37042e-07
-8.40695e-12
9.37042e-07
8.55175e-16
-1.59109e-11
9.37027e-07
-1.59109e-11
9.37027e-07
8.42875e-16
-2.17059e-11
9.36986e-07
-2.17059e-11
9.36986e-07
8.26537e-16
-2.51533e-11
9.36861e-07
-2.51533e-11
9.36861e-07
8.05053e-16
-2.58581e-11
9.3644e-07
-2.58583e-11
9.3644e-07
7.74575e-16
-2.37225e-11
9.34924e-07
-2.37227e-11
9.34924e-07
7.26675e-16
-1.89943e-11
9.29329e-07
-1.89943e-11
9.29329e-07
7.2425e-16
-1.24518e-11
9.085e-07
-1.24518e-11
9.085e-07
7.6675e-16
-5.35271e-12
8.30815e-07
-5.35289e-12
8.30815e-07
5.20375e-16
5.40929e-07
5.40929e-07
-1.8675e-15
9.55316e-12
5.40919e-07
9.55566e-12
5.40919e-07
-5.8025e-16
2.22277e-11
8.30803e-07
2.22309e-11
8.30803e-07
7.1375e-16
3.39039e-11
9.08488e-07
3.39056e-11
9.08487e-07
1.415e-15
4.23282e-11
9.2932e-07
4.23292e-11
9.2932e-07
1.78608e-15
4.61156e-11
9.3492e-07
4.61161e-11
9.3492e-07
1.96991e-15
4.4834e-11
9.36441e-07
4.48342e-11
9.36441e-07
2.0584e-15
3.86685e-11
9.36868e-07
3.86687e-11
9.36868e-07
2.1005e-15
2.83305e-11
9.36996e-07
2.83306e-11
9.36996e-07
2.119e-15
1.49595e-11
9.37041e-07
1.49595e-11
9.37041e-07
2.12437e-15
-5.0875e-15
9.37058e-07
-5.0875e-15
9.37058e-07
2.12163e-15
-1.49698e-11
9.37057e-07
-1.49698e-11
9.37057e-07
2.1125e-15
-2.83413e-11
9.37041e-07
-2.83413e-11
9.37041e-07
2.09638e-15
-3.86802e-11
9.36996e-07
-3.86804e-11
9.36996e-07
2.0706e-15
-4.48471e-11
9.36868e-07
-4.48472e-11
9.36868e-07
2.02915e-15
-4.61305e-11
9.36441e-07
-4.61306e-11
9.36441e-07
1.9752e-15
-4.23449e-11
9.3492e-07
-4.23453e-11
9.3492e-07
1.90125e-15
-3.39224e-11
9.2932e-07
-3.39229e-11
9.2932e-07
1.68862e-15
-2.22473e-11
9.08487e-07
-2.22479e-11
9.08487e-07
1.24925e-15
-9.56641e-12
8.30803e-07
-9.56708e-12
8.30803e-07
6.65e-16
5.40919e-07
5.40919e-07
7.1e-16
1.4819e-11
5.40905e-07
1.4821e-11
5.40905e-07
2.0055e-15
3.44529e-11
8.30782e-07
3.44551e-11
8.30783e-07
3.15613e-15
5.25039e-11
9.08469e-07
5.25055e-11
9.08469e-07
3.869e-15
6.54891e-11
9.29306e-07
6.54901e-11
9.29306e-07
4.2624e-15
7.12799e-11
9.34914e-07
7.12804e-11
9.34914e-07
4.47742e-15
6.9234e-11
9.36444e-07
6.92343e-11
9.36444e-07
4.59513e-15
5.9664e-11
9.36878e-07
5.96643e-11
9.36878e-07
4.65812e-15
4.36853e-11
9.37012e-07
4.36854e-11
9.37012e-07
4.68962e-15
2.30589e-11
9.37062e-07
2.30589e-11
9.37062e-07
4.70187e-15
-5.6125e-15
9.37081e-07
-5.625e-15
9.37081e-07
4.7005e-15
-2.30702e-11
9.37081e-07
-2.30703e-11
9.37081e-07
4.68687e-15
-4.36969e-11
9.37062e-07
-4.36971e-11
9.37062e-07
4.65763e-15
-5.96762e-11
9.37013e-07
-5.96765e-11
9.37013e-07
4.60575e-15
-6.92469e-11
9.36878e-07
-6.92473e-11
9.36878e-07
4.51851e-15
-7.12938e-11
9.36444e-07
-7.12941e-11
9.36444e-07
4.37469e-15
-6.5504e-11
9.34914e-07
-6.55044e-11
9.34914e-07
4.13975e-15
-5.2519e-11
9.29306e-07
-5.25195e-11
9.29306e-07
3.86913e-15
-3.44666e-11
9.08469e-07
-3.44672e-11
9.08469e-07
3.54288e-15
-1.48271e-11
8.30783e-07
-1.48281e-11
8.30783e-07
2.49625e-15
5.40905e-07
5.40905e-07
5.56875e-15
2.17172e-11
5.40885e-07
2.17202e-11
5.40885e-07
8.36e-15
5.04535e-11
8.30753e-07
5.04561e-11
8.30753e-07
9.78963e-15
7.68076e-11
9.08441e-07
7.68099e-11
9.08441e-07
1.07711e-14
9.56849e-11
9.29286e-07
9.56864e-11
9.29286e-07
1.1395e-14
1.04005e-10
9.34906e-07
1.04006e-10
9.34906e-07
1.17745e-14
1.00887e-10
9.36446e-07
1.00888e-10
9.36446e-07
1.19975e-14
8.68408e-11
9.36891e-07
8.68411e-11
9.36891e-07
1.21229e-14
6.35264e-11
9.37036e-07
6.35266e-11
9.37036e-07
1.21885e-14
3.35135e-11
9.37092e-07
3.35136e-11
9.37092e-07
1.22165e-14
-6.05e-15
9.37115e-07
-6.05e-15
9.37115e-07
1.22174e-14
-3.35256e-11
9.37115e-07
-3.35256e-11
9.37115e-07
1.21915e-14
-6.35388e-11
9.37092e-07
-6.35389e-11
9.37092e-07
1.21306e-14
-8.68534e-11
9.37036e-07
-8.68538e-11
9.37036e-07
1.20144e-14
-1.009e-10
9.36891e-07
-1.00901e-10
9.36891e-07
1.181e-14
-1.04018e-10
9.36446e-07
-1.04019e-10
9.36446e-07
1.14747e-14
-9.56976e-11
9.34906e-07
-9.5699e-11
9.34906e-07
1.09435e-14
-7.68195e-11
9.29286e-07
-7.68216e-11
9.29286e-07
9.99775e-15
-5.04632e-11
9.08441e-07
-5.04659e-11
9.08441e-07
8.45125e-15
-2.17226e-11
8.30753e-07
-2.17257e-11
8.30753e-07
5.6e-15
5.40885e-07
5.40885e-07
1.47362e-14
3.10356e-11
5.40854e-07
3.1043e-11
5.40854e-07
2.19975e-14
7.20361e-11
8.3071e-07
7.20422e-11
8.3071e-07
2.56286e-14
1.09512e-10
9.08403e-07
1.09517e-10
9.08402e-07
2.79445e-14
1.36197e-10
9.2926e-07
1.36201e-10
9.2926e-07
2.93489e-14
1.47768e-10
9.34895e-07
1.4777e-10
9.34895e-07
3.01922e-14
1.4308e-10
9.36451e-07
1.43081e-10
9.36451e-07
3.06846e-14
1.22964e-10
9.36911e-07
1.22965e-10
9.36913e-07
3.09592e-14
8.98411e-11
9.3707e-07
8.98415e-11
9.3707e-07
3.11019e-14
4.73599e-11
9.37135e-07
4.736e-11
9.37135e-07
3.1163e-14
-6.425e-15
9.37163e-07
-6.425e-15
9.37163e-07
3.11656e-14
-4.73728e-11
9.37162e-07
-4.73729e-11
9.37162e-07
3.111e-14
-8.98541e-11
9.37135e-07
-8.98545e-11
9.37135e-07
3.09742e-14
-1.22977e-10
9.3707e-07
-1.22978e-10
9.3707e-07
3.07097e-14
-1.43093e-10
9.36911e-07
-1.43094e-10
9.36913e-07
3.0235e-14
-1.47781e-10
9.36451e-07
-1.47783e-10
9.36451e-07
2.94198e-14
-1.36209e-10
9.34895e-07
-1.36213e-10
9.34895e-07
2.80668e-14
-1.09523e-10
9.2926e-07
-1.09528e-10
9.2926e-07
2.5965e-14
-7.20447e-11
9.08402e-07
-7.20505e-11
9.08402e-07
2.2745e-14
-3.10402e-11
8.3071e-07
-3.10474e-11
8.3071e-07
1.552e-14
5.40854e-07
5.40854e-07
3.98962e-14
4.38684e-11
5.4081e-07
4.38869e-11
5.40811e-07
5.87025e-14
1.01695e-10
8.3065e-07
1.0171e-10
8.3065e-07
6.73038e-14
1.54309e-10
9.08349e-07
1.54321e-10
9.08349e-07
7.2723e-14
1.91469e-10
9.29223e-07
1.91477e-10
9.29223e-07
7.60049e-14
2.07221e-10
9.34879e-07
2.07226e-10
9.34879e-07
7.79528e-14
2.00163e-10
9.36459e-07
2.00166e-10
9.36459e-07
7.90704e-14
1.71659e-10
9.3694e-07
1.7166e-10
9.36941e-07
7.96814e-14
1.25215e-10
9.37117e-07
1.25215e-10
9.37117e-07
7.99925e-14
6.594e-11
9.37195e-07
6.59404e-11
9.37195e-07
8.01233e-14
-6.75e-15
9.37229e-07
-6.75e-15
9.37229e-07
8.01274e-14
-6.59535e-11
9.37229e-07
-6.59539e-11
9.37229e-07
8.00062e-14
-1.25228e-10
9.37195e-07
-1.25229e-10
9.37195e-07
7.9705e-14
-1.71672e-10
9.37118e-07
-1.71674e-10
9.37118e-07
7.91054e-14
-2.00176e-10
9.3694e-07
-2.00179e-10
9.36941e-07
7.80017e-14
-2.07233e-10
9.36459e-07
-2.07238e-10
9.36459e-07
7.60784e-14
-1.91481e-10
9.34879e-07
-1.91489e-10
9.34879e-07
7.28378e-14
-1.54319e-10
9.29223e-07
-1.54331e-10
9.29223e-07
6.7345e-14
-1.01702e-10
9.08349e-07
-1.01717e-10
9.08349e-07
5.84375e-14
-4.38725e-11
8.3065e-07
-4.38912e-11
8.3065e-07
3.94775e-14
5.4081e-07
5.40811e-07
1.02375e-13
6.17726e-11
5.4075e-07
6.182e-11
5.40753e-07
1.5107e-13
1.42956e-10
8.30565e-07
1.42993e-10
8.30566e-07
1.73217e-13
2.16357e-10
9.08274e-07
2.16387e-10
9.08274e-07
1.86722e-13
2.67629e-10
9.2917e-07
2.67648e-10
9.29171e-07
1.94625e-13
2.88686e-10
9.34858e-07
2.88697e-10
9.34858e-07
1.9918e-13
2.77965e-10
9.36469e-07
2.77971e-10
9.3647e-07
2.01724e-13
2.37721e-10
9.36981e-07
2.37725e-10
9.36983e-07
2.03077e-13
1.73034e-10
9.37182e-07
1.73036e-10
9.37184e-07
2.03749e-13
9.10011e-11
9.37279e-07
9.10019e-11
9.37279e-07
2.04025e-13
-7e-15
9.37321e-07
-7e-15
9.37321e-07
2.04032e-13
-9.10151e-11
9.37321e-07
-9.10159e-11
9.37321e-07
2.03769e-13
-1.73048e-10
9.37279e-07
-1.73049e-10
9.37279e-07
2.03111e-13
-2.37734e-10
9.37183e-07
-2.37738e-10
9.37184e-07
2.01773e-13
-2.77977e-10
9.36981e-07
-2.77985e-10
9.36983e-07
1.99248e-13
-2.88699e-10
9.36469e-07
-2.88711e-10
9.3647e-07
1.94715e-13
-2.67641e-10
9.34858e-07
-2.6766e-10
9.34858e-07
1.86844e-13
-2.16368e-10
9.2917e-07
-2.16397e-10
9.29171e-07
1.73505e-13
-1.42964e-10
9.08274e-07
-1.43001e-10
9.08274e-07
1.51679e-13
-6.1777e-11
8.30565e-07
-6.18242e-11
8.30566e-07
1.02988e-13
5.4075e-07
5.40753e-07
2.65175e-13
8.70209e-11
5.40665e-07
8.71414e-11
5.40667e-07
3.90344e-13
2.00912e-10
8.30445e-07
2.01004e-10
8.30448e-07
4.4579e-13
3.02995e-10
9.08167e-07
3.03067e-10
9.08169e-07
4.78837e-13
3.73235e-10
9.29099e-07
3.73281e-10
9.29101e-07
4.9768e-13
4.0083e-10
9.34829e-07
4.00857e-10
9.3483e-07
5.08232e-13
3.84329e-10
9.36485e-07
3.84344e-10
9.36487e-07
5.13951e-13
3.275e-10
9.37039e-07
3.27507e-10
9.37041e-07
5.16904e-13
2.37725e-10
9.37272e-07
2.37728e-10
9.37275e-07
5.18326e-13
1.24808e-10
9.37392e-07
1.2481e-10
9.37395e-07
5.18895e-13
-7.375e-15
9.37448e-07
-7.375e-15
9.37449e-07
5.18904e-13
-1.24823e-10
9.37447e-07
-1.24825e-10
9.37449e-07
5.18351e-13
-2.37739e-10
9.37392e-07
-2.37743e-10
9.37395e-07
5.16945e-13
-3.27515e-10
9.37273e-07
-3.27522e-10
9.37275e-07
5.14011e-13
-3.84342e-10
9.37039e-07
-3.84357e-10
9.37041e-07
5.0831e-13
-4.00842e-10
9.36485e-07
-4.0087e-10
9.36487e-07
4.97785e-13
-3.73246e-10
9.34829e-07
-3.73292e-10
9.3483e-07
4.7898e-13
-3.03005e-10
9.29099e-07
-3.03077e-10
9.29101e-07
4.4585e-13
-2.0092e-10
9.08167e-07
-2.01013e-10
9.08169e-07
3.90065e-13
-8.70254e-11
8.30445e-07
-8.71462e-11
8.30448e-07
2.647e-13
5.40665e-07
5.40668e-07
6.82e-13
1.23001e-10
5.40545e-07
1.23308e-10
5.40547e-07
1.00338e-12
2.83059e-10
8.30278e-07
2.83289e-10
8.30281e-07
1.14338e-12
4.24805e-10
9.08019e-07
4.24983e-10
9.08024e-07
1.22454e-12
5.20348e-10
9.29001e-07
5.20458e-10
9.29006e-07
1.26929e-12
5.55566e-10
9.34791e-07
5.55629e-10
9.34798e-07
1.2935e-12
5.29783e-10
9.3651e-07
5.29818e-10
9.36516e-07
1.30618e-12
4.49341e-10
9.37119e-07
4.49359e-10
9.37124e-07
1.31251e-12
3.25011e-10
9.37396e-07
3.25019e-10
9.37402e-07
1.31545e-12
1.70259e-10
9.37546e-07
1.70262e-10
9.37554e-07
1.3166e-12
-7.625e-15
9.37618e-07
-7.625e-15
9.37624e-07
1.31661e-12
-1.70275e-10
9.37617e-07
-1.70278e-10
9.37624e-07
1.31548e-12
-3.25028e-10
9.37546e-07
-3.25035e-10
9.37554e-07
1.31256e-12
-4.49356e-10
9.37396e-07
-4.49374e-10
9.37403e-07
1.30626e-12
-5.29798e-10
9.37119e-07
-5.29833e-10
9.37124e-07
1.2936e-12
-5.5558e-10
9.3651e-07
-5.55644e-10
9.36516e-07
1.26942e-12
-5.20359e-10
9.34791e-07
-5.2047e-10
9.34798e-07
1.22471e-12
-4.24815e-10
9.29001e-07
-4.24993e-10
9.29006e-07
1.14372e-12
-2.83068e-10
9.08019e-07
-2.83298e-10
9.08024e-07
1.00402e-12
-1.23006e-10
8.30278e-07
-1.23313e-10
8.30281e-07
6.82587e-13
5.40545e-07
5.40548e-07
1.75792e-12
1.74901e-10
5.40373e-07
1.7568e-10
5.40379e-07
2.58344e-12
4.00674e-10
8.30039e-07
4.01241e-10
8.3005e-07
2.93514e-12
5.97279e-10
9.07812e-07
5.97706e-10
9.07826e-07
3.13305e-12
7.26094e-10
9.28868e-07
7.26354e-10
9.28881e-07
3.23831e-12
7.69285e-10
9.34744e-07
7.69427e-10
9.3476e-07
3.2931e-12
7.28369e-10
9.36547e-07
7.28442e-10
9.36564e-07
3.32069e-12
6.14067e-10
9.3723e-07
6.14105e-10
9.37245e-07
3.33391e-12
4.42151e-10
9.37566e-07
4.42169e-10
9.37582e-07
3.33982e-12
2.30975e-10
9.37755e-07
2.30981e-10
9.37771e-07
3.34205e-12
-8e-15
9.37846e-07
-7.875e-15
9.37863e-07
3.34206e-12
-2.30992e-10
9.37846e-07
-2.30998e-10
9.37862e-07
3.33985e-12
-4.42169e-10
9.37755e-07
-4.42185e-10
9.37771e-07
3.33396e-12
-6.14085e-10
9.37566e-07
-6.14121e-10
9.37583e-07
3.32078e-12
-7.28384e-10
9.3723e-07
-7.28459e-10
9.37245e-07
3.2932e-12
-7.69297e-10
9.36547e-07
-7.69441e-10
9.36564e-07
3.23846e-12
-7.26106e-10
9.34744e-07
-7.26366e-10
9.3476e-07
3.13328e-12
-5.9729e-10
9.28868e-07
-5.97719e-10
9.28881e-07
2.93529e-12
-4.00682e-10
9.07812e-07
-4.01251e-10
9.07826e-07
2.58326e-12
-1.74906e-10
8.30039e-07
-1.75685e-10
8.3005e-07
1.75748e-12
5.40373e-07
5.40379e-07
4.53817e-12
2.50895e-10
5.40119e-07
2.52871e-10
5.40139e-07
6.66935e-12
5.71135e-10
8.29695e-07
5.72536e-10
8.29726e-07
7.55786e-12
8.43461e-10
9.07521e-07
8.44491e-10
9.07556e-07
8.04054e-12
1.01497e-09
9.28684e-07
1.01557e-09
9.28721e-07
8.28636e-12
1.06447e-09
9.34684e-07
1.06479e-09
9.34724e-07
8.4086e-12
9.98581e-10
9.36604e-07
9.98742e-10
9.36644e-07
8.46738e-12
8.35416e-10
9.37384e-07
8.35493e-10
9.37424e-07
8.49419e-12
5.98081e-10
9.37795e-07
5.98115e-10
9.37835e-07
8.50561e-12
3.11327e-10
9.38034e-07
3.1134e-10
9.38072e-07
8.50973e-12
-8.125e-15
9.38149e-07
-8.125e-15
9.38189e-07
8.50974e-12
-3.11344e-10
9.38149e-07
-3.11356e-10
9.38189e-07
8.50566e-12
-5.98099e-10
9.38034e-07
-5.98131e-10
9.38072e-07
8.49425e-12
-8.35432e-10
9.37795e-07
-8.35509e-10
9.37835e-07
8.46746e-12
-9.98596e-10
9.37384e-07
-9.98757e-10
9.37424e-07
8.40874e-12
-1.06449e-09
9.36604e-07
-1.06481e-09
9.36644e-07
8.28655e-12
-1.01498e-09
9.34684e-07
-1.01559e-09
9.34724e-07
8.0408e-12
-8.43475e-10
9.28684e-07
-8.44504e-10
9.28721e-07
7.55832e-12
-5.71145e-10
9.07521e-07
-5.72547e-10
9.07556e-07
6.67009e-12
-2.509e-10
8.29695e-07
-2.52878e-10
8.29726e-07
4.5388e-12
5.40119e-07
5.40139e-07
1.17488e-11
3.64344e-10
5.39741e-07
3.6937e-10
5.39795e-07
1.72812e-11
8.22004e-10
8.29194e-07
8.25454e-10
8.29275e-07
1.95398e-11
1.19825e-09
9.07105e-07
1.20071e-09
9.07196e-07
2.07195e-11
1.42224e-09
9.2843e-07
1.42363e-09
9.28528e-07
2.12906e-11
1.47182e-09
9.34608e-07
1.47252e-09
9.34708e-07
2.15593e-11
1.36433e-09
9.36685e-07
1.36467e-09
9.36785e-07
2.16814e-11
1.13026e-09
9.37591e-07
1.13042e-09
9.37693e-07
2.17337e-11
8.03316e-10
9.38095e-07
8.0338e-10
9.38196e-07
2.17546e-11
4.16309e-10
9.38395e-07
4.16331e-10
9.38494e-07
2.17617e-11
-8.375e-15
9.38538e-07
-8.25e-15
9.38639e-07
2.17617e-11
-4.16325e-10
9.38537e-07
-4.16348e-10
9.38639e-07
2.17547e-11
-8.03333e-10
9.38395e-07
-8.03398e-10
9.38494e-07
2.17338e-11
-1.13028e-09
9.38095e-07
-1.13043e-09
9.38196e-07
2.16815e-11
-1.36435e-09
9.37591e-07
-1.36469e-09
9.37693e-07
2.15595e-11
-1.47183e-09
9.36685e-07
-1.47254e-09
9.36785e-07
2.12908e-11
-1.42225e-09
9.34608e-07
-1.42364e-09
9.34708e-07
2.07198e-11
-1.19826e-09
9.2843e-07
-1.20072e-09
9.28528e-07
1.95401e-11
-8.22014e-10
9.07105e-07
-8.25465e-10
9.07196e-07
1.72812e-11
-3.6435e-10
8.29194e-07
-3.69377e-10
8.29275e-07
1.17484e-11
5.39741e-07
5.39795e-07
3.04218e-11
5.37887e-10
5.39161e-07
5.50699e-10
5.39301e-07
4.4894e-11
1.19837e-09
8.28444e-07
1.20676e-09
8.28656e-07
5.06649e-11
1.71549e-09
9.06502e-07
1.72127e-09
9.06742e-07
5.35519e-11
1.99896e-09
9.28078e-07
2.00211e-09
9.28329e-07
5.48735e-11
2.03279e-09
9.34506e-07
2.03433e-09
9.34763e-07
5.54558e-11
1.85568e-09
9.36795e-07
1.85638e-09
9.37051e-07
5.57019e-11
1.51834e-09
9.37861e-07
1.51864e-09
9.38119e-07
5.57994e-11
1.06937e-09
9.38475e-07
1.06949e-09
9.38734e-07
5.58348e-11
5.51131e-10
9.38844e-07
5.51175e-10
9.391e-07
5.58454e-11
-8.75e-15
9.39019e-07
-8.75e-15
9.39276e-07
5.58455e-11
-5.51149e-10
9.39019e-07
-5.51193e-10
9.39276e-07
5.58346e-11
-1.06939e-09
9.38844e-07
-1.06951e-09
9.391e-07
5.57994e-11
-1.51835e-09
9.38475e-07
-1.51866e-09
9.38734e-07
5.57021e-11
-1.85569e-09
9.37861e-07
-1.8564e-09
9.38119e-07
5.54559e-11
-2.03281e-09
9.36795e-07
-2.03435e-09
9.37051e-07
5.48738e-11
-1.99897e-09
9.34506e-07
-2.00213e-09
9.34763e-07
5.35523e-11
-1.7155e-09
9.28078e-07
-1.72129e-09
9.28329e-07
5.06655e-11
-1.19838e-09
9.06502e-07
-1.20678e-09
9.06742e-07
4.48948e-11
-5.37893e-10
8.28444e-07
-5.50705e-10
8.28656e-07
3.04225e-11
5.39161e-07
5.39301e-07
7.99874e-11
8.1158e-10
5.38218e-07
8.44112e-10
5.38587e-07
1.19643e-10
1.77732e-09
8.27265e-07
1.79743e-09
8.2783e-07
1.34972e-10
2.48048e-09
9.05585e-07
2.49383e-09
9.0622e-07
1.42202e-10
2.8197e-09
9.27546e-07
2.82672e-09
9.28208e-07
1.45307e-10
2.80277e-09
9.3433e-07
2.8061e-09
9.35001e-07
1.4657e-10
2.50896e-09
9.36894e-07
2.51046e-09
9.37566e-07
1.47056e-10
2.02103e-09
9.38151e-07
2.02169e-09
9.38825e-07
1.47227e-10
1.4074e-09
9.38889e-07
1.40768e-09
9.39564e-07
1.47279e-10
7.20409e-10
9.39329e-07
7.20512e-10
9.40002e-07
1.47291e-10
-8.75e-15
9.39538e-07
-8.75e-15
9.4021e-07
1.47291e-10
-7.20426e-10
9.39537e-07
-7.2053e-10
9.4021e-07
1.47279e-10
-1.40742e-09
9.39329e-07
-1.4077e-09
9.40002e-07
1.47227e-10
-2.02105e-09
9.38889e-07
-2.0217e-09
9.39564e-07
1.47057e-10
-2.50897e-09
9.38151e-07
-2.51047e-09
9.38825e-07
1.46571e-10
-2.80277e-09
9.36894e-07
-2.8061e-09
9.37566e-07
1.45307e-10
-2.8197e-09
9.3433e-07
-2.82674e-09
9.35001e-07
1.42203e-10
-2.48048e-09
9.27546e-07
-2.49385e-09
9.28208e-07
1.34972e-10
-1.77733e-09
9.05585e-07
-1.79745e-09
9.0622e-07
1.19643e-10
-8.11587e-10
8.27265e-07
-8.4412e-10
8.2783e-07
7.9987e-11
5.38218e-07
5.38588e-07
2.22593e-10
1.2627e-09
5.36549e-07
1.34587e-09
5.3748e-07
3.43653e-10
2.6982e-09
8.25253e-07
2.74816e-09
8.26678e-07
3.89893e-10
3.63328e-09
9.04026e-07
3.66483e-09
9.05617e-07
4.09999e-10
3.99488e-09
9.26581e-07
4.01103e-09
9.2823e-07
4.17921e-10
3.85489e-09
9.33856e-07
3.86251e-09
9.35524e-07
4.20829e-10
3.36604e-09
9.3676e-07
3.36964e-09
9.38431e-07
4.21804e-10
2.65904e-09
9.38229e-07
2.66081e-09
9.39903e-07
4.22075e-10
1.82604e-09
9.3909e-07
1.82691e-09
9.40762e-07
4.2212e-10
9.26909e-10
9.39592e-07
9.27279e-10
9.41265e-07
4.22116e-10
-7.5e-15
9.39828e-07
-7.5e-15
9.41499e-07
4.22116e-10
-9.26924e-10
9.39827e-07
-9.27295e-10
9.41499e-07
4.2212e-10
-1.82605e-09
9.39592e-07
-1.82693e-09
9.41265e-07
4.22075e-10
-2.65906e-09
9.3909e-07
-2.66081e-09
9.40763e-07
4.21805e-10
-3.36605e-09
9.38229e-07
-3.36965e-09
9.39903e-07
4.2083e-10
-3.8549e-09
9.3676e-07
-3.86253e-09
9.38431e-07
4.17921e-10
-3.9949e-09
9.33856e-07
-4.01103e-09
9.35524e-07
4.09999e-10
-3.63329e-09
9.26581e-07
-3.66484e-09
9.2823e-07
3.89892e-10
-2.69821e-09
9.04026e-07
-2.74818e-09
9.05617e-07
3.43654e-10
-1.26271e-09
8.25253e-07
-1.34587e-09
8.26678e-07
2.22594e-10
5.36549e-07
5.3748e-07
6.47561e-10
2.05079e-09
5.33589e-07
2.27821e-09
5.35835e-07
1.04065e-09
4.21335e-09
8.21893e-07
4.34494e-09
8.25341e-07
1.19382e-09
5.40521e-09
9.01487e-07
5.48521e-09
9.0528e-07
1.25624e-09
5.68884e-09
9.24955e-07
5.73009e-09
9.2886e-07
1.27874e-09
5.28521e-09
9.32886e-07
5.30625e-09
9.36824e-07
1.28611e-09
4.47354e-09
9.36179e-07
4.48514e-09
9.40122e-07
1.2882e-09
3.45006e-09
9.37849e-07
3.45693e-09
9.41794e-07
1.28856e-09
2.32938e-09
9.38801e-07
2.33339e-09
9.42742e-07
1.28848e-09
1.17054e-09
9.39337e-07
1.17242e-09
9.43279e-07
1.28837e-09
-7.5e-15
9.39583e-07
-7.5e-15
9.43524e-07
1.28837e-09
-1.17055e-09
9.39582e-07
-1.17243e-09
9.43524e-07
1.28848e-09
-2.3294e-09
9.39337e-07
-2.33341e-09
9.43279e-07
1.28856e-09
-3.45009e-09
9.38801e-07
-3.45695e-09
9.42743e-07
1.2882e-09
-4.47355e-09
9.37849e-07
-4.48516e-09
9.41794e-07
1.28611e-09
-5.28521e-09
9.36179e-07
-5.30628e-09
9.40122e-07
1.27874e-09
-5.68884e-09
9.32886e-07
-5.73011e-09
9.36824e-07
1.25624e-09
-5.40523e-09
9.24955e-07
-5.48524e-09
9.2886e-07
1.19382e-09
-4.21337e-09
9.01487e-07
-4.34496e-09
9.0528e-07
1.04065e-09
-2.0508e-09
8.21893e-07
-2.27823e-09
8.25341e-07
6.47561e-10
5.33589e-07
5.35835e-07
1.87603e-09
3.44897e-09
5.28252e-07
4.12637e-09
5.36236e-07
3.1711e-09
6.76367e-09
8.16359e-07
7.06256e-09
8.29283e-07
3.66367e-09
8.1695e-09
8.97702e-07
8.36424e-09
9.12036e-07
3.8574e-09
8.14799e-09
9.22638e-07
8.26666e-09
9.37441e-07
3.92411e-09
7.22664e-09
9.31413e-07
7.30194e-09
9.4636e-07
3.94431e-09
5.8905e-09
9.35085e-07
5.94184e-09
9.50067e-07
3.94929e-09
4.41431e-09
9.36879e-07
4.44969e-09
9.51865e-07
3.94975e-09
2.92127e-09
9.37837e-07
2.94381e-09
9.52817e-07
3.9492e-09
1.45072e-09
9.38346e-07
1.46174e-09
9.53322e-07
3.94877e-09
-6.25e-15
9.38569e-07
-6.25e-15
9.53545e-07
3.94877e-09
-1.45073e-09
9.38569e-07
-1.46175e-09
9.53545e-07
3.9492e-09
-2.92129e-09
9.38346e-07
-2.94383e-09
9.53322e-07
3.94975e-09
-4.41432e-09
9.37838e-07
-4.44971e-09
9.52818e-07
3.94929e-09
-5.8905e-09
9.36879e-07
-5.94186e-09
9.51865e-07
3.94431e-09
-7.22664e-09
9.35085e-07
-7.30196e-09
9.50067e-07
3.92411e-09
-8.14799e-09
9.31413e-07
-8.26667e-09
9.4636e-07
3.8574e-09
-8.16951e-09
9.22638e-07
-8.36425e-09
9.37441e-07
3.66367e-09
-6.76369e-09
8.97702e-07
-7.06259e-09
9.12036e-07
3.1711e-09
-3.44897e-09
8.16359e-07
-4.12638e-09
8.29283e-07
1.87603e-09
5.28253e-07
5.36236e-07
7.28873e-09
5.83334e-09
5.07616e-07
7.41264e-09
5.35022e-07
1.31305e-08
1.13912e-08
7.89908e-07
1.18656e-08
8.3564e-07
1.51589e-08
1.2686e-08
8.72587e-07
1.31621e-08
9.24077e-07
1.59073e-08
1.18265e-08
8.98893e-07
1.22645e-08
9.52255e-07
1.61624e-08
9.92209e-09
9.08261e-07
1.02803e-08
9.62193e-07
1.62381e-08
7.74063e-09
9.12031e-07
8.01904e-09
9.661e-07
1.62552e-08
5.61479e-09
9.1371e-07
5.81824e-09
9.67789e-07
1.62553e-08
3.63375e-09
9.14506e-07
3.7665e-09
9.68562e-07
1.62522e-08
1.7813e-09
9.14882e-07
1.84673e-09
9.68917e-07
1.62498e-08
-5e-15
9.15034e-07
-5e-15
9.69059e-07
1.62498e-08
-1.78131e-09
9.15034e-07
-1.84674e-09
9.69059e-07
1.62522e-08
-3.63377e-09
9.14882e-07
-3.7665e-09
9.68917e-07
1.62553e-08
-5.61481e-09
9.14506e-07
-5.81824e-09
9.68563e-07
1.62552e-08
-7.74065e-09
9.1371e-07
-8.01904e-09
9.67789e-07
1.6238e-08
-9.92211e-09
9.12031e-07
-1.02803e-08
9.661e-07
1.61624e-08
-1.18265e-08
9.08261e-07
-1.22645e-08
9.62193e-07
1.59073e-08
-1.26861e-08
8.98893e-07
-1.31622e-08
9.52255e-07
1.51589e-08
-1.13912e-08
8.72587e-07
-1.18657e-08
9.24077e-07
1.31305e-08
-5.83335e-09
7.89908e-07
-7.41265e-09
8.3564e-07
7.28873e-09
5.07616e-07
5.35023e-07
4.24965e-08
1.20316e-08
4.37387e-07
1.77538e-08
5.2271e-07
7.58246e-08
2.12062e-08
6.92042e-07
2.4775e-08
8.47958e-07
8.69116e-08
2.0812e-08
7.69906e-07
2.39172e-08
9.50532e-07
9.06894e-08
1.76729e-08
7.95104e-07
2.03575e-08
9.83975e-07
9.19306e-08
1.38907e-08
8.03779e-07
1.60493e-08
9.95234e-07
9.2287e-08
1.03484e-08
8.0692e-07
1.20017e-08
9.99059e-07
9.23534e-08
7.27048e-09
8.08076e-07
8.46329e-09
1.0003e-06
9.23373e-08
4.60858e-09
8.08489e-07
5.38029e-09
1.00064e-06
9.23088e-08
2.23299e-09
8.08619e-07
2.61164e-09
1.00068e-06
9.22911e-08
-2.5e-15
8.08653e-07
-2.5e-15
1.00067e-06
9.22911e-08
-2.23301e-09
8.08652e-07
-2.61165e-09
1.00067e-06
9.23088e-08
-4.60859e-09
8.08619e-07
-5.3803e-09
1.00068e-06
9.23373e-08
-7.27048e-09
8.08489e-07
-8.4633e-09
1.00064e-06
9.23534e-08
-1.03484e-08
8.08076e-07
-1.20017e-08
1.0003e-06
9.2287e-08
-1.38907e-08
8.0692e-07
-1.60493e-08
9.99059e-07
9.19306e-08
-1.76729e-08
8.03779e-07
-2.03576e-08
9.95234e-07
9.06894e-08
-2.0812e-08
7.95104e-07
-2.39172e-08
9.83975e-07
8.69116e-08
-2.12062e-08
7.69906e-07
-2.4775e-08
9.50532e-07
7.58246e-08
-1.20317e-08
6.92043e-07
-1.77538e-08
8.47958e-07
4.24963e-08
4.37388e-07
5.2271e-07
1.53274e-07
2.12279e-08
3.09293e-07
2.9653e-08
4.10359e-07
2.25671e-07
2.55494e-07
3.31795e-08
5.01993e-07
4.88622e-08
7.05095e-07
3.69651e-07
2.88707e-07
3.07547e-08
5.63487e-07
4.73744e-08
8.06627e-07
4.17576e-07
2.99685e-07
2.49894e-08
5.83421e-07
4.00409e-08
8.40811e-07
4.33385e-07
3.03164e-07
1.91245e-08
5.8978e-07
3.1534e-08
8.5176e-07
4.38297e-07
3.04078e-07
1.40159e-08
5.9162e-07
2.36098e-08
8.54771e-07
4.39477e-07
3.04156e-07
9.7478e-09
5.91974e-07
1.66808e-08
8.55188e-07
4.3946e-07
3.04016e-07
6.1423e-09
5.91889e-07
1.06256e-08
8.5488e-07
4.39157e-07
3.0387e-07
2.96713e-09
5.91731e-07
5.1656e-09
8.54505e-07
4.38882e-07
3.03788e-07
1.25e-15
5.91633e-07
4.06576e-24
8.54284e-07
4.38734e-07
3.03788e-07
-2.96713e-09
5.91632e-07
-5.1656e-09
8.54284e-07
4.38734e-07
3.0387e-07
-6.1423e-09
5.91731e-07
-1.06255e-08
8.54505e-07
4.38882e-07
3.04016e-07
-9.74781e-09
5.91889e-07
-1.66807e-08
8.5488e-07
4.39157e-07
3.04156e-07
-1.4016e-08
5.91974e-07
-2.361e-08
8.55188e-07
4.3946e-07
3.04078e-07
-1.91245e-08
5.9162e-07
-3.15341e-08
8.54771e-07
4.39477e-07
3.03164e-07
-2.49894e-08
5.8978e-07
-4.00409e-08
8.5176e-07
4.38297e-07
2.99685e-07
-3.07547e-08
5.83421e-07
-4.73745e-08
8.40811e-07
4.33385e-07
2.88707e-07
-3.31795e-08
5.63487e-07
-4.88625e-08
8.06627e-07
4.17576e-07
2.55494e-07
-2.12279e-08
5.01993e-07
-2.96531e-08
7.05095e-07
3.69651e-07
1.53274e-07
3.09293e-07
4.10359e-07
2.25671e-07
1.00106e-07
1.69662e-08
1.87737e-07
2.25204e-08
2.53049e-07
1.7879e-07
1.80558e-07
3.10513e-08
3.12808e-07
4.70961e-08
4.61765e-07
3.25836e-07
2.09982e-07
3.09275e-08
3.55031e-07
5.14483e-08
5.42377e-07
3.83766e-07
2.20699e-07
2.65846e-08
3.68858e-07
4.72756e-08
5.71302e-07
4.0579e-07
2.24274e-07
2.11316e-08
3.7283e-07
3.93588e-08
5.80401e-07
4.13595e-07
2.2522e-07
1.58933e-08
3.73494e-07
3.0612e-08
5.82322e-07
4.15934e-07
2.25284e-07
1.12524e-08
3.73173e-07
2.22013e-08
5.81928e-07
4.1632e-07
2.25117e-07
7.17424e-09
3.72679e-07
1.4387e-08
5.81025e-07
4.16128e-07
2.24951e-07
3.48903e-09
3.72285e-07
7.06279e-09
5.80261e-07
4.1587e-07
2.24858e-07
5e-15
3.72078e-07
1.25e-14
5.79849e-07
4.15718e-07
2.24858e-07
-3.48903e-09
3.72077e-07
-7.06276e-09
5.79849e-07
4.15718e-07
2.24951e-07
-7.17424e-09
3.72285e-07
-1.43869e-08
5.80261e-07
4.1587e-07
2.25117e-07
-1.12524e-08
3.72679e-07
-2.22013e-08
5.81025e-07
4.16128e-07
2.25284e-07
-1.58933e-08
3.73173e-07
-3.0612e-08
5.81929e-07
4.1632e-07
2.2522e-07
-2.11316e-08
3.73494e-07
-3.93589e-08
5.82322e-07
4.15934e-07
2.24274e-07
-2.65846e-08
3.7283e-07
-4.72758e-08
5.80401e-07
4.13595e-07
2.20699e-07
-3.09275e-08
3.68858e-07
-5.14484e-08
5.71303e-07
4.0579e-07
2.09982e-07
-3.10513e-08
3.55031e-07
-4.70964e-08
5.42377e-07
3.83766e-07
1.80558e-07
-1.69662e-08
3.12808e-07
-2.25205e-08
4.61765e-07
3.25836e-07
1.00106e-07
1.87737e-07
2.53049e-07
1.7879e-07
5.90063e-08
1.40857e-08
1.12913e-07
2.02456e-08
1.62943e-07
1.16131e-07
1.13919e-07
2.61132e-08
1.9251e-07
4.07961e-08
3.09762e-07
2.29117e-07
1.36871e-07
2.75933e-08
2.21179e-07
4.76858e-08
3.72084e-07
2.80649e-07
1.46193e-07
2.49056e-08
2.30755e-07
4.62851e-08
3.9598e-07
3.02926e-07
1.49631e-07
2.05572e-08
2.33207e-07
4.02401e-08
4.03611e-07
3.11944e-07
1.50696e-07
1.59158e-08
2.33186e-07
3.23591e-08
4.04899e-07
3.15251e-07
1.50889e-07
1.15125e-08
2.32474e-07
2.40494e-08
4.04053e-07
3.16255e-07
1.50816e-07
7.44858e-09
2.3173e-07
1.58449e-08
4.02788e-07
3.16426e-07
1.50707e-07
3.6535e-09
2.31182e-07
7.85328e-09
4.01764e-07
3.16366e-07
1.50641e-07
7.5e-15
2.309e-07
2.5e-14
4.01216e-07
3.16301e-07
1.50641e-07
-3.65348e-09
2.309e-07
-7.85323e-09
4.01216e-07
3.16301e-07
1.50707e-07
-7.44855e-09
2.31182e-07
-1.58449e-08
4.01764e-07
3.16366e-07
1.50816e-07
-1.15125e-08
2.3173e-07
-2.40494e-08
4.02788e-07
3.16426e-07
1.50889e-07
-1.59158e-08
2.32474e-07
-3.23591e-08
4.04054e-07
3.16255e-07
1.50696e-07
-2.05573e-08
2.33186e-07
-4.02403e-08
4.04899e-07
3.15251e-07
1.49631e-07
-2.49056e-08
2.33207e-07
-4.62853e-08
4.03611e-07
3.11944e-07
1.46193e-07
-2.75934e-08
2.30755e-07
-4.76858e-08
3.9598e-07
3.02926e-07
1.3687e-07
-2.61133e-08
2.21179e-07
-4.07961e-08
3.72084e-07
2.80648e-07
1.13919e-07
-1.40857e-08
1.9251e-07
-2.02456e-08
3.09762e-07
2.29117e-07
5.90063e-08
1.12913e-07
1.62943e-07
1.16131e-07
3.38613e-08
1.08994e-08
6.72622e-08
1.59732e-08
1.03868e-07
7.21192e-08
6.93493e-08
2.05327e-08
1.17249e-07
3.27269e-08
2.04235e-07
1.51419e-07
8.59294e-08
2.28285e-08
1.36199e-07
4.0298e-08
2.49854e-07
1.92014e-07
9.3371e-08
2.1496e-08
1.42577e-07
4.08612e-08
2.68312e-07
2.11577e-07
9.64272e-08
1.83649e-08
1.43948e-07
3.68401e-08
2.74301e-07
2.20461e-07
9.75408e-08
1.4614e-08
1.4351e-07
3.0495e-08
2.75066e-07
2.24246e-07
9.78623e-08
1.07918e-08
1.42588e-07
2.31603e-08
2.73979e-07
2.25736e-07
9.78994e-08
7.0829e-09
1.41712e-07
1.5488e-08
2.72544e-07
2.26261e-07
9.78627e-08
3.50332e-09
1.41079e-07
7.74316e-09
2.71393e-07
2.26419e-07
9.78319e-08
8.75e-15
1.40753e-07
2.5e-14
2.70777e-07
2.26454e-07
9.78319e-08
-3.50331e-09
1.40753e-07
-7.74311e-09
2.70777e-07
2.26454e-07
9.78627e-08
-7.0829e-09
1.41079e-07
-1.54879e-08
2.71393e-07
2.26419e-07
9.78994e-08
-1.07918e-08
1.41712e-07
-2.31603e-08
2.72544e-07
2.26261e-07
9.78623e-08
-1.46141e-08
1.42588e-07
-3.0495e-08
2.73979e-07
2.25736e-07
9.75408e-08
-1.83649e-08
1.4351e-07
-3.68402e-08
2.75066e-07
2.24246e-07
9.64272e-08
-2.14961e-08
1.43948e-07
-4.08614e-08
2.74302e-07
2.20461e-07
9.3371e-08
-2.28286e-08
1.42577e-07
-4.0298e-08
2.68312e-07
2.11577e-07
8.59294e-08
-2.05327e-08
1.36199e-07
-3.27269e-08
2.49854e-07
1.92014e-07
6.93493e-08
-1.08994e-08
1.17249e-07
-1.59732e-08
2.04235e-07
1.51419e-07
3.38613e-08
6.72623e-08
1.03869e-07
7.21192e-08
1.92281e-08
7.9958e-09
3.93724e-08
1.17967e-08
6.46521e-08
4.4236e-08
4.16868e-08
1.5407e-08
7.02072e-08
2.49503e-08