/*--------------------------------*- C++ -*----------------------------------*\
  =========                 |
  \\      /  F ield         | OpenFOAM: The Open Source CFD Toolbox
   \\    /   O peration     | Website:  https://openfoam.org
    \\  /    A nd           | Version:  6
     \\/     M anipulation  |
\*---------------------------------------------------------------------------*/
FoamFile
{
    version     2.0;
    format      ascii;
    class       volScalarField;
    location    "0.975";
    object      T;
}
// * * * * * * * * * * * * * * * * * * * * * * * * * * * * * * * * * * * * * //

dimensions      [0 0 0 1 0 0 0];

internalField   nonuniform List<scalar> 
7000
(
106.76
106.759
106.758
106.755
106.753
106.75
106.747
106.744
106.742
106.741
106.76
106.759
106.758
106.755
106.753
106.75
106.747
106.744
106.742
106.741
106.76
106.759
106.758
106.755
106.753
106.75
106.747
106.744
106.742
106.741
106.76
106.759
106.758
106.755
106.753
106.75
106.747
106.744
106.742
106.741
106.76
106.759
106.758
106.755
106.753
106.75
106.747
106.744
106.742
106.741
106.76
106.759
106.758
106.755
106.753
106.75
106.747
106.744
106.742
106.741
106.76
106.759
106.758
106.755
106.753
106.75
106.747
106.744
106.742
106.741
106.76
106.759
106.758
106.755
106.753
106.75
106.747
106.744
106.742
106.741
106.76
106.759
106.758
106.755
106.753
106.75
106.747
106.744
106.742
106.741
106.76
106.759
106.758
106.755
106.753
106.75
106.747
106.744
106.742
106.741
100.298
100.296
100.291
100.285
100.276
100.268
100.259
100.251
100.245
100.242
100.298
100.296
100.291
100.285
100.276
100.268
100.259
100.251
100.245
100.242
100.298
100.296
100.291
100.285
100.276
100.268
100.259
100.251
100.245
100.242
100.298
100.296
100.291
100.285
100.276
100.268
100.259
100.251
100.245
100.242
100.298
100.296
100.291
100.285
100.276
100.268
100.259
100.251
100.245
100.242
100.298
100.296
100.291
100.285
100.276
100.268
100.259
100.251
100.245
100.242
100.298
100.296
100.291
100.285
100.276
100.268
100.259
100.251
100.245
100.242
100.298
100.296
100.291
100.285
100.276
100.268
100.259
100.251
100.245
100.242
100.298
100.296
100.291
100.285
100.276
100.268
100.259
100.251
100.245
100.242
100.298
100.296
100.291
100.285
100.276
100.268
100.259
100.251
100.245
100.242
93.8921
93.8881
93.8803
93.8692
93.8555
93.8404
93.8252
93.8115
93.801
93.7954
93.8921
93.888
93.8803
93.8692
93.8555
93.8404
93.8252
93.8115
93.801
93.7954
93.892
93.888
93.8802
93.8692
93.8555
93.8404
93.8252
93.8115
93.801
93.7953
93.892
93.888
93.8802
93.8691
93.8555
93.8404
93.8252
93.8114
93.801
93.7953
93.892
93.888
93.8802
93.8691
93.8555
93.8404
93.8251
93.8114
93.801
93.7953
93.892
93.888
93.8802
93.8691
93.8555
93.8404
93.8251
93.8114
93.801
93.7953
93.892
93.888
93.8802
93.8691
93.8555
93.8404
93.8251
93.8114
93.801
93.7953
93.892
93.888
93.8802
93.8691
93.8555
93.8404
93.8252
93.8114
93.801
93.7953
93.892
93.888
93.8802
93.8692
93.8555
93.8404
93.8252
93.8115
93.801
93.7953
93.892
93.888
93.8802
93.8692
93.8555
93.8404
93.8252
93.8115
93.801
93.7954
87.5776
87.572
87.5612
87.5457
87.5264
87.5047
87.4826
87.4623
87.4465
87.4379
87.5776
87.572
87.5612
87.5457
87.5264
87.5047
87.4825
87.4622
87.4465
87.4379
87.5776
87.572
87.5612
87.5457
87.5264
87.5047
87.4825
87.4622
87.4465
87.4378
87.5775
87.572
87.5612
87.5457
87.5264
87.5047
87.4825
87.4622
87.4465
87.4378
87.5775
87.572
87.5612
87.5456
87.5264
87.5047
87.4825
87.4622
87.4465
87.4378
87.5775
87.572
87.5612
87.5456
87.5264
87.5047
87.4825
87.4622
87.4465
87.4378
87.5775
87.572
87.5612
87.5457
87.5264
87.5047
87.4825
87.4622
87.4465
87.4378
87.5775
87.572
87.5612
87.5457
87.5264
87.5047
87.4825
87.4622
87.4465
87.4378
87.5775
87.572
87.5612
87.5457
87.5264
87.5047
87.4825
87.4622
87.4465
87.4379
87.5776
87.572
87.5612
87.5457
87.5264
87.5047
87.4825
87.4622
87.4465
87.4379
81.3901
81.3832
81.3696
81.3499
81.325
81.2965
81.2666
81.2384
81.216
81.2034
81.3901
81.3831
81.3696
81.3499
81.325
81.2965
81.2666
81.2384
81.216
81.2033
81.3901
81.3831
81.3695
81.3498
81.325
81.2965
81.2665
81.2384
81.2159
81.2033
81.39
81.3831
81.3695
81.3498
81.325
81.2964
81.2665
81.2384
81.2159
81.2033
81.39
81.3831
81.3695
81.3498
81.325
81.2964
81.2665
81.2384
81.2159
81.2033
81.39
81.3831
81.3695
81.3498
81.325
81.2964
81.2665
81.2384
81.2159
81.2033
81.39
81.3831
81.3695
81.3498
81.325
81.2964
81.2665
81.2384
81.2159
81.2033
81.39
81.3831
81.3695
81.3498
81.325
81.2964
81.2665
81.2384
81.2159
81.2033
81.3901
81.3831
81.3695
81.3498
81.325
81.2965
81.2665
81.2384
81.216
81.2033
81.3901
81.3831
81.3696
81.3499
81.325
81.2965
81.2666
81.2384
81.216
81.2034
75.3634
75.3554
75.3397
75.3165
75.2866
75.2513
75.2128
75.1749
75.1433
75.1248
75.3633
75.3554
75.3396
75.3165
75.2866
75.2512
75.2127
75.1749
75.1433
75.1248
75.3633
75.3554
75.3396
75.3164
75.2865
75.2512
75.2127
75.1749
75.1433
75.1248
75.3633
75.3553
75.3396
75.3164
75.2865
75.2512
75.2127
75.1749
75.1433
75.1248
75.3633
75.3553
75.3396
75.3164
75.2865
75.2512
75.2127
75.1748
75.1433
75.1248
75.3633
75.3553
75.3396
75.3164
75.2865
75.2512
75.2127
75.1748
75.1433
75.1248
75.3633
75.3553
75.3396
75.3164
75.2865
75.2512
75.2127
75.1748
75.1433
75.1248
75.3633
75.3553
75.3396
75.3164
75.2865
75.2512
75.2127
75.1749
75.1433
75.1248
75.3633
75.3554
75.3396
75.3164
75.2865
75.2512
75.2127
75.1749
75.1433
75.1248
75.3633
75.3554
75.3396
75.3165
75.2866
75.2512
75.2127
75.1749
75.1433
75.1248
69.5291
69.5207
69.504
69.4789
69.4455
69.4042
69.3567
69.3067
69.2616
69.2332
69.5291
69.5207
69.504
69.4789
69.4454
69.4042
69.3567
69.3067
69.2616
69.2332
69.529
69.5207
69.504
69.4789
69.4454
69.4042
69.3567
69.3066
69.2616
69.2331
69.529
69.5207
69.5039
69.4788
69.4454
69.4042
69.3566
69.3066
69.2615
69.2331
69.529
69.5207
69.5039
69.4788
69.4454
69.4041
69.3566
69.3066
69.2615
69.2331
69.529
69.5207
69.5039
69.4788
69.4454
69.4041
69.3566
69.3066
69.2615
69.2331
69.529
69.5207
69.5039
69.4788
69.4454
69.4041
69.3566
69.3066
69.2615
69.2331
69.529
69.5207
69.5039
69.4788
69.4454
69.4042
69.3566
69.3066
69.2615
69.2331
69.529
69.5207
69.504
69.4789
69.4454
69.4042
69.3567
69.3066
69.2616
69.2332
69.5291
69.5207
69.504
69.4789
69.4455
69.4042
69.3567
69.3067
69.2616
69.2332
63.9163
63.9086
63.8929
63.8687
63.835
63.7907
63.735
63.6698
63.6033
63.5553
63.9162
63.9085
63.8929
63.8687
63.835
63.7906
63.735
63.6698
63.6033
63.5553
63.9162
63.9085
63.8929
63.8687
63.835
63.7906
63.7349
63.6698
63.6032
63.5553
63.9162
63.9085
63.8929
63.8687
63.8349
63.7906
63.7349
63.6697
63.6032
63.5552
63.9162
63.9085
63.8928
63.8686
63.8349
63.7906
63.7349
63.6697
63.6032
63.5552
63.9162
63.9085
63.8928
63.8686
63.8349
63.7906
63.7349
63.6697
63.6032
63.5552
63.9162
63.9085
63.8928
63.8686
63.8349
63.7906
63.7349
63.6697
63.6032
63.5552
63.9162
63.9085
63.8929
63.8687
63.8349
63.7906
63.7349
63.6698
63.6032
63.5553
63.9162
63.9085
63.8929
63.8687
63.835
63.7906
63.735
63.6698
63.6032
63.5553
63.9162
63.9085
63.8929
63.8687
63.835
63.7906
63.735
63.6698
63.6033
63.5553
58.5504
58.5449
58.5335
58.5149
58.4869
58.4459
58.3868
58.3048
58.2026
58.1093
58.5504
58.5449
58.5335
58.5149
58.4869
58.4458
58.3867
58.3048
58.2026
58.1093
58.5503
58.5449
58.5334
58.5149
58.4869
58.4458
58.3867
58.3048
58.2025
58.1092
58.5503
58.5448
58.5334
58.5148
58.4868
58.4458
58.3867
58.3047
58.2025
58.1092
58.5503
58.5448
58.5334
58.5148
58.4868
58.4458
58.3866
58.3047
58.2025
58.1092
58.5503
58.5448
58.5334
58.5148
58.4868
58.4458
58.3866
58.3047
58.2025
58.1092
58.5503
58.5448
58.5334
58.5148
58.4868
58.4458
58.3866
58.3047
58.2025
58.1092
58.5503
58.5448
58.5334
58.5149
58.4869
58.4458
58.3867
58.3047
58.2025
58.1092
58.5503
58.5449
58.5335
58.5149
58.4869
58.4458
58.3867
58.3048
58.2026
58.1093
58.5503
58.5449
58.5335
58.5149
58.4869
58.4459
58.3867
58.3048
58.2026
58.1093
53.4526
53.4515
53.4487
53.4426
53.4301
53.4049
53.3558
53.264
53.106
52.8894
53.4526
53.4514
53.4486
53.4426
53.4301
53.4049
53.3557
53.2639
53.1059
52.8894
53.4525
53.4514
53.4486
53.4425
53.4301
53.4049
53.3557
53.2639
53.1059
52.8893
53.4525
53.4514
53.4486
53.4425
53.43
53.4048
53.3556
53.2639
53.1059
52.8893
53.4525
53.4514
53.4485
53.4425
53.43
53.4048
53.3556
53.2639
53.1059
52.8893
53.4525
53.4514
53.4485
53.4425
53.43
53.4048
53.3556
53.2639
53.1059
52.8893
53.4525
53.4514
53.4486
53.4425
53.43
53.4048
53.3556
53.2639
53.1059
52.8893
53.4525
53.4514
53.4486
53.4425
53.43
53.4048
53.3557
53.2639
53.1059
52.8893
53.4525
53.4514
53.4486
53.4426
53.4301
53.4049
53.3557
53.2639
53.1059
52.8894
53.4526
53.4514
53.4486
53.4426
53.4301
53.4049
53.3557
53.264
53.106
52.8894
48.6389
48.6446
48.6557
48.671
48.6878
48.6992
48.69
48.6254
48.4185
47.817
48.6389
48.6446
48.6556
48.671
48.6878
48.6992
48.69
48.6253
48.4185
47.8169
48.6389
48.6445
48.6556
48.6709
48.6877
48.6991
48.6899
48.6253
48.4184
47.8169
48.6388
48.6445
48.6556
48.6709
48.6877
48.6991
48.6899
48.6253
48.4184
47.8169
48.6388
48.6445
48.6555
48.6709
48.6877
48.6991
48.6899
48.6253
48.4184
47.8168
48.6388
48.6445
48.6555
48.6709
48.6877
48.6991
48.6899
48.6253
48.4184
47.8168
48.6388
48.6445
48.6555
48.6709
48.6877
48.6991
48.6899
48.6253
48.4184
47.8169
48.6388
48.6445
48.6556
48.6709
48.6877
48.6991
48.6899
48.6253
48.4184
47.8169
48.6389
48.6445
48.6556
48.671
48.6877
48.6992
48.69
48.6253
48.4185
47.8169
48.6389
48.6446
48.6556
48.671
48.6878
48.6992
48.69
48.6254
48.4185
47.817
44.1196
44.1345
44.1649
44.211
44.2728
44.3475
44.4273
44.4942
44.5136
44.4387
44.1196
44.1345
44.1648
44.211
44.2727
44.3474
44.4272
44.4942
44.5136
44.4386
44.1195
44.1345
44.1648
44.211
44.2727
44.3474
44.4272
44.4941
44.5135
44.4386
44.1195
44.1344
44.1647
44.2109
44.2727
44.3474
44.4271
44.4941
44.5135
44.4386
44.1195
44.1344
44.1647
44.2109
44.2727
44.3473
44.4271
44.4941
44.5135
44.4385
44.1195
44.1344
44.1647
44.2109
44.2727
44.3473
44.4271
44.4941
44.5135
44.4385
44.1195
44.1344
44.1647
44.2109
44.2727
44.3474
44.4271
44.4941
44.5135
44.4385
44.1195
44.1344
44.1648
44.2109
44.2727
44.3474
44.4272
44.4941
44.5135
44.4386
44.1195
44.1345
44.1648
44.211
44.2727
44.3474
44.4272
44.4941
44.5136
44.4386
44.1196
44.1345
44.1648
44.211
44.2728
44.3475
44.4273
44.4942
44.5136
44.4387
39.8989
39.9251
39.979
40.0636
40.183
40.3417
40.5448
40.7984
41.1166
41.5464
39.8989
39.925
39.9789
40.0635
40.1829
40.3417
40.5447
40.7983
41.1165
41.5463
39.8988
39.925
39.9789
40.0635
40.1829
40.3416
40.5447
40.7983
41.1165
41.5463
39.8988
39.925
39.9789
40.0635
40.1828
40.3416
40.5446
40.7982
41.1165
41.5463
39.8988
39.9249
39.9788
40.0635
40.1828
40.3416
40.5446
40.7982
41.1164
41.5462
39.8988
39.9249
39.9788
40.0635
40.1828
40.3416
40.5446
40.7982
41.1164
41.5462
39.8988
39.9249
39.9789
40.0635
40.1828
40.3416
40.5446
40.7982
41.1165
41.5462
39.8988
39.925
39.9789
40.0635
40.1829
40.3416
40.5447
40.7982
41.1165
41.5463
39.8988
39.925
39.9789
40.0635
40.1829
40.3416
40.5447
40.7983
41.1165
41.5463
39.8989
39.925
39.979
40.0636
40.1829
40.3417
40.5447
40.7983
41.1166
41.5464
35.9755
36.0139
36.0937
36.2206
36.4038
36.6558
36.9935
37.4414
38.038
38.8518
35.9755
36.0138
36.0936
36.2206
36.4038
36.6557
36.9934
37.4413
38.038
38.8517
35.9754
36.0138
36.0936
36.2206
36.4037
36.6557
36.9934
37.4412
38.0379
38.8517
35.9754
36.0138
36.0935
36.2205
36.4037
36.6556
36.9934
37.4412
38.0379
38.8516
35.9754
36.0138
36.0935
36.2205
36.4037
36.6556
36.9933
37.4412
38.0379
38.8516
35.9754
36.0138
36.0935
36.2205
36.4037
36.6556
36.9933
37.4412
38.0379
38.8516
35.9754
36.0138
36.0935
36.2205
36.4037
36.6556
36.9933
37.4412
38.0379
38.8516
35.9754
36.0138
36.0936
36.2205
36.4037
36.6557
36.9934
37.4412
38.0379
38.8517
35.9754
36.0138
36.0936
36.2206
36.4038
36.6557
36.9934
37.4413
38.038
38.8517
35.9755
36.0139
36.0936
36.2206
36.4038
36.6558
36.9935
37.4413
38.038
38.8518
32.3434
32.3938
32.4991
32.6678
32.9137
33.2565
33.7228
34.3486
35.1818
36.287
32.3433
32.3938
32.499
32.6677
32.9137
33.2564
33.7227
34.3485
35.1818
36.287
32.3433
32.3938
32.499
32.6677
32.9136
33.2564
33.7227
34.3484
35.1817
36.2869
32.3433
32.3937
32.4989
32.6677
32.9136
33.2564
33.7227
34.3484
35.1817
36.2869
32.3433
32.3937
32.4989
32.6676
32.9136
33.2563
33.7227
34.3484
35.1817
36.2868
32.3433
32.3937
32.4989
32.6676
32.9136
33.2563
33.7226
34.3484
35.1817
36.2868
32.3433
32.3937
32.4989
32.6677
32.9136
33.2564
33.7227
34.3484
35.1817
36.2869
32.3433
32.3937
32.499
32.6677
32.9136
33.2564
33.7227
34.3484
35.1817
36.2869
32.3433
32.3938
32.499
32.6677
32.9137
33.2564
33.7227
34.3485
35.1818
36.2869
32.3434
32.3938
32.499
32.6678
32.9137
33.2565
33.7228
34.3485
35.1818
36.287
28.9933
29.0543
29.1818
29.3871
29.6879
30.1098
30.6874
31.4654
32.4971
33.8397
28.9932
29.0542
29.1818
29.3871
29.6878
30.1097
30.6873
31.4653
32.497
33.8396
28.9932
29.0542
29.1818
29.387
29.6878
30.1097
30.6873
31.4652
32.497
33.8396
28.9931
29.0542
29.1817
29.387
29.6878
30.1096
30.6873
31.4652
32.497
33.8396
28.9931
29.0542
29.1817
29.387
29.6878
30.1096
30.6872
31.4652
32.4969
33.8395
28.9931
29.0542
29.1817
29.387
29.6878
30.1096
30.6872
31.4652
32.4969
33.8395
28.9931
29.0542
29.1817
29.387
29.6878
30.1096
30.6873
31.4652
32.497
33.8396
28.9932
29.0542
29.1817
29.387
29.6878
30.1097
30.6873
31.4652
32.497
33.8396
28.9932
29.0542
29.1818
29.387
29.6878
30.1097
30.6873
31.4653
32.497
33.8396
28.9932
29.0543
29.1818
29.3871
29.6879
30.1098
30.6874
31.4653
32.4971
33.8397
25.9139
25.9829
26.1271
26.3597
26.7014
27.1828
27.8457
28.7447
29.944
31.5038
25.9138
25.9828
26.1271
26.3596
26.7014
27.1827
27.8456
28.7446
29.9439
31.5038
25.9138
25.9828
26.1271
26.3596
26.7013
27.1827
27.8455
28.7446
29.9439
31.5037
25.9137
25.9827
26.127
26.3596
26.7013
27.1826
27.8455
28.7445
29.9439
31.5037
25.9137
25.9827
26.127
26.3596
26.7013
27.1826
27.8455
28.7445
29.9438
31.5036
25.9137
25.9827
26.127
26.3596
26.7013
27.1826
27.8455
28.7445
29.9438
31.5036
25.9137
25.9827
26.127
26.3596
26.7013
27.1826
27.8455
28.7445
29.9439
31.5037
25.9138
25.9828
26.127
26.3596
26.7013
27.1827
27.8455
28.7446
29.9439
31.5037
25.9138
25.9828
26.1271
26.3596
26.7014
27.1827
27.8456
28.7446
29.9439
31.5037
25.9138
25.9828
26.1271
26.3597
26.7014
27.1827
27.8456
28.7447
29.944
31.5038
23.0935
23.1669
23.3204
23.5677
23.9313
24.4448
25.1567
26.1346
27.4675
29.2505
23.0934
23.1669
23.3204
23.5677
23.9313
24.4448
25.1566
26.1345
27.4674
29.2504
23.0934
23.1668
23.3203
23.5677
23.9313
24.4447
25.1566
26.1345
27.4674
29.2504
23.0934
23.1668
23.3203
23.5676
23.9312
24.4447
25.1565
26.1344
27.4673
29.2503
23.0934
23.1668
23.3203
23.5676
23.9312
24.4447
25.1565
26.1344
27.4673
29.2503
23.0934
23.1668
23.3203
23.5676
23.9312
24.4447
25.1565
26.1344
27.4673
29.2503
23.0934
23.1668
23.3203
23.5676
23.9312
24.4447
25.1565
26.1345
27.4673
29.2503
23.0934
23.1668
23.3203
23.5677
23.9313
24.4447
25.1566
26.1345
27.4674
29.2504
23.0934
23.1669
23.3204
23.5677
23.9313
24.4448
25.1566
26.1345
27.4674
29.2504
23.0934
23.1669
23.3204
23.5677
23.9313
24.4448
25.1567
26.1346
27.4675
29.2505
20.5212
20.5951
20.7493
20.9968
21.3595
21.8707
22.5812
23.5705
24.9677
26.9762
20.5211
20.5951
20.7492
20.9968
21.3595
21.8707
22.5811
23.5704
24.9676
26.9761
20.5211
20.595
20.7492
20.9968
21.3594
21.8706
22.5811
23.5704
24.9676
26.976
20.5211
20.595
20.7492
20.9967
21.3594
21.8706
22.581
23.5704
24.9675
26.976
20.5211
20.595
20.7491
20.9967
21.3594
21.8706
22.581
23.5703
24.9675
26.976
20.5211
20.595
20.7491
20.9967
21.3594
21.8706
22.581
23.5703
24.9675
26.976
20.5211
20.595
20.7492
20.9967
21.3594
21.8706
22.581
23.5704
24.9675
26.976
20.5211
20.595
20.7492
20.9967
21.3594
21.8706
22.5811
23.5704
24.9676
26.976
20.5211
20.595
20.7492
20.9968
21.3595
21.8707
22.5811
23.5704
24.9676
26.9761
20.5211
20.5951
20.7493
20.9968
21.3595
21.8707
22.5812
23.5705
24.9677
26.9762
18.1877
18.2582
18.4047
18.6381
18.9766
19.4475
20.0931
20.9848
22.2677
24.3287
18.1876
18.2582
18.4046
18.6381
18.9765
19.4474
20.093
20.9847
22.2677
24.3287
18.1876
18.2581
18.4046
18.638
18.9765
19.4474
20.093
20.9847
22.2676
24.3286
18.1876
18.2581
18.4046
18.638
18.9765
19.4474
20.093
20.9846
22.2676
24.3286
18.1875
18.2581
18.4046
18.638
18.9764
19.4473
20.093
20.9846
22.2676
24.3286
18.1875
18.2581
18.4046
18.638
18.9764
19.4473
20.093
20.9846
22.2676
24.3286
18.1875
18.2581
18.4046
18.638
18.9765
19.4474
20.093
20.9847
22.2676
24.3286
18.1876
18.2581
18.4046
18.638
18.9765
19.4474
20.093
20.9847
22.2676
24.3286
18.1876
18.2582
18.4046
18.6381
18.9765
19.4474
20.093
20.9847
22.2677
24.3287
18.1876
18.2582
18.4047
18.6381
18.9766
19.4475
20.0931
20.9848
22.2677
24.3288
45.9416
46.1635
47.909
50.999
55.4343
61.3393
68.9705
78.7822
91.6011
109.09
45.9415
46.1634
47.909
50.9989
55.4342
61.3392
68.9704
78.7821
91.601
109.09
45.9415
46.1634
47.9089
50.9988
55.4341
61.3391
68.9703
78.782
91.6009
109.09
45.9414
46.1633
47.9088
50.9988
55.434
61.3391
68.9702
78.7819
91.6009
109.09
45.9414
46.1633
47.9088
50.9987
55.434
61.339
68.9702
78.7819
91.6008
109.09
45.9414
46.1633
47.9088
50.9987
55.434
61.339
68.9702
78.7819
91.6008
109.09
45.9414
46.1633
47.9088
50.9987
55.434
61.339
68.9702
78.7819
91.6008
109.09
45.9415
46.1633
47.9089
50.9988
55.4341
61.3391
68.9703
78.7819
91.6009
109.09
45.9415
46.1634
47.9089
50.9988
55.4341
61.3391
68.9703
78.782
91.6009
109.09
45.9416
46.1634
47.909
50.9989
55.4342
61.3392
68.9704
78.7821
91.601
109.09
44.3248
45.1686
47.1355
50.2621
54.607
60.2859
67.4889
76.4952
87.6666
101.296
44.3247
45.1685
47.1354
50.262
54.6069
60.2858
67.4888
76.4951
87.6665
101.295
44.3246
45.1685
47.1353
50.2619
54.6068
60.2858
67.4887
76.495
87.6665
101.295
44.3246
45.1684
47.1353
50.2619
54.6068
60.2857
67.4887
76.495
87.6664
101.295
44.3246
45.1684
47.1352
50.2619
54.6068
60.2857
67.4886
76.4949
87.6664
101.295
44.3246
45.1684
47.1352
50.2619
54.6068
60.2857
67.4886
76.4949
87.6664
101.295
44.3246
45.1684
47.1352
50.2619
54.6068
60.2857
67.4887
76.4949
87.6664
101.295
44.3246
45.1684
47.1353
50.2619
54.6068
60.2857
67.4887
76.495
87.6664
101.295
44.3247
45.1685
47.1353
50.262
54.6069
60.2858
67.4888
76.4951
87.6665
101.295
44.3247
45.1686
47.1354
50.2621
54.607
60.2859
67.4889
76.4951
87.6666
101.296
42.2404
43.5835
45.7745
48.9161
53.0884
58.3813
64.9031
72.7641
82.0125
92.4528
42.2403
43.5834
45.7744
48.916
53.0883
58.3812
64.903
72.764
82.0124
92.4527
42.2403
43.5833
45.7743
48.916
53.0882
58.3812
64.9029
72.7639
82.0123
92.4526
42.2402
43.5833
45.7743
48.9159
53.0882
58.3811
64.9029
72.7639
82.0122
92.4526
42.2402
43.5832
45.7743
48.9159
53.0881
58.3811
64.9029
72.7638
82.0122
92.4526
42.2402
43.5832
45.7742
48.9159
53.0881
58.3811
64.9029
72.7638
82.0122
92.4525
42.2402
43.5833
45.7743
48.9159
53.0881
58.3811
64.9029
72.7639
82.0122
92.4526
42.2403
43.5833
45.7743
48.9159
53.0882
58.3811
64.9029
72.7639
82.0123
92.4526
42.2403
43.5833
45.7744
48.916
53.0882
58.3812
64.903
72.764
82.0124
92.4527
42.2404
43.5834
45.7744
48.9161
53.0883
58.3813
64.9031
72.7641
82.0125
92.4528
40.0058
41.6872
44.0371
47.1491
51.0915
55.9202
61.677
68.367
75.9061
84.0236
40.0058
41.6871
44.037
47.149
51.0914
55.9201
61.6769
68.3669
75.906
84.0235
40.0057
41.6871
44.0369
47.1489
51.0913
55.9201
61.6768
68.3668
75.9059
84.0234
40.0057
41.687
44.0369
47.1489
51.0913
55.92
61.6767
68.3667
75.9059
84.0234
40.0056
41.687
44.0368
47.1488
51.0912
55.92
61.6767
68.3667
75.9058
84.0233
40.0056
41.687
44.0368
47.1488
51.0912
55.92
61.6767
68.3667
75.9058
84.0233
40.0057
41.687
44.0368
47.1488
51.0912
55.92
61.6767
68.3667
75.9059
84.0233
40.0057
41.6871
44.0369
47.1489
51.0913
55.92
61.6768
68.3668
75.9059
84.0234
40.0057
41.6871
44.0369
47.1489
51.0914
55.9201
61.6768
68.3669
75.906
84.0235
40.0058
41.6872
44.037
47.149
51.0914
55.9202
61.6769
68.367
75.9061
84.0236
37.748
39.6622
42.1126
45.161
48.8499
53.2025
58.2153
63.8416
69.9616
76.3467
37.748
39.6622
42.1126
45.1609
48.8498
53.2024
58.2152
63.8415
69.9615
76.3466
37.7479
39.6621
42.1125
45.1609
48.8498
53.2023
58.2152
63.8414
69.9614
76.3465
37.7479
39.6621
42.1124
45.1608
48.8497
53.2022
58.2151
63.8414
69.9614
76.3464
37.7479
39.662
42.1124
45.1608
48.8497
53.2022
58.2151
63.8414
69.9613
76.3464
37.7479
39.662
42.1124
45.1608
48.8497
53.2022
58.2151
63.8414
69.9613
76.3464
37.7479
39.6621
42.1124
45.1608
48.8497
53.2022
58.2151
63.8414
69.9614
76.3464
37.7479
39.6621
42.1125
45.1609
48.8498
53.2023
58.2152
63.8414
69.9614
76.3465
37.748
39.6621
42.1125
45.1609
48.8498
53.2024
58.2152
63.8415
69.9615
76.3466
37.748
39.6622
42.1126
45.161
48.8499
53.2025
58.2153
63.8416
69.9616
76.3467
35.5432
37.6414
40.1651
43.141
46.585
50.494
54.8364
59.5418
64.4911
69.5136
35.5431
37.6414
40.165
43.1409
46.5849
50.4939
54.8363
59.5416
64.4909
69.5135
35.543
37.6413
40.165
43.1408
46.5848
50.4938
54.8362
59.5416
64.4909
69.5134
35.543
37.6413
40.1649
43.1408
46.5848
50.4937
54.8361
59.5415
64.4908
69.5133
35.543
37.6412
40.1649
43.1408
46.5847
50.4937
54.8361
59.5415
64.4908
69.5133
35.543
37.6412
40.1649
43.1408
46.5847
50.4937
54.8361
59.5415
64.4908
69.5133
35.543
37.6412
40.1649
43.1408
46.5848
50.4937
54.8361
59.5415
64.4908
69.5133
35.543
37.6413
40.165
43.1408
46.5848
50.4938
54.8362
59.5416
64.4909
69.5134
35.5431
37.6413
40.165
43.1409
46.5849
50.4939
54.8363
59.5416
64.4909
69.5135
35.5431
37.6414
40.1651
43.141
46.585
50.494
54.8364
59.5418
64.4911
69.5136
33.4482
35.7341
38.3386
41.2593
44.4932
48.0193
51.7879
55.7144
59.6834
63.5664
33.4482
35.734
38.3385
41.2592
44.4931
48.0192
51.7877
55.7143
59.6833
63.5663
33.4481
35.734
38.3385
41.2592
44.493
48.0191
51.7877
55.7143
59.6832
63.5662
33.4481
35.7339
38.3384
41.2591
44.4929
48.0191
51.7876
55.7142
59.6832
63.5661
33.4481
35.7339
38.3384
41.2591
44.4929
48.0191
51.7876
55.7142
59.6831
63.5661
33.4481
35.7339
38.3384
41.2591
44.4929
48.0191
51.7876
55.7142
59.6831
63.5661
33.4481
35.7339
38.3384
41.2591
44.4929
48.0191
51.7876
55.7142
59.6832
63.5661
33.4481
35.734
38.3385
41.2592
44.493
48.0191
51.7877
55.7143
59.6832
63.5662
33.4482
35.734
38.3385
41.2592
44.4931
48.0192
51.7878
55.7143
59.6833
63.5663
33.4482
35.7341
38.3386
41.2593
44.4932
48.0193
51.7879
55.7144
59.6834
63.5664
31.5124
34.0436
36.7662
39.6684
42.7445
45.9667
49.2717
52.5577
55.6936
58.5551
31.5124
34.0435
36.7661
39.6683
42.7444
45.9666
49.2716
52.5576
55.6935
58.555
31.5123
34.0435
36.7661
39.6682
42.7444
45.9665
49.2715
52.5575
55.6935
58.5549
31.5123
34.0434
36.766
39.6682
42.7443
45.9665
49.2715
52.5575
55.6934
58.5548
31.5123
34.0434
36.766
39.6681
42.7443
45.9665
49.2714
52.5575
55.6934
58.5548
31.5123
34.0434
36.766
39.6681
42.7443
45.9665
49.2715
52.5575
55.6934
58.5548
31.5123
34.0434
36.766
39.6682
42.7443
45.9665
49.2715
52.5575
55.6934
58.5548
31.5123
34.0435
36.7661
39.6682
42.7444
45.9665
49.2715
52.5575
55.6935
58.5549
31.5124
34.0435
36.7661
39.6683
42.7444
45.9666
49.2716
52.5576
55.6935
58.555
31.5124
34.0436
36.7662
39.6684
42.7445
45.9667
49.2717
52.5577
55.6937
58.5551
29.801
32.6921
35.5809
38.5043
41.4826
44.493
47.4618
50.2602
52.7055
54.5893
29.8009
32.692
35.5808
38.5042
41.4825
44.4929
47.4617
50.2601
52.7054
54.5892
29.8008
32.6919
35.5807
38.5041
41.4825
44.4928
47.4616
50.26
52.7054
54.5891
29.8008
32.6919
35.5807
38.5041
41.4824
44.4928
47.4616
50.26
52.7053
54.5891
29.8008
32.6919
35.5807
38.5041
41.4824
44.4928
47.4616
50.26
52.7053
54.5891
29.8008
32.6919
35.5807
38.5041
41.4824
44.4928
47.4616
50.26
52.7053
54.5891
29.8008
32.6919
35.5807
38.5041
41.4824
44.4928
47.4616
50.26
52.7053
54.5891
29.8008
32.6919
35.5807
38.5042
41.4825
44.4929
47.4616
50.26
52.7054
54.5892
29.8009
32.692
35.5808
38.5042
41.4825
44.4929
47.4617
50.2601
52.7055
54.5892
29.801
32.6921
35.5809
38.5043
41.4826
44.493
47.4618
50.2602
52.7056
54.5894
28.5075
31.8677
34.9239
37.8836
40.8191
43.7203
46.5069
49.0216
51.0015
51.9966
28.5075
31.8676
34.9238
37.8835
40.8191
43.7203
46.5068
49.0215
51.0014
51.9965
28.5074
31.8676
34.9238
37.8835
40.819
43.7202
46.5067
49.0215
51.0013
51.9965
28.5074
31.8676
34.9237
37.8834
40.819
43.7202
46.5067
49.0214
51.0013
51.9964
28.5074
31.8675
34.9237
37.8834
40.819
43.7201
46.5067
49.0214
51.0013
51.9964
28.5074
31.8675
34.9237
37.8834
40.819
43.7201
46.5067
49.0214
51.0013
51.9964
28.5074
31.8676
34.9238
37.8834
40.819
43.7202
46.5067
49.0214
51.0013
51.9964
28.5074
31.8676
34.9238
37.8835
40.819
43.7202
46.5068
49.0215
51.0013
51.9965
28.5075
31.8677
34.9239
37.8835
40.8191
43.7203
46.5068
49.0216
51.0014
51.9965
28.5076
31.8677
34.9239
37.8836
40.8192
43.7204
46.5069
49.0217
51.0015
51.9967
135.117
147.614
155.362
160.844
164.939
168.039
170.353
172.005
173.069
173.591
135.116
147.614
155.362
160.844
164.939
168.039
170.353
172.005
173.069
173.591
135.116
147.614
155.362
160.844
164.939
168.039
170.353
172.005
173.069
173.591
135.116
147.614
155.362
160.844
164.939
168.039
170.353
172.005
173.069
173.591
135.116
147.614
155.362
160.844
164.939
168.039
170.353
172.005
173.069
173.591
135.116
147.614
155.362
160.844
164.939
168.039
170.353
172.005
173.069
173.591
135.116
147.614
155.362
160.844
164.939
168.039
170.353
172.005
173.069
173.591
135.116
147.614
155.362
160.844
164.939
168.039
170.353
172.005
173.069
173.591
135.116
147.614
155.362
160.844
164.939
168.039
170.353
172.005
173.069
173.591
135.117
147.614
155.362
160.844
164.939
168.039
170.353
172.005
173.069
173.591
116.722
127.995
136.027
141.905
146.305
149.618
152.076
153.822
154.944
155.493
116.722
127.995
136.027
141.905
146.305
149.618
152.076
153.822
154.944
155.493
116.721
127.995
136.026
141.905
146.305
149.618
152.076
153.822
154.944
155.493
116.721
127.995
136.026
141.905
146.305
149.618
152.076
153.822
154.944
155.493
116.721
127.995
136.026
141.905
146.305
149.618
152.076
153.822
154.944
155.493
116.721
127.995
136.026
141.905
146.305
149.618
152.076
153.822
154.944
155.493
116.721
127.995
136.026
141.905
146.305
149.618
152.076
153.822
154.944
155.493
116.721
127.995
136.026
141.905
146.305
149.618
152.076
153.822
154.944
155.493
116.721
127.995
136.026
141.905
146.305
149.618
152.076
153.822
154.944
155.493
116.722
127.995
136.027
141.905
146.305
149.618
152.076
153.822
154.944
155.493
103.233
112.378
119.609
125.215
129.534
132.832
135.296
137.052
138.182
138.735
103.233
112.378
119.609
125.215
129.534
132.832
135.296
137.052
138.182
138.735
103.233
112.378
119.609
125.215
129.534
132.832
135.296
137.052
138.182
138.735
103.233
112.378
119.609
125.215
129.534
132.832
135.296
137.052
138.182
138.735
103.233
112.378
119.609
125.215
129.534
132.832
135.296
137.052
138.182
138.735
103.233
112.378
119.609
125.215
129.534
132.832
135.296
137.052
138.182
138.735
103.233
112.378
119.609
125.215
129.534
132.832
135.296
137.052
138.182
138.735
103.233
112.378
119.609
125.215
129.534
132.832
135.296
137.052
138.182
138.735
103.233
112.378
119.609
125.215
129.534
132.832
135.296
137.052
138.182
138.735
103.233
112.378
119.609
125.215
129.534
132.832
135.296
137.052
138.182
138.735
92.1448
99.4476
105.598
110.599
114.577
117.679
120.027
121.713
122.804
123.34
92.1447
99.4474
105.598
110.598
114.577
117.679
120.027
121.713
122.804
123.34
92.1446
99.4474
105.598
110.598
114.577
117.679
120.027
121.713
122.804
123.34
92.1446
99.4473
105.598
110.598
114.577
117.679
120.027
121.713
122.804
123.34
92.1445
99.4473
105.598
110.598
114.577
117.679
120.026
121.713
122.804
123.34
92.1445
99.4473
105.598
110.598
114.577
117.679
120.026
121.713
122.804
123.34
92.1446
99.4473
105.598
110.598
114.577
117.679
120.027
121.713
122.804
123.34
92.1446
99.4474
105.598
110.598
114.577
117.679
120.027
121.713
122.804
123.34
92.1447
99.4474
105.598
110.598
114.577
117.679
120.027
121.713
122.804
123.34
92.1448
99.4476
105.598
110.599
114.577
117.679
120.027
121.713
122.804
123.34
82.6434
88.4485
93.5242
97.7997
101.3
104.088
106.231
107.787
108.8
109.3
82.6433
88.4484
93.5241
97.7996
101.3
104.088
106.231
107.787
108.8
109.3
82.6432
88.4483
93.524
97.7995
101.3
104.088
106.231
107.787
108.8
109.299
82.6432
88.4483
93.5239
97.7994
101.3
104.088
106.231
107.787
108.8
109.299
82.6431
88.4482
93.5239
97.7994
101.3
104.088
106.231
107.787
108.8
109.299
82.6431
88.4482
93.5239
97.7994
101.3
104.088
106.231
107.787
108.8
109.299
82.6432
88.4483
93.5239
97.7994
101.3
104.088
106.231
107.787
108.8
109.299
82.6432
88.4483
93.524
97.7995
101.3
104.088
106.231
107.787
108.8
109.3
82.6433
88.4484
93.5241
97.7996
101.3
104.088
106.231
107.787
108.8
109.3
82.6434
88.4485
93.5242
97.7997
101.3
104.088
106.231
107.787
108.8
109.3
74.4028
78.9594
83.0407
86.5741
89.5407
91.9532
93.8378
95.2224
96.1312
96.5813
74.4027
78.9593
83.0406
86.5739
89.5406
91.9531
93.8376
95.2223
96.1311
96.5812
74.4026
78.9592
83.0405
86.5739
89.5405
91.953
93.8376
95.2222
96.131
96.5811
74.4026
78.9591
83.0405
86.5738
89.5404
91.953
93.8375
95.2221
96.131
96.5811
74.4025
78.9591
83.0404
86.5738
89.5404
91.9529
93.8375
95.2221
96.131
96.5811
74.4025
78.9591
83.0404
86.5738
89.5404
91.953
93.8375
95.2221
96.131
96.5811
74.4026
78.9591
83.0405
86.5738
89.5404
91.953
93.8375
95.2222
96.131
96.5811
74.4026
78.9592
83.0405
86.5739
89.5405
91.953
93.8376
95.2222
96.1311
96.5812
74.4027
78.9593
83.0406
86.574
89.5406
91.9531
93.8377
95.2223
96.1312
96.5813
74.4028
78.9594
83.0407
86.5741
89.5407
91.9533
93.8378
95.2224
96.1313
96.5814
67.261
70.7229
73.8921
76.71
79.1368
81.1536
82.7561
83.9488
84.7385
85.1316
67.2609
70.7228
73.892
76.7099
79.1367
81.1535
82.756
83.9487
84.7384
85.1315
67.2608
70.7227
73.8919
76.7098
79.1366
81.1534
82.756
83.9486
84.7383
85.1314
67.2608
70.7227
73.8919
76.7098
79.1366
81.1533
82.7559
83.9485
84.7383
85.1314
67.2607
70.7227
73.8918
76.7097
79.1366
81.1533
82.7559
83.9485
84.7382
85.1314
67.2607
70.7227
73.8918
76.7097
79.1366
81.1533
82.7559
83.9485
84.7382
85.1314
67.2608
70.7227
73.8919
76.7098
79.1366
81.1533
82.7559
83.9486
84.7383
85.1314
67.2608
70.7227
73.8919
76.7098
79.1367
81.1534
82.756
83.9486
84.7383
85.1315
67.2609
70.7228
73.892
76.7099
79.1368
81.1535
82.7561
83.9487
84.7384
85.1316
67.261
70.7229
73.8921
76.71
79.1369
81.1536
82.7562
83.9488
84.7386
85.1317
61.1121
63.5498
65.8741
68.0238
69.9362
71.5663
72.887
73.8839
74.5503
74.8839
61.112
63.5497
65.874
68.0236
69.9361
71.5662