/*--------------------------------*- C++ -*----------------------------------*\
  =========                 |
  \\      /  F ield         | OpenFOAM: The Open Source CFD Toolbox
   \\    /   O peration     | Website:  https://openfoam.org
    \\  /    A nd           | Version:  6
     \\/     M anipulation  |
\*---------------------------------------------------------------------------*/
FoamFile
{
    version     2.0;
    format      ascii;
    class       volScalarField;
    location    "800";
    object      p;
}
// * * * * * * * * * * * * * * * * * * * * * * * * * * * * * * * * * * * * * //

dimensions      [0 2 -2 0 0 0 0];

internalField   nonuniform List<scalar> 
7000
(
0.038728
0.0365018
0.0359874
0.0357668
0.0356667
0.0356964
0.035853
0.0361216
0.0366775
0.0389731
0.0364685
0.0342402
0.0337268
0.0335062
0.0334061
0.0334359
0.033593
0.0338621
0.0344175
0.0367153
0.0359313
0.0337039
0.0331902
0.0329697
0.0328697
0.0328997
0.0330573
0.0333268
0.0338829
0.0361797
0.0356817
0.0334538
0.03294
0.0327193
0.0326191
0.032649
0.0328065
0.0330761
0.0336322
0.0359284
0.0355454
0.0333165
0.0328022
0.0325809
0.03248
0.032509
0.0326657
0.0329346
0.03349
0.0357847
0.0355347
0.0333046
0.0327895
0.0325672
0.0324648
0.0324923
0.0326473
0.0329147
0.0334687
0.0357605
0.0356505
0.0334191
0.032903
0.0326794
0.0325753
0.0326007
0.0327534
0.0330186
0.0335706
0.0358586
0.0358825
0.0336497
0.0331326
0.0329075
0.0328015
0.0328248
0.0329752
0.0332382
0.033788
0.0360722
0.0364056
0.0341704
0.0336525
0.0334261
0.0333185
0.0333397
0.0334879
0.0337487
0.0342962
0.0365784
0.0386462
0.036411
0.0358905
0.035662
0.0355519
0.03557
0.0357146
0.0359722
0.0365179
0.0387947
0.0357706
0.0343785
0.0344053
0.0341906
0.0340919
0.0341258
0.0342903
0.0345616
0.0345695
0.036056
0.0343381
0.0329447
0.0329744
0.0327589
0.0326599
0.0326939
0.0328589
0.0331316
0.0331373
0.0346255
0.0343454
0.0329548
0.0329837
0.0327684
0.0326697
0.0327041
0.0328699
0.0331434
0.0331512
0.0346367
0.034098
0.0327061
0.0327349
0.0325195
0.0324205
0.0324548
0.0326205
0.032894
0.0329022
0.0343878
0.0339587
0.0325656
0.0325939
0.0323777
0.0322778
0.032311
0.0324756
0.0327482
0.032756
0.0342396
0.0339474
0.032553
0.0325805
0.032363
0.0322614
0.0322927
0.0324552
0.0327257
0.0327319
0.0342116
0.0340651
0.0326692
0.0326957
0.0324766
0.0323729
0.0324016
0.0325611
0.0328287
0.0328324
0.0343069
0.0342936
0.0328967
0.0329221
0.0327011
0.0325951
0.032621
0.0327774
0.033042
0.033043
0.0345117
0.0342721
0.0328708
0.0328963
0.0326738
0.032566
0.0325898
0.0327437
0.0330057
0.0330035
0.0344715
0.0356875
0.0342853
0.0343063
0.0340822
0.0339716
0.0339917
0.0341414
0.0343988
0.0343965
0.0358586
0.0332989
0.0325086
0.0328594
0.0326648
0.0326277
0.0326686
0.0327857
0.0330514
0.032734
0.0336522
0.0324583
0.0316702
0.0320262
0.0318299
0.0317928
0.0318343
0.0319523
0.0322216
0.0319012
0.0328188
0.0327904
0.0320074
0.0323617
0.032166
0.0321295
0.032172
0.0322917
0.0325624
0.0322465
0.0331601
0.032557
0.0317715
0.032126
0.0319303
0.0318935
0.0319359
0.0320558
0.032327
0.032012
0.0329272
0.0324723
0.0316855
0.0320395
0.0318427
0.0318047
0.0318458
0.0319645
0.0322345
0.0319194
0.0328312
0.03246
0.0316714
0.0320245
0.031826
0.0317858
0.0318243
0.0319399
0.0322068
0.0318895
0.032795
0.0325211
0.0317303
0.0320822
0.0318816
0.0318385
0.0318733
0.0319845
0.0322468
0.0319256
0.0328229
0.0327337
0.0319424
0.0322927
0.0320895
0.0320433
0.0320742
0.0321808
0.0324383
0.0321133
0.0330001
0.0323863
0.0315883
0.0319395
0.0317343
0.0316859
0.0317139
0.031817
0.0320711
0.0317408
0.0326265
0.0332071
0.0324038
0.0327478
0.0325411
0.0324884
0.0325114
0.0326087
0.0328549
0.0325249
0.0334056
0.0320031
0.0314491
0.0318226
0.0316203
0.0316598
0.0317108
0.0317705
0.0320644
0.0317293
0.0324566
0.0313869
0.030838
0.0312177
0.0310128
0.0310538
0.0311064
0.0311684
0.0314699
0.0311345
0.031864
0.0317404
0.0311973
0.0315745
0.0313711
0.0314132
0.0314679
0.0315332
0.0318382
0.0315111
0.0322394
0.0314904
0.0309435
0.0313215
0.0311179
0.03116
0.0312151
0.0312816
0.0315886
0.0312639
0.0319966
0.0314726
0.0309249
0.0313021
0.0310972
0.0311376
0.0311912
0.0312562
0.031562
0.0312376
0.0319648
0.0314586
0.0309084
0.0312845
0.0310772
0.0311145
0.0311641
0.0312245
0.0315252
0.0311968
0.031913
0.0314495
0.0308956
0.0312702
0.0310598
0.0310929
0.0311369
0.0311903
0.031483
0.0311475
0.0318492
0.0316755
0.0311215
0.0314934
0.0312795
0.031308
0.0313459
0.0313918
0.031676
0.0313335
0.0320162
0.0313051
0.0307429
0.0311164
0.0308992
0.0309246
0.0309582
0.0309984
0.0312769
0.0309255
0.0316033
0.0318972
0.0313261
0.0316909
0.0314719
0.0314904
0.0315164
0.0315485
0.0318144
0.0314613
0.0321301
0.0310819
0.0306443
0.0309643
0.0307528
0.0308471
0.0309102
0.0309385
0.0312674
0.0309919
0.0316676
0.0305696
0.0301394
0.0304657
0.0302512
0.0303492
0.0304165
0.0304505
0.0307945
0.0305277
0.0312144
0.0308669
0.0304423
0.0307656
0.0305536
0.0306536
0.030725
0.0307658
0.0311175
0.0308667
0.0315602
0.0305969
0.0301676
0.0304921
0.0302799
0.0303803
0.0304532
0.0304973
0.0308543
0.0306105
0.0313139
0.0306221
0.0301923
0.0305157
0.0303018
0.0304002
0.0304711
0.0305136
0.0308696
0.0306275
0.0313224
0.0306057
0.0301727
0.0304944
0.0302772
0.0303711
0.0304361
0.0304712
0.0308185
0.0305692
0.0312434
0.0305493
0.0301108
0.0304305
0.0302088
0.0302963
0.0303525
0.0303761
0.0307094
0.0304459
0.0310924
0.0307914
0.0303526
0.0306684
0.0304418
0.0305224
0.0305692
0.0305804
0.0308983
0.030621
0.0312333
0.0304746
0.0300273
0.0303451
0.0301138
0.0301898
0.0302298
0.0302317
0.0305398
0.0302475
0.0308434
0.0309587
0.0304989
0.0308072
0.030573
0.0306387
0.0306674
0.0306573
0.0309457
0.030645
0.0312251
0.0300514
0.0297308
0.0300256
0.0298282
0.0299587
0.0300346
0.0300509
0.0303926
0.0301493
0.0307881
0.0296431
0.0293326
0.0296338
0.0294341
0.0295712
0.0296557
0.0296852
0.0300556
0.0298388
0.0305188
0.0299124
0.0296072
0.0299053
0.0297093
0.02985
0.029942
0.0299847
0.0303724
0.0301852
0.0308935
0.0296452
0.0293345
0.0296344
0.0294382
0.0295802
0.0296758
0.0297258
0.0301264
0.0299559
0.0306884
0.029694
0.0293829
0.0296812
0.0294829
0.0296226
0.0297159
0.0297646
0.0301653
0.0299991
0.0307204
0.0296748
0.0293596
0.0296555
0.0294526
0.0295857
0.0296701
0.029707
0.0300927
0.0299116
0.0305931
0.0295895
0.029267
0.0295603
0.0293509
0.0294746
0.0295454
0.0295632
0.0299234
0.0297141
0.0303377
0.0298242
0.0295006
0.0297887
0.0295725
0.0296859
0.029742
0.0297395
0.030072
0.0298347
0.0303923
0.0295328
0.0292002
0.0294899
0.0292671
0.0293739
0.0294198
0.0294023
0.0297171
0.0294544
0.0299771
0.029908
0.0295593
0.0298387
0.0296113
0.0297035
0.0297332
0.0296972
0.0299829
0.0297046
0.030194
0.0289305
0.0287187
0.0290007
0.0288312
0.0289868
0.0290733
0.0290849
0.0294245
0.0291827
0.0298194
0.0286184
0.0284197
0.0287083
0.028538
0.0287045
0.0288073
0.0288455
0.0292388
0.0290644
0.0298064
0.0288725
0.0286789
0.0289648
0.0287998
0.0289723
0.029088
0.0291503
0.029578
0.029463
0.0302842
0.0286223
0.0284229
0.0287111
0.0285463
0.0287217
0.0288445
0.0289216
0.029376
0.0293018
0.0301843
0.0286848
0.0284849
0.0287709
0.0286035
0.0287761
0.0288967
0.0289733
0.0294302
0.0293678
0.0302392
0.0286624
0.0284573
0.0287402
0.0285663
0.0287296
0.0288368
0.0288945
0.0293246
0.0292321
0.0300207
0.0285577
0.0283434
0.0286227
0.0284397
0.0285893
0.0286758
0.0287021
0.0290861
0.0289353
0.029599
0.0287705
0.0285538
0.0288262
0.028634
0.0287687
0.0288331
0.0288266
0.0291624
0.0289546
0.0294872
0.0284912
0.0282652
0.0285387
0.028338
0.0284635
0.0285128
0.0284833
0.0287894
0.0285396
0.0289936
0.0287665
0.0285198
0.0287821
0.0285739
0.0286801
0.0287068
0.0286505
0.0289155
0.0286351
0.029034
0.0278221
0.0276913
0.0279498
0.0278067
0.0279761
0.0280678
0.0280728
0.0283947
0.0281452
0.0287724
0.0275796
0.0274648
0.0277301
0.0275888
0.0277746
0.0278937
0.0279478
0.0283679
0.0282599
0.0291666
0.0278091
0.0276989
0.027962
0.0278279
0.0280231
0.0281632
0.0282585
0.0287463
0.0287604
0.029882
0.0275762
0.0274602
0.0277262
0.0275926
0.0277932
0.0279461
0.0280691
0.028613
0.0287221
0.030014
0.0276442
0.0275274
0.0277906
0.027654
0.0278513
0.0280022
0.0281273
0.0286808
0.0288173
0.0301159
0.0276185
0.0274953
0.0277543
0.0276091
0.0277934
0.0279248
0.0280198
0.0285255
0.0285953
0.0297159
0.0275022
0.027368
0.0276222
0.0274645
0.0276296
0.02773
0.0277742
0.0281966
0.0281427
0.0289704
0.0276924
0.027554
0.0277995
0.0276296
0.027774
0.027842
0.0278349
0.0281727
0.0280035
0.0285422
0.0274347
0.0272866
0.0275324
0.0273517
0.0274836
0.0275305
0.0274896
0.0277789
0.0275377
0.0279211
0.0276362
0.0274639
0.0276978
0.0275064
0.027614
0.0276313
0.027554
0.0277891
0.0275092
0.0278086
0.026732
0.0266572
0.0268829
0.0267604
0.02693
0.0270154
0.0269993
0.0272815
0.0269404
0.0274635
0.0265367
0.0264805
0.0267132
0.0265957
0.0267886
0.0269162
0.0269815
0.027428
0.0273696
0.0285114
0.0267345
0.0266822
0.0269134
0.0268052
0.0270118
0.0271712
0.027302
0.0278684
0.0280552
0.0297361
0.0265165
0.0264588
0.0266934
0.0265863
0.0268014
0.0269819
0.0271613
0.0278328
0.0282358
0.0303934
0.026583
0.026524
0.0267553
0.0266446
0.0268559
0.0270354
0.0272214
0.0279137
0.0283865
0.0306339
0.026554
0.0264874
0.0267132
0.0265912
0.0267851
0.0269366
0.0270757
0.0276831
0.0280178
0.0298651
0.026433
0.0263539
0.0265734
0.0264352
0.026603
0.0267099
0.0267702
0.0272342
0.0273137
0.0284784
0.0266033
0.026518
0.026727
0.0265732
0.0267135
0.0267751
0.0267589
0.0270875
0.0269437
0.0274741
0.0263744
0.0262798
0.0264883
0.0263216
0.0264463
0.0264806
0.0264188
0.0266779
0.0264244
0.0266504
0.0265264
0.026404
0.0266003
0.02642
0.0265161
0.0265148
0.0264099
0.0266073
0.0263198
0.0264804
0.0256277
0.0255937
0.0257865
0.0256808
0.025838
0.0259027
0.0258348
0.0260048
0.0254959
0.0254007
0.0254678
0.0254549
0.0256546
0.0255572
0.0257443
0.0258667
0.0259181
0.0263338
0.0263267
0.02756
0.0256353
0.0256254
0.0258243
0.0257377
0.0259426
0.0261075
0.026253
0.0268661
0.0273296
0.0299326
0.0254326
0.0254178
0.0256202
0.0255354
0.025752
0.0259476
0.0261701
0.0269691
0.0279098
0.0318539
0.0254935
0.0254769
0.0256752
0.025586
0.0257982
0.0259937
0.0262292
0.0270744
0.0281768
0.0324851
0.0254613
0.0254361
0.0256277
0.0255244
0.0257139
0.0258712
0.0260367
0.0267423
0.0275509
0.0309132
0.0253403
0.0253015
0.0254853
0.0253619
0.0255182
0.0256151
0.025666
0.0261389
0.0264331
0.0281189
0.0254906
0.0254438
0.0256155
0.0254734
0.0255955
0.0256337
0.0255792
0.0258479
0.0257221
0.0259755
0.0252891
0.0252333
0.0254038
0.0252473
0.0253515
0.0253578
0.0252488
0.0254279
0.0251438
0.024864
0.0254037
0.0253179
0.0254765
0.0253041
0.0253776
0.025346
0.0251947
0.0253246
0.0250649
0.0249431
0.0244907
0.0244869
0.0246495
0.0245568
0.0246897
0.0247143
0.0245589
0.0244889
0.0235248
0.0223424
0.0243597
0.0243791
0.024548
0.0244662
0.0246327
0.0247252
0.0247142
0.0249437
0.0245723
0.0254838
0.0245007
0.0245222
0.0246906
0.0246201
0.0248067
0.0249493
0.0250588
0.0255532
0.025859
0.0292094
0.024314
0.0243314
0.024503
0.0244345
0.0246354
0.0248179
0.0250349
0.0258069
0.0269027
0.0330045
0.0243672
0.0243824
0.0245491
0.0244752
0.0246706
0.0248533
0.0250902
0.0259317
0.0273176
0.0343568
0.0243321
0.0243381
0.0244967
0.0244059
0.0245733
0.0247065
0.0248466
0.0254807
0.0263906
0.0316041
0.0242138
0.0242056
0.0243553
0.0242413
0.0243692
0.0244276
0.0244149
0.0247311
0.0249112
0.0271123
0.0243443
0.0243267
0.0244633
0.0243283
0.0244176
0.0244078
0.0242651
0.0243274
0.0240225
0.0238823
0.0241667
0.0241414
0.0242765
0.0241273
0.0241991
0.024158
0.0239611
0.0239455
0.0235297
0.0226996
0.0242528
0.0241961
0.0243205
0.024155
0.0241979
0.0241241
0.0239039
0.0238872
0.0236257
0.0236328
0.023327
0.0233451
0.0234821
0.023403
0.0235096
0.0234912
0.0232551
0.0229395
0.0213539
0.0198399
0.0232195
0.0232625
0.0234044
0.0233359
0.0234728
0.0235115
0.0233877
0.0232693
0.0217624
0.0209429
0.0233365
0.0233805
0.0235211
0.0234621
0.0236155
0.023696
0.0236706
0.0237522
0.0225962
0.0231945
0.0231656
0.0232063
0.0233491
0.0232909
0.0234572
0.0235753
0.023654
0.0240054
0.0235469
0.0268251
0.0232101
0.0232485
0.0233853
0.0233202
0.0234783
0.0235917
0.0236822
0.0240873
0.0238622
0.0281493
0.0231728
0.0232019
0.0233294
0.0232453
0.0233711
0.0234267
0.0234033
0.0235645
0.0228319
0.0250482
0.0230594
0.0230747
0.0231927
0.023084
0.0231684
0.0231476
0.0229721
0.0228372
0.0217327
0.0218618
0.0231711
0.0231766
0.0232816
0.0231521
0.0231992
0.0231173
0.0228343
0.0225227
0.0214756
0.0208103
0.023015
0.0230143
0.023118
0.0229763
0.0230109
0.0229096
0.0226005
0.0222832
0.0214394
0.0206541
0.0230789
0.0230464
0.0231417
0.0229853
0.0229976
0.0228775
0.0225768
0.022342
0.021784
0.0220342
0.0221431
0.0221779
0.0222972
0.0222394
0.0223362
0.0223016
0.0220504
0.0217459
0.0198493
0.0175241
0.0220541
0.0221149
0.022236
0.022185
0.022299
0.0222876
0.0220586
0.0217587
0.0194857
0.0169214
0.0221485
0.0222087
0.0223264
0.0222796
0.0223992
0.0224029
0.0222039
0.0219478
0.0196573
0.0173638
0.0219919
0.0220496
0.0221675
0.0221183
0.0222437
0.0222682
0.0221304
0.0220406
0.0201913
0.0200948
0.0220273
0.0220825
0.0221929
0.0221343
0.0222459
0.0222539
0.0220987
0.0219887
0.0201538
0.0206439
0.0219881
0.0220347
0.0221347
0.0220555
0.0221315
0.0220751
0.0217936
0.0213981
0.0189079
0.0167994
0.021881
0.0219153
0.0220058
0.0219032
0.0219416
0.0218213
0.0214277
0.0208101
0.0182832
0.0153678
0.0219766
0.0220014
0.0220802
0.0219599
0.0219698
0.0218144
0.0213853
0.0207166
0.0186546
0.0161467
0.0218411
0.021862
0.0219407
0.0218124
0.0218193
0.0216669
0.0212624
0.0206646
0.0190859
0.0169995
0.0218893
0.0218796
0.0219531
0.0218141
0.0218092
0.0216574
0.0212952
0.0208443
0.0196427
0.0184673
0.0209454
0.0209957
0.0211105
0.0210932
0.0212254
0.0212658
0.0211671
0.0213129
0.0202499
0.0187988
0.020871
0.0209482
0.0210607
0.0210442
0.0211763
0.0212015
0.0210321
0.0209957
0.0192222
0.0165536
0.0209444
0.021019
0.0211252
0.0211062
0.0212297
0.0212414
0.0210318
0.0208867
0.0188749
0.0157601
0.0208011
0.0208742
0.0209779
0.0209521
0.0210715
0.0210823
0.0208783
0.0207651
0.0188866
0.0171053
0.0208275
0.0208984
0.0209927
0.0209546
0.021053
0.0210303
0.020765
0.020517
0.0182977
0.0160165
0.0207873
0.0208506
0.0209334
0.0208733
0.0209323
0.0208338
0.0204148
0.0198185
0.016754
0.0112755
0.0206876
0.0207408
0.0208147
0.0207337
0.02076
0.0206079
0.0201131
0.019346
0.0163141
0.0108406
0.0207696
0.0208144
0.0208783
0.0207844
0.020793
0.0206308
0.0201746
0.0194473
0.0169897
0.012849
0.0206528
0.0206967
0.0207618
0.0206646
0.0206797
0.0205404
0.0201565
0.0195473
0.0177654
0.0149972
0.0206906
0.0207046
0.0207678
0.0206632
0.0206753
0.0205501
0.0202165
0.0197465
0.0183705
0.0163706
0.0197355
0.0198048
0.0199324
0.0199834
0.0202121
0.0204524
0.0207052
0.0216581
0.0222853
0.0235109
0.0196728
0.0197691
0.0198898
0.0199353
0.020147
0.0203404
0.020453
0.0210528
0.0206821
0.0194378
0.0197268
0.0198182
0.0199292
0.019965
0.0201543
0.0203114
0.0203419
0.02071
0.0200103
0.0181158
0.0195958
0.0196866
0.0197919
0.0198163
0.019991
0.0201284
0.0201225
0.0204065
0.0197716
0.0189282
0.0196136
0.0197025
0.019796
0.0198049
0.0199511
0.0200388
0.0199317
0.019993
0.0187915
0.0167108
0.0195728
0.0196552
0.0197357
0.0197208
0.0198225
0.0198205
0.0195303
0.0192052
0.0171146
0.0116813
0.0194811
0.0195559
0.0196273
0.0195934
0.0196652
0.0196102
0.0192556
0.018791
0.0166606
0.0114076
0.0195512
0.0196191
0.0196822
0.0196391
0.0197017
0.0196474
0.0193738
0.0190291
0.0173821
0.0142521
0.0194526
0.0195218
0.0195869
0.0195443
0.0196195
0.0195966
0.0194244
0.0192114
0.0181387
0.0166612
0.0194825
0.019524
0.0195901
0.0195421
0.0196177
0.0196094
0.0194736
0.0193037
0.0184324
0.0166988
0.0185114
0.0186011
0.0187523
0.0188873
0.0192441
0.0197458
0.0204252
0.0221832
0.0245341
0.0288126
0.0184576
0.0185745
0.0187147
0.0188395
0.0191659
0.0195997
0.020113
0.0214136
0.0226359
0.0237001
0.0184947
0.0186046
0.0187322
0.0188425
0.0191376
0.0195251
0.0199656
0.0209924
0.0218202
0.0221827
0.0183758
0.0184861
0.0186055
0.0187022
0.0189775
0.0193427
0.0197622
0.0206926
0.0218206
0.0243171
0.0183861
0.018495
0.0186007
0.0186805
0.0189246
0.0192401
0.0195637
0.0202847
0.0209561
0.022671
0.0183457
0.0184492
0.0185403
0.0185952
0.0187932
0.0190154
0.0191472
0.0195187
0.0194082
0.0180209
0.0182624
0.0183605
0.018442
0.0184786
0.0186489
0.0188141
0.0188678
0.0191225
0.0188008
0.0170991
0.018323
0.0184154
0.0184895
0.0185189
0.0186847
0.0188484
0.0189846
0.0194177
0.0194525
0.0199918
0.0182405
0.0183369
0.0184137
0.0184457
0.0186262
0.0188166
0.0190487
0.0195892
0.0200243
0.0223506
0.0182667
0.0183357
0.0184152
0.0184415
0.0186199
0.0188115
0.0190366
0.019446
0.0196405
0.0195143
0.0172686
0.0173761
0.0175511
0.017766
0.0182397
0.0189787
0.0200123
0.0222982
0.025811
0.0311397
0.017222
0.0173559
0.0175158
0.0177173
0.01815
0.0188045
0.0196882
0.0215361
0.0239901
0.0265203
0.0172447
0.0173695
0.0175147
0.0176985
0.018095
0.0186959
0.0195464
0.0211602
0.0230822
0.0251737
0.0171378
0.017264
0.017399
0.0175686
0.0179446
0.0185298
0.0194208
0.0210044
0.0234972
0.0301491
0.0171422
0.0172671
0.017387
0.0175397
0.017887
0.018436
0.0192747
0.0207338
0.0230569
0.0307117
0.0171034
0.0172237
0.0173278
0.0174558
0.0177597
0.0182265
0.0188846
0.0200558
0.0217323
0.026041
0.0170289
0.0171457
0.0172398
0.0173501
0.0176295
0.0180416
0.0185961
0.0196592
0.0210283
0.0237814
0.0170814
0.0171935
0.017281
0.0173849
0.0176635
0.0180736
0.0186874
0.0199785
0.0216405
0.0266049
0.0170151
0.0171325
0.0172228
0.0173306
0.0176243
0.0180526
0.0187376
0.02012
0.0219861
0.0284887
0.0170374
0.0171292
0.0172241
0.0173254
0.0176126
0.0180219
0.0186512
0.0197359
0.0212105
0.0231868
0.0159966
0.0161092
0.0162909
0.0165509
0.0170759
0.017935
0.01914
0.0215088
0.0256508
0.0312789
0.0159553
0.0160927
0.0162553
0.0164991
0.0169767
0.0177324
0.0188135
0.0209096
0.0243368
0.0279753
0.015967
0.0160933
0.0162401
0.0164646
0.0169046
0.0175896
0.0186527
0.0206438
0.0232617
0.0266259
0.0158726
0.0160009
0.0161358
0.0163462
0.0167652
0.017431
0.0185938
0.0206425
0.023491
0.0331357
0.0158731
0.0159997
0.0161186
0.0163124
0.0167048
0.0173487
0.0185136
0.0205066
0.0232278
0.0358139
0.0158375
0.0159602
0.0160631
0.0162331
0.0165859
0.0171697
0.0181786
0.0198974
0.0221422
0.0312467
0.0157728
0.0158935
0.0159868
0.0161406
0.0164725
0.0170182
0.0179082
0.0194646
0.021537
0.0276853
0.0158205
0.0159371
0.0160253
0.0161743
0.0165106
0.0170687
0.0179973
0.0197908
0.0221627
0.0305619
0.0157691
0.0158939
0.0159865
0.0161424
0.0164973
0.0170724
0.018047
0.019899
0.0222222
0.0300599
0.0157926
0.015892
0.0159917
0.0161435
0.0164951
0.0170508
0.0179787
0.0194895
0.0219257
0.025915
0.0146923
0.0147908
0.0149516
0.0152038
0.0156871
0.0165054
0.0177048
0.0196834
0.0243231
0.0345276
0.0146559
0.0147765
0.0149152
0.0151495
0.0155861
0.0162913
0.0173758
0.0193568
0.0237595
0.0333341
0.0146609
0.0147688
0.0148922
0.0151061
0.0155067
0.0161146
0.0171082
0.019113
0.0223575
0.0302374
0.0145801
0.0146899
0.0147999
0.0149974
0.0153713
0.0159269
0.0169772
0.0190458
0.0210353
0.0320548
0.0145792
0.0146862
0.0147797
0.0149594
0.0153026
0.0158292
0.0169001
0.018916
0.0201319
0.034307
0.0145494
0.0146526
0.014731
0.0148889
0.0151935
0.0156816
0.0166582
0.018406
0.019464
0.0319286
0.014496
0.0145984
0.014669
0.0148145
0.0151011
0.0155798
0.0164757
0.0180109
0.0194121
0.0297555
0.0145404
0.0146397
0.0147082
0.0148533
0.0151519
0.0156752
0.0166471
0.0184168
0.0202976
0.0330239
0.0145051
0.0146139
0.0146888
0.0148457
0.0151695
0.0157208
0.0167243
0.0185076
0.0205404
0.0316001
0.0145287
0.0146156
0.0147021
0.0148625
0.015199
0.0157586
0.0168009
0.0183479
0.0212075
0.0310613
0.0133546
0.013416
0.0135251
0.0137094
0.0140497
0.0146187
0.0155969
0.0169415
0.018832
0.0333893
0.0133228
0.0134039
0.0134906
0.0136578
0.0139662
0.0144527
0.0153363
0.016957
0.0199538
0.0373046
0.0133255
0.0133934
0.0134675
0.0136134
0.0138911
0.0142677
0.0149008
0.0165749
0.018744
0.0327035
0.0132592
0.0133278
0.0133872
0.0135112
0.013749
0.0140108
0.0144937
0.0161059
0.0152824
0.0244541
0.0132596
0.0133233
0.0133663
0.0134699
0.0136648
0.0138606
0.0143221
0.0158617
0.0131725
0.0223193
0.0132382
0.0132977
0.0133279
0.0134139
0.013568
0.0137386
0.0142353
0.0156215
0.0131554
0.0236943
0.0131976
0.0132574
0.0132829
0.0133635
0.0135015
0.0136892
0.0142381
0.0154948
0.0141051
0.0266419
0.0132426
0.0133
0.0133275
0.013416
0.0135762
0.0138432
0.0145508
0.0160207
0.0147845
0.0284671
0.0132229
0.0132932
0.0133299
0.0134371
0.0136315
0.0139447
0.0147046
0.0161642
0.0156042
0.0295315
0.0132523
0.0133035
0.013358
0.0134813
0.0137167
0.0140881
0.0150264
0.016453
0.0172259
0.033023
0.0205467
0.0213589
0.0190729
0.0154465
0.0132854
0.0135057
0.0151783
0.0168984
0.0188166
0.0185866
0.0233422
0.0240277
0.0216473
0.0170365
0.0131779
0.0119377
0.0133766
0.0162053
0.0196061
0.0214385
0.0278078
0.0291742
0.0270757
0.0223768
0.0172316
0.0139888
0.0138306
0.0163354
0.0203899
0.0228986
0.0325124
0.0325053
0.0294505
0.0248826
0.0197998
0.016146
0.0154031
0.0174122
0.0211085
0.0235409
0.0339221
0.0328444
0.0290873
0.0243316
0.0197538
0.0168757
0.0167087
0.0186473
0.0216729
0.0234444
0.0305936
0.0301263
0.0278538
0.0241474
0.0200584
0.0175337
0.0176229
0.0192925
0.0215837
0.0221258
0.0255212
0.0253622
0.0252589
0.0236035
0.0203882
0.0179298
0.0177878
0.0191946
0.0213115
0.0217314
0.0224346
0.023467
0.024516
0.0234768
0.0204862
0.0180191
0.0178127
0.0191788
0.0212613
0.0217137
0.0216648
0.0235344
0.0245173
0.0230541
0.0200306
0.0179712
0.0180324
0.0193702
0.021313
0.0220592
0.0226288
0.0239053
0.0233002
0.0214765
0.0192293
0.0181398
0.0185947
0.0196742
0.0210232
0.0207575
0.0187283
0.0182021
0.0152402
0.0110903
0.00872586
0.00949446
0.0125487
0.0157179
0.0185862
0.0208815
0.0188038
0.0190823
0.0159303
0.0107474
0.00716263
0.00646745
0.00854795
0.0126956
0.0180917
0.0219476
0.0212565
0.022903
0.0207776
0.0155766
0.0111201
0.00923849
0.0100462
0.0131078
0.0181072
0.0218582
0.0255336
0.0256229
0.0234145
0.0189484
0.0144033
0.0118531
0.0118697
0.0141757
0.018686
0.0224012
0.0267744
0.025842
0.0237509
0.0199272
0.0158212
0.0132569
0.0131367
0.0154493
0.0198333
0.0233423
0.0227083
0.0231434
0.0230356
0.0205032
0.0167806
0.0143396
0.0145012
0.0169425
0.0207985
0.0239117
0.0190994
0.0199412
0.0214627
0.0204788
0.0173983
0.0150053
0.0148779
0.0170234
0.0207017
0.0239085
0.0183093
0.0195766
0.0212294
0.0206799
0.017824
0.0154373
0.0151973
0.0171807
0.0206695
0.0235268
0.0190609
0.0201545
0.0208725
0.0191773
0.0164266
0.0147042
0.0149357
0.0171368
0.0206546
0.0234069
0.0211298
0.0208914
0.0201056
0.0180908
0.0159224
0.0151156
0.0161582
0.0182186
0.0206596
0.0227122
0.0171097
0.016845
0.0135511
0.00914303
0.00642354
0.00638616
0.00878054
0.0126477
0.0162245
0.0180614
0.0153602
0.016111
0.012399
0.00741097
0.00457
0.00417668
0.00598083
0.00971851
0.0152469
0.0186304
0.0160633
0.0176724
0.0148398
0.00967801
0.0066963
0.00629469
0.00786575
0.0109247
0.0155845
0.0184584
0.018606
0.0194641
0.0175765
0.0131451
0.0096982
0.0085702
0.00955821
0.0119621
0.01593
0.0186396
0.0187972
0.01969
0.0188345
0.0153243
0.0116472
0.00977446
0.010213
0.0125661
0.0167711
0.019774
0.0143767
0.017209
0.018492
0.0162807
0.0127319
0.0106786
0.0110496
0.0136274
0.0179634
0.0209688
0.0126077
0.0154271
0.0174218
0.0163565
0.0132945
0.011358
0.011567
0.0138185
0.017806
0.0208325
0.0129306
0.0160746
0.0177208
0.0164568
0.0135738
0.011751
0.011882
0.0140745
0.0179549
0.0206463
0.0147744
0.0166905
0.0168971
0.0145752
0.0121132
0.0108186
0.0112085
0.0136853
0.0177698
0.0203968
0.017592
0.0176488
0.0169146
0.0148963
0.0128476
0.011837
0.012654
0.0150828
0.0180146
0.0199074
0.0188633
0.0181249
0.0134089
0.00880127
0.00619286
0.00544571
0.00625545
0.00889364
0.0120618
0.0126026
0.0151539
0.0162518
0.0113362
0.00629235
0.00400414
0.00357142
0.00467788
0.00722143
0.0116607
0.0138285
0.0149662
0.0155233
0.0110566
0.00596148
0.00405636
0.00427292
0.00600058
0.00873362
0.0127011
0.0143544
0.015395
0.0156521
0.0130021
0.00848474
0.00597203
0.00576951
0.00732443
0.00971731
0.0129752
0.0143019
0.0131748
0.014948
0.0143204
0.0106803
0.00748728
0.0062822
0.00724817
0.00958254
0.0131046
0.0148766
0.00825539
0.0121088
0.0141267
0.0114909
0.00817254
0.00686018
0.00759192
0.00990759
0.0136529
0.0154654
0.00741397
0.0111463
0.0131368
0.0114124
0.00842336
0.00723411
0.00792837
0.0100679
0.0134608
0.0150637
0.00914612
0.0127808
0.0138841
0.0113269
0.00850244
0.0073389
0.0079957
0.0102757
0.0138756
0.0154002
0.0124469
0.0136884
0.0129403
0.0102498
0.00806087
0.00694013
0.00742133
0.00971434
0.0134788
0.0151827
0.0153771
0.0153573
0.0144237
0.0127256
0.0108189
0.00921122
0.00926952
0.0112089
0.0136345
0.0142994
0.0243816
0.0213163
0.0142235
0.008524
0.0059322
0.00516244
0.00534843
0.00686053
0.00891088
0.00853268
0.0184728
0.018189
0.0109865
0.00525332
0.00340832
0.00303759
0.00405313
0.00595459
0.00904509
0.010005
0.0174319
0.0162327
0.00922181
0.00375916
0.00236704
0.00303013
0.00482692
0.00719997
0.0104051
0.0110906
0.0166912
0.0151228
0.0104567
0.00531001
0.0032073
0.00356546
0.00536475
0.00766425
0.010485
0.0109907
0.012636
0.0133481
0.011388
0.0069948
0.00402348
0.00349029
0.00476048
0.00693309
0.00994225
0.0108718
0.00799638
0.0102409
0.0113494
0.00756497
0.00430736
0.00365937
0.00469255
0.00678418
0.00986805
0.0107203
0.00665364
0.0093639
0.0106346
0.00759501
0.00439591
0.00367696
0.0047218
0.00679858
0.00966608
0.0101801
0.0102462
0.0116516
0.0114782
0.00754218
0.00435318
0.00333525
0.00419969
0.00647802
0.00988212
0.0107217
0.0142881
0.0134287
0.0104606
0.00681618
0.00438814
0.00312034
0.00366003
0.0057163
0.00916572
0.010407
0.0157881
0.0152169
0.0131322
0.0110477
0.00841246
0.00577812
0.00536285
0.00709632
0.0092868
0.0091972
0.0298596
0.0244453
0.0153973
0.00834748
0.006025
0.00544879
0.00550506
0.00673166
0.00788844
0.00663912
0.0240593
0.0205753
0.0111455
0.00497757
0.00337714
0.00322173
0.00430727
0.00606451
0.0082101
0.00768077
0.0217812
0.0185306
0.00895368
0.0029942
0.00175316
0.00285096
0.00468906
0.00680612
0.00937069
0.00884498
0.0214955
0.0175866
0.00997542
0.00362255
0.00166212
0.00227062
0.00425205
0.00655384
0.00912616
0.00869249
0.0179319
0.0160344
0.0109631
0.00485015
0.00186295
0.00182122
0.00328118
0.0054346
0.00815361
0.00801011
0.0150778
0.0139018
0.0115015
0.00550581
0.00195485
0.00164658
0.00290851
0.00499871
0.00767571
0.00743479
0.0134326
0.0134132
0.0115728
0.00586942
0.00202429
0.00138691
0.00261684
0.00473579
0.00736127
0.00685198
0.0184181
0.0161896
0.0121466
0.0058427
0.00198178
0.000961151
0.0017966
0.00385837
0.00709541
0.00723368
0.0233314
0.0177855
0.0103964
0.00513133
0.00209827
0.000727274
0.00117898
0.00293775
0.00612028
0.00668314
0.0204745
0.0178006
0.0135973
0.00993147
0.00568026
0.0022773
0.00206109
0.00398475
0.00630001
0.00550863
0.0304575
0.0249186
0.0164772
0.00903115
0.00707029
0.00674669
0.00668188
0.00772779
0.00855575
0.00675022
0.0268072
0.0216925
0.0119233
0.00611983
0.00451094
0.00431556
0.00532657
0.00708885
0.00884639
0.00699347
0.02483
0.0202952
0.00962122
0.0036722
0.00230791
0.00340606
0.00519473
0.00734603
0.00966225
0.00784915
0.0269762
0.0208952
0.010929
0.00342029
0.00153157
0.00210419
0.00408212
0.00659921
0.00917274
0.00754891
0.0259213
0.0212601
0.0129848
0.00464857
0.00149334
0.00140213
0.00290293
0.00538535
0.00802303
0.00653392
0.0246507
0.0210117
0.0145511
0.00565023
0.00152097
0.00108369
0.00245026
0.0048336
0.00730238
0.00582768
0.0228948
0.0209008
0.0152257
0.00632861
0.00155656
0.000722499
0.00204878
0.00443317
0.00693845
0.00534567
0.0271072
0.0227745
0.0151457
0.00632455
0.00154577
0.000345616
0.00123111
0.00345907
0.00642027
0.0055352
0.0284346
0.021642
0.012279
0.00561554
0.00178897
0.000173084
0.000646889
0.00265662
0.00551528
0.00482809
0.0256446
0.0210688
0.0157252
0.0104169
0.00480377
0.00125394
0.00118303
0.00349394
0.00579156
0.00409361
0.0281845
0.0245949
0.0180682
0.0115403
0.00929304
0.00879631
0.00850702
0.00890426
0.0103905
0.00968245
0.0260284
0.0218824
0.0139889
0.00928988
0.00727735
0.00693645
0.00777324
0.00930873
0.0114533
0.00886572
0.0249643
0.0205374
0.0117869
0.00642821
0.00452232
0.00527632
0.00706157
0.00959805
0.0122021
0.00953297
0.0292935
0.0225801
0.0134872
0.00558837
0.00306159
0.00354159
0.00561925
0.0087043
0.0115433
0.00902675
0.0306221
0.025125
0.0171502
0.0074142
0.00287508
0.00261515
0.00440277
0.00749794
0.0103369
0.00809061
0.0298301
0.0263232
0.0197865
0.00931399
0.00308544
0.00225215
0.00392987
0.00685515
0.00951414
0.00758985
0.0280978
0.0266814
0.0208019
0.0102246
0.00327876
0.00199023
0.00356262
0.0064497
0.00913674
0.00711959
0.0304872
0.0271214
0.0198911
0.00965574
0.00315341
0.00172157
0.00287763
0.00558673
0.0088034
0.00737074
0.0264477
0.0234852
0.0163645
0.00854982
0.00339201
0.00161632
0.00236328
0.00499497
0.00840562
0.00686862
0.0257753
0.0234023
0.0197628
0.0139822
0.00672728
0.00265355
0.00264338
0.00547224
0.0086865
0.00683517
0.0315528
0.0271786
0.0222654
0.0170996
0.0126378
0.00852506
0.00392318
0.00276023
0.0122796
0.0287082
0.0303571
0.0247455
0.019717
0.0156801
0.0112468
0.007483
0.00476241
0.00394625
0.0115734
0.0227429
0.0275818
0.023357
0.0187726
0.0135343
0.00847378
0.00614662
0.00538626
0.00542616
0.0117956
0.0216407
0.02796
0.0246613
0.0202462
0.012508
0.00634219
0.00469825
0.00492314
0.00570072
0.0108052
0.0177681
0.0294138
0.0270697
0.0238826
0.0149009
0.00666093
0.00426477
0.00459558
0.00606568
0.0106233
0.0147242
0.0298624
0.0286534
0.0265071
0.0183223
0.00859836
0.00466633
0.00439653
0.00606944
0.0108004
0.0142108
0.0311548
0.0298948
0.027677
0.0195904
0.00950805
0.00466487
0.00365152
0.0051923
0.010256
0.0141735
0.0317067
0.0301574
0.0267311
0.0178259
0.00846565
0.00379677
0.00260397
0.00415701
0.00994055
0.0150524
0.0277182
0.0279105
0.0241703
0.0158332
0.0075474
0.00309337
0.00200108
0.00329209
0.00943815
0.0155134
0.0303175
0.0278282
0.0259327
0.0213527
0.0124612
0.00537352
0.0028823
0.00366818
0.0108839
0.0208994
0.0418993
0.03323
0.0285491
0.0261386
0.0242606
0.0210849
0.0117465
0.00607252
0.045015
0.139089
0.0487109
0.0349306
0.0294349
0.0270876
0.0251946
0.021483
0.0112721
0.00367417
0.0386404
0.125229
0.0424705
0.033259
0.0291607