/*--------------------------------*- C++ -*----------------------------------*\
  =========                 |
  \\      /  F ield         | OpenFOAM: The Open Source CFD Toolbox
   \\    /   O peration     | Website:  https://openfoam.org
    \\  /    A nd           | Version:  6
     \\/     M anipulation  |
\*---------------------------------------------------------------------------*/
FoamFile
{
    version     2.0;
    format      ascii;
    class       volVectorField;
    location    "800";
    object      U;
}
// * * * * * * * * * * * * * * * * * * * * * * * * * * * * * * * * * * * * * //

dimensions      [0 1 -1 0 0 0 0];

internalField   nonuniform List<vector> 
7000
(
(0.000594417 0.000604269 0.997866)
(0.000746329 0.000605388 0.999398)
(0.000200849 0.000605075 0.998938)
(6.60252e-05 0.000605163 0.998937)
(1.07036e-06 0.000605258 0.998938)
(-6.28089e-05 0.000605302 0.998936)
(-0.000122085 0.000605274 0.998931)
(-0.000248816 0.000605175 0.998927)
(-0.000790976 0.000605461 0.999402)
(-0.000616888 0.000604352 0.997836)
(0.000595476 0.000766911 0.999411)
(0.000746667 0.000767484 1.00094)
(0.000200492 0.000767694 1.00048)
(6.57387e-05 0.00076788 1.00048)
(7.52055e-07 0.000768179 1.00048)
(-6.32528e-05 0.000768456 1.00048)
(-0.000122579 0.000768674 1.00048)
(-0.000249202 0.000768832 1.00047)
(-0.000791807 0.000768865 1.00095)
(-0.000618096 0.000768344 0.999381)
(0.000595182 0.000225212 0.998944)
(0.00074689 0.000225284 1.00048)
(0.000200867 0.000225715 1.00002)
(6.61486e-05 0.000226165 1.00002)
(1.19224e-06 0.000226726 1.00002)
(-6.28304e-05 0.000227336 1.00002)
(-0.000122233 0.000227938 1.00001)
(-0.000248978 0.000228429 1.00001)
(-0.000791707 0.000228755 1.00048)
(-0.000617741 0.000228898 0.998915)
(0.000595345 9.66285e-05 0.998945)
(0.000747182 9.69821e-05 1.00048)
(0.000201345 9.75381e-05 1.00002)
(6.67466e-05 9.81929e-05 1.00002)
(1.89913e-06 9.90263e-05 1.00002)
(-6.20855e-05 9.99603e-05 1.00002)
(-0.000121543 0.000100904 1.00001)
(-0.000248398 0.000101723 1.00001)
(-0.000791268 0.000102387 1.00048)
(-0.000617649 0.000102697 0.998917)
(0.000595587 3.68066e-05 0.998948)
(0.00074771 3.73534e-05 1.00048)
(0.000202037 3.80489e-05 1.00002)
(6.76266e-05 3.89238e-05 1.00002)
(2.94957e-06 4.00405e-05 1.00002)
(-6.0961e-05 4.1306e-05 1.00002)
(-0.000120475 4.26014e-05 1.00001)
(-0.000247456 4.37567e-05 1.00001)
(-0.000790507 4.47679e-05 1.00049)
(-0.000617345 4.54788e-05 0.998921)
(0.000595864 -2.5118e-05 0.998948)
(0.000748358 -2.4512e-05 1.00048)
(0.000202893 -2.37485e-05 1.00002)
(6.87314e-05 -2.27363e-05 1.00002)
(4.27548e-06 -2.14418e-05 1.00002)
(-5.95281e-05 -1.99629e-05 1.00002)
(-0.000119093 -1.84351e-05 1.00002)
(-0.000246202 -1.70465e-05 1.00001)
(-0.000789337 -1.57598e-05 1.00049)
(-0.00061677 -1.46028e-05 0.998922)
(0.000596145 -8.62823e-05 0.998945)
(0.000749053 -8.56252e-05 1.00048)
(0.000203816 -8.48894e-05 1.00002)
(6.9934e-05 -8.3876e-05 1.00002)
(5.72452e-06 -8.25777e-05 1.00002)
(-5.79505e-05 -8.10877e-05 1.00002)
(-0.000117554 -7.95387e-05 1.00001)
(-0.000244766 -7.80981e-05 1.00001)
(-0.000787901 -7.67511e-05 1.00049)
(-0.00061601 -7.53857e-05 0.998921)
(0.000596407 -0.000216969 0.998944)
(0.000749763 -0.000216247 1.00048)
(0.000204667 -0.000215636 1.00002)
(7.1048e-05 -0.000214732 1.00002)
(7.07032e-06 -0.000213561 1.00002)
(-5.64796e-05 -0.000212202 1.00002)
(-0.000116093 -0.000210767 1.00001)
(-0.000243413 -0.000209442 1.00001)
(-0.000786518 -0.000208094 1.00049)
(-0.000615182 -0.000206881 0.998922)
(0.000597033 -0.000760292 0.999411)
(0.000750327 -0.000760125 1.00094)
(0.000205341 -0.000759523 1.00048)
(7.19994e-05 -0.000758645 1.00048)
(8.26364e-06 -0.000757584 1.00049)
(-5.51256e-05 -0.000756313 1.00048)
(-0.000114748 -0.000754943 1.00048)
(-0.000242062 -0.000753685 1.00048)
(-0.000785171 -0.000752416 1.00095)
(-0.000614868 -0.000750552 0.999388)
(0.000596408 -0.000601174 0.997866)
(0.000750735 -0.000601895 0.999399)
(0.000206435 -0.000601225 0.998938)
(7.32334e-05 -0.00060085 0.998938)
(9.71808e-06 -0.000600352 0.99894)
(-5.34727e-05 -0.000599722 0.998939)
(-0.000113085 -0.000599018 0.998935)
(-0.000240634 -0.000598291 0.998934)
(-0.000783117 -0.000598052 0.999409)
(-0.000612927 -0.000596183 0.997846)
(0.00147183 0.00147589 0.994386)
(0.00174616 0.00148173 0.999214)
(0.000470023 0.00147797 0.997356)
(0.000317889 0.00147719 0.997347)
(0.00014425 0.00147539 0.997339)
(-4.8018e-05 0.00147296 0.997342)
(-0.000229226 0.00147001 0.997355)
(-0.000394793 0.0014666 0.997369)
(-0.00170949 0.00146716 0.99927)
(-0.00146972 0.00145943 0.994361)
(0.00147805 0.00173545 0.999255)
(0.00174835 0.00173709 1.00409)
(0.000468264 0.00173375 1.00223)
(0.000316061 0.00173021 1.00222)
(0.000141376 0.00172544 1.00222)
(-5.20297e-05 0.00171944 1.00222)
(-0.00023384 0.00171258 1.00223)
(-0.000398394 0.00170595 1.00224)
(-0.00171519 0.0017015 1.00414)
(-0.00147711 0.00169567 0.999216)
(0.0014746 0.000435916 0.997375)
(0.00174542 0.000434034 1.00221)
(0.000464958 0.000430992 1.00035)
(0.00031118 0.000426011 1.00034)
(0.000135162 0.000419535 1.00033)
(-5.92643e-05 0.000411793 1.00033)
(-0.000241312 0.000403416 1.00034)
(-0.000405242 0.000395477 1.00035)
(-0.00171926 0.00038877 1.00225)
(-0.00147622 0.000386217 0.99733)
(0.00147458 0.000274271 0.997366)
(0.00174308 0.000273146 1.0022)
(0.000460428 0.000269575 1.00034)
(0.000304896 0.000264036 1.00033)
(0.000127424 0.000256862 1.00032)
(-6.79503e-05 0.000248395 1.00032)
(-0.000250029 0.000239399 1.00033)
(-0.000412997 0.00023094 1.00034)
(-0.00172475 0.000224013 1.00224)
(-0.00147867 0.000222002 0.997314)
(0.00147421 9.40359e-05 0.997356)
(0.00174085 9.30773e-05 1.0022)
(0.00045583 8.9553e-05 1.00033)
(0.000298512 8.42458e-05 1.00032)
(0.000119561 7.73528e-05 1.00031)
(-7.6708e-05 6.92829e-05 1.00031)
(-0.000258764 6.08246e-05 1.00032)
(-0.000420717 5.29135e-05 1.00032)
(-0.00172943 4.66528e-05 1.00222)
(-0.00147984 4.6759e-05 0.9973)
(0.00147397 -0.000100199 0.997356)
(0.00173891 -0.000100924 1.0022)
(0.000451621 -0.000104089 1.00033)
(0.000292728 -0.00010865 1.00032)
(0.000112485 -0.000114572 1.00031)
(-8.4476e-05 -0.000121429 1.00031)
(-0.000266412 -0.000128488 1.00032)
(-0.000427341 -0.000135035 1.00032)
(-0.00173243 -0.000139971 1.00222)
(-0.00147987 -0.000137567 0.997299)
(0.00147389 -0.000278119 0.997365)
(0.00173742 -0.000278515 1.00221)
(0.000448172 -0.000281032 1.00034)
(0.000288042 -0.000284505 1.00033)
(0.000106782 -0.000289078 1.00032)
(-9.06464e-05 -0.000294355 1.00032)
(-0.000272409 -0.000299733 1.00033)
(-0.000432454 -0.000304776 1.00033)
(-0.00173362 -0.000308221 1.00222)
(-0.00147879 -0.000304453 0.997312)
(0.00147352 -0.000435547 0.997374)
(0.00173654 -0.00043479 1.00222)
(0.000445731 -0.000436651 1.00035)
(0.00028468 -0.000439012 1.00034)
(0.000102621 -0.000442188 1.00033)
(-9.51625e-05 -0.000445853 1.00033)
(-0.000276877 -0.000449605 1.00034)
(-0.000436115 -0.000453018 1.00034)
(-0.00173373 -0.000455159 1.00223)
(-0.00147689 -0.000452166 0.997328)
(0.00147673 -0.00171684 0.999234)
(0.0017372 -0.00171771 1.00408)
(0.000443908 -0.00171679 1.00221)
(0.000282371 -0.00171706 1.0022)
(9.98484e-05 -0.00171749 1.00219)
(-9.81022e-05 -0.00171788 1.00218)
(-0.000279564 -0.00171799 1.00219)
(-0.0004382 -0.00171798 1.00219)
(-0.00173463 -0.00171888 1.00407)
(-0.00147859 -0.00171183 0.999174)
(0.00147182 -0.00145879 0.994394)
(0.00173616 -0.00146346 0.999237)
(0.000445256 -0.00146 0.997371)
(0.00028333 -0.00145984 0.997363)
(0.000101273 -0.00145902 0.997354)
(-9.60195e-05 -0.00145796 0.997355)
(-0.000277144 -0.00145656 0.997365)
(-0.000436703 -0.00145477 0.997375)
(-0.00172864 -0.00145661 0.999257)
(-0.00147002 -0.00144757 0.994379)
(0.00198846 0.0020136 0.990203)
(0.00216881 0.00202626 0.998822)
(0.000483777 0.00201801 0.995569)
(0.00047936 0.00201836 0.99555)
(0.000194722 0.00201614 0.995497)
(-9.44864e-05 0.00201301 0.995508)
(-0.000387499 0.00200911 0.995583)
(-0.000397054 0.00200279 0.995618)
(-0.00216376 0.00200626 0.998975)
(-0.00202811 0.00199019 0.990198)
(0.00200161 0.00217898 0.998913)
(0.00217458 0.00218421 1.00756)
(0.000482664 0.00217754 1.00429)
(0.000478746 0.00217384 1.00427)
(0.000191654 0.00216792 1.00422)
(-9.98492e-05 0.0021599 1.00423)
(-0.000395298 0.00215028 1.00429)
(-0.000403835 0.00213961 1.00432)
(-0.00217555 0.00213446 1.00767)
(-0.00204359 0.00212279 0.998863)
(0.00199383 0.000454466 0.995609)
(0.00216857 0.000453607 1.00424)
(0.000478501 0.000449897 1.00098)
(0.0004724 0.00044374 1.00096)
(0.000183358 0.000435736 1.0009)
(-0.000109917 0.000425677 1.00091)
(-0.00040607 0.000414305 1.00097)
(-0.000414532 0.00040315 1.00099)
(-0.00217968 0.00039272 1.00435)
(-0.00203919 0.000388391 0.99554)
(0.00199549 0.000446065 0.995588)
(0.0021669 0.000447286 1.00423)
(0.000473097 0.000443168 1.00096)
(0.000464994 0.000437034 1.00094)
(0.000173986 0.000428966 1.00088)
(-0.000120906 0.000419003 1.00088)
(-0.000417537 0.000407967 1.00094)
(-0.000425389 0.000397185 1.00096)
(-0.00218782 0.000387626 1.00431)
(-0.00204327 0.000385036 0.995495)
(0.00199576 0.000154968 0.995528)
(0.00216535 0.000156026 1.00417)
(0.0004683 0.000152398 1.0009)
(0.000458281 0.000147226 1.00088)
(0.000165396 0.000140317 1.00082)
(-0.000130879 0.000131922 1.00082)
(-0.000427874 0.000122863 1.00087)
(-0.000435129 0.000114159 1.00089)
(-0.00219276 0.00010667 1.00423)
(-0.00204345 0.000109921 0.995419)
(0.00199651 -0.000136555 0.995527)
(0.00216446 -0.000135321 1.00417)
(0.000464396 -0.000138231 1.0009)
(0.000452982 -0.000141987 1.00088)
(0.000158733 -0.000147021 1.00082)
(-0.000138349 -0.000152926 1.00082)
(-0.000435315 -0.000158969 1.00087)
(-0.000441941 -0.000164522 1.00088)
(-0.00219354 -0.000168956 1.00421)
(-0.002041 -0.000160408 0.995416)
(0.00199767 -0.000427194 0.995585)
(0.00216428 -0.000426354 1.00424)
(0.000461705 -0.000428221 1.00096)
(0.000449503 -0.000430309 1.00094)
(0.000154454 -0.000433319 1.00088)
(-0.000142869 -0.000436737 1.00087)
(-0.000439529 -0.000440005 1.00093)
(-0.000445518 -0.000442816 1.00094)
(-0.0021906 -0.000444776 1.00426)
(-0.00203656 -0.000432619 0.995485)
(0.00199721 -0.000436427 0.995604)
(0.00216439 -0.000434079 1.00426)
(0.000460537 -0.000435452 1.00098)
(0.000447871 -0.000436388 1.00096)
(0.000152278 -0.000438051 1.0009)
(-0.000145104 -0.00043986 1.00089)
(-0.000441475 -0.000441363 1.00095)
(-0.000447143 -0.000442696 1.00096)
(-0.0021855 -0.000442867 1.00427)
(-0.00202957 -0.000432827 0.995521)
(0.00200563 -0.00213951 0.998861)
(0.00216888 -0.00214127 1.00753)
(0.000459341 -0.0021362 1.00424)
(0.000446758 -0.00213475 1.00422)
(0.000150887 -0.00213238 1.00415)
(-0.000146274 -0.00212928 1.00414)
(-0.000442396 -0.00212545 1.00418)
(-0.000447321 -0.00212094 1.00418)
(-0.00218543 -0.0021213 1.00749)
(-0.00203283 -0.00210429 0.998739)
(0.00199551 -0.00198273 0.990235)
(0.00216696 -0.00199253 0.998894)
(0.00046273 -0.00198356 0.995622)
(0.000450071 -0.00198289 0.995603)
(0.000156441 -0.00197976 0.995546)
(-0.00013898 -0.001976 0.99555)
(-0.000433439 -0.00197183 0.995612)
(-0.000440429 -0.00196569 0.995634)
(-0.00217022 -0.00196962 0.998935)
(-0.00201389 -0.00194996 0.990241)
(0.00231783 0.00237175 0.985025)
(0.00234014 0.00239188 0.997856)
(0.000424761 0.00237794 0.993349)
(0.000592626 0.00237971 0.993332)
(0.000193782 0.00237608 0.993228)
(-0.000126266 0.00237126 0.993251)
(-0.000531715 0.00236494 0.9934)
(-0.000348501 0.00235318 0.993452)
(-0.00238922 0.00235839 0.998181)
(-0.00241633 0.00232837 0.985007)
(0.00233865 0.00238482 0.998049)
(0.00234948 0.00239388 1.01093)
(0.000423957 0.00238271 1.00639)
(0.000592568 0.00237877 1.00638)
(0.000188529 0.0023705 1.00627)
(-0.000136356 0.00235882 1.00628)
(-0.000547559 0.00234364 1.00641)
(-0.000363622 0.00232512 1.00644)
(-0.00241461 0.00231644 1.01117)
(-0.00244525 0.00229078 0.99792)
(0.00232538 0.000417301 0.99344)
(0.00233928 0.000417927 1.00629)
(0.000418933 0.000413695 1.00177)
(0.000584059 0.000406112 1.00175)
(0.000177096 0.000396098 1.00164)
(-0.000150974 0.000382541 1.00165)
(-0.000564058 0.000365889 1.00177)
(-0.00038139 0.000348648 1.00179)
(-0.00242223 0.000331382 1.00651)
(-0.00243912 0.000319397 0.993272)
(0.00232932 0.000592497 0.993419)
(0.00233867 0.000596895 1.00628)
(0.000412572 0.000592155 1.00175)
(0.000575398 0.000585649 1.00173)
(0.000165409 0.000576562 1.00162)
(-0.000165832 0.000564363 1.00162)
(-0.000580793 0.000549576 1.00174)
(-0.000398168 0.000534143 1.00175)
(-0.00243704 0.000519656 1.00646)
(-0.00244759 0.000512721 0.993199)
(0.00232992 0.000187976 0.993299)
(0.00233778 0.00019148 1.00617)
(0.000407934 0.000188031 1.00163)
(0.000568574 0.000183507 1.00161)
(0.00015589 0.000176895 1.00149)
(-0.000177903 0.000168111 1.00149)
(-0.000594258 0.000157804 1.0016)
(-0.000412015 0.000147324 1.00161)
(-0.00244374 0.000137472 1.0063)
(-0.00244694 0.000143738 0.993052)
(0.00233183 -0.000136695 0.993297)
(0.00233835 -0.000133014 1.00618)
(0.000404895 -0.000135077 1.00164)
(0.000564358 -0.000137287 1.00161)
(0.000150083 -0.000140698 1.00149)
(-0.000184903 -0.000144995 1.00149)
(-0.000601605 -0.000149482 1.0016)
(-0.000419303 -0.00015354 1.00159)
(-0.00244159 -0.000157213 1.00627)
(-0.00244114 -0.000139545 0.993056)
(0.00233487 -0.000543775 0.993411)
(0.00234028 -0.000541726 1.0063)
(0.000403637 -0.000542092 1.00176)
(0.000562946 -0.000541915 1.00174)
(0.000148176 -0.000542379 1.00161)
(-0.000186741 -0.000542823 1.00161)
(-0.000602878 -0.000542626 1.00171)
(-0.000420284 -0.00054196 1.00171)
(-0.00243201 -0.000541068 1.00637)
(-0.00243139 -0.000515355 0.993205)
(0.002334 -0.000376239 0.993428)
(0.00234164 -0.000372149 1.00633)
(0.000404701 -0.000372596 1.00178)
(0.000564048 -0.000371116 1.00175)
(0.00014916 -0.000370345 1.00163)
(-0.000185233 -0.000369171 1.00163)
(-0.000600844 -0.000367225 1.00174)
(-0.000418253 -0.000365075 1.00174)
(-0.00241779 -0.00036166 1.00638)
(-0.0024163 -0.000339941 0.993266)
(0.00234894 -0.00232274 0.997952)
(0.00235144 -0.00232526 1.01088)
(0.000404628 -0.00231454 1.0063)
(0.000565166 -0.00231085 1.00628)
(0.00015016 -0.00230437 1.00614)
(-0.000183843 -0.00229661 1.00613)
(-0.000598939 -0.00228757 1.00622)
(-0.000415132 -0.00227642 1.0062)
(-0.00241546 -0.00227586 1.01083)
(-0.00242019 -0.00224435 0.997718)
(0.00233314 -0.00232748 0.985089)
(0.00234897 -0.00234294 0.998004)
(0.000410566 -0.00232712 0.993463)
(0.00057157 -0.00232606 0.993448)
(0.000161403 -0.00231957 0.99334)
(-0.000169158 -0.00231243 0.993352)
(-0.000580547 -0.00230472 0.993482)
(-0.000400229 -0.00229272 0.993509)
(-0.00238736 -0.00229878 0.998127)
(-0.00238804 -0.00226535 0.98513)
(0.00255834 0.00264558 0.979365)
(0.00243491 0.00267333 0.996616)
(0.000383938 0.00265301 0.990899)
(0.000687145 0.00265601 0.990877)
(0.000168815 0.00264928 0.990738)
(-0.000125381 0.00264056 0.990774)
(-0.000648411 0.00262937 0.990988)
(-0.000300711 0.00260669 0.991079)
(-0.00253786 0.0026091 0.997208)
(-0.00272856 0.00255807 0.979317)
(0.00258718 0.00251796 0.996965)
(0.00244733 0.00253046 1.01429)
(0.00038245 0.00251408 1.00852)
(0.000686015 0.00250888 1.00851)
(0.000157735 0.00249563 1.00836)
(-0.00014548 0.00247628 1.00837)
(-0.000680721 0.00245029 1.00855)
(-0.000334612 0.00241525 1.00858)
(-0.00258801 0.00239379 1.01472)
(-0.00277715 0.00234271 0.996655)
(0.00256785 0.000399481 0.991073)
(0.00243241 0.000401504 1.00835)
(0.000376004 0.000396435 1.00261)
(0.000673491 0.000386152 1.00259)
(0.000140343 0.00037217 1.00243)
(-0.000168927 0.000351604 1.00244)
(-0.000708692 0.000324364 1.00261)
(-0.000367667 0.000294277 1.00264)
(-0.00260806 0.000261338 1.00875)
(-0.00277359 0.0002326 0.990695)
(0.00257448 0.000722108 0.991044)
(0.00243275 0.000730048 1.00834)
(0.000367737 0.000723938 1.00259)
(0.000662171 0.00071627 1.00256)
(0.000123701 0.000704547 1.0024)
(-0.000191891 0.00068721 1.0024)
(-0.000736705 0.000664396 1.00256)
(-0.000397859 0.000638344 1.00257)
(-0.00263781 0.000612789 1.00866)
(-0.00279083 0.000595638 0.990563)
(0.00257499 0.000195455 0.990882)
(0.00243202 0.000201586 1.00819)
(0.000362796 0.00019799 1.00243)
(0.000654234 0.000193713 1.0024)
(0.000111369 0.000186516 1.00224)
(-0.000208998 0.000175722 1.00223)
(-0.000757538 0.00016184 1.00238)
(-0.00042087 0.00014652 1.00237)
(-0.00264963 0.000131421 1.00843)
(-0.00279016 0.000141927 0.990353)
(0.00257824 -0.000109654 0.990878)
(0.00243418 -0.000103024 1.00821)
(0.000360495 -0.000104195 1.00244)
(0.000650817 -0.00010476 1.00241)
(0.000105796 -0.00010657 1.00224)
(-0.000216542 -0.000109403 1.00223)
(-0.000765964 -0.000112535 1.00237)
(-0.000429891 -0.000114871 1.00236)
(-0.00264272 -0.000117352 1.00839)
(-0.00277848 -8.33299e-05 0.990378)
(0.0025839 -0.000642139 0.991032)
(0.00243888 -0.000638669 1.00839)
(0.000360829 -0.000637089 1.0026)
(0.000651815 -0.000634252 1.00258)
(0.000106715 -0.00063159 1.00241)
(-0.000215027 -0.000628201 1.0024)
(-0.000763115 -0.000623355 1.00254)
(-0.000426363 -0.000616747 1.00253)
(-0.00262125 -0.000610995 1.00853)
(-0.00275926 -0.000561344 0.990622)
(0.00258247 -0.00033447 0.991052)
(0.00244172 -0.00032823 1.00842)
(0.000364717 -0.000327849 1.00263)
(0.000656288 -0.000323306 1.0026)
(0.00011187 -0.0003195 1.00244)
(-0.000208382 -0.00031439 1.00243)
(-0.000754626 -0.000307345 1.00258)
(-0.000418014 -0.000299633 1.00257)
(-0.00259138 -0.000289978 1.00854)
(-0.00273042 -0.000247538 0.990748)
(0.00260453 -0.00243253 0.996813)
(0.00245718 -0.00243515 1.01423)
(0.000365721 -0.0024183 1.0084)
(0.000660336 -0.00241176 1.00836)
(0.00011592 -0.0023996 1.00818)
(-0.000203341 -0.00238537 1.00815)
(-0.000748744 -0.00236924 1.00827)
(-0.000409544 -0.00234839 1.00823)
(-0.00258218 -0.00234434 1.01418)
(-0.00273167 -0.00228846 0.996395)
(0.00258307 -0.00258733 0.979467)
(0.00245497 -0.00260844 0.996867)
(0.000375161 -0.00258505 0.991095)
(0.000671144 -0.00258339 0.991081)
(0.000135403 -0.00257211 0.990944)
(-0.000178363 -0.00256012 0.99097)
(-0.00071687 -0.0025479 0.991157)
(-0.00038263 -0.00252731 0.991203)
(-0.00253378 -0.00253436 0.997132)
(-0.00268011 -0.00248041 0.979563)
(0.00273222 0.00285819 0.973612)
(0.00248037 0.00289337 0.99534)
(0.000359182 0.00286617 0.988413)
(0.000766601 0.00286989 0.988362)
(0.000133143 0.00285805 0.988206)
(-9.28091e-05 0.00284255 0.988261)
(-0.000725076 0.00282115 0.988537)
(-0.00023206 0.00277996 0.988714)
(-0.00261468 0.00276973 0.996344)
(-0.00297566 0.00267736 0.973595)
(0.00276917 0.00260667 0.995904)
(0.00249526 0.00262213 1.01775)
(0.000355916 0.00259998 1.01074)
(0.000762172 0.00259221 1.0107)
(0.000111452 0.00257076 1.01052)
(-0.000131717 0.0025384 1.01053)
(-0.000787382 0.00249191 1.01074)
(-0.000302861 0.00242625 1.01079)
(-0.0027187 0.00237413 1.01842)
(-0.00306275 0.00226408 0.995288)
(0.00274343 0.000399118 0.988703)
(0.00247526 0.000402633 1.01047)
(0.000347347 0.000396384 1.0035)
(0.000743506 0.000382152 1.00345)
(8.4416e-05 0.000361736 1.00327)
(-0.000170583 0.000329379 1.00328)
(-0.000837437 0.000282935 1.00348)
(-0.000365944 0.000226636 1.00353)
(-0.00277248 0.000162389 1.01112)
(-0.00307513 9.14373e-05 0.987977)
(0.00275306 0.000837806 0.988644)
(0.00247648 0.00084982 1.01044)
(0.000336368 0.000841835 1.00346)
(0.000727934 0.000832402 1.0034)
(5.93442e-05 0.000816166 1.00321)
(-0.000208115 0.000790053 1.0032)
(-0.000887634 0.000752127 1.00338)
(-0.000423855 0.000704895 1.00339)
(-0.00283596 0.000655407 1.01096)
(-0.00311235 0.00061237 0.987708)
(0.0027533 0.000188381 0.988455)
(0.00247581 0.000197677 1.01027)
(0.000330942 0.000194001 1.00328)
(0.000717988 0.000189969 1.00322)
(4.21562e-05 0.000181621 1.00302)
(-0.000234529 0.000167354 1.00301)
(-0.000922582 0.000146604 1.00316)
(-0.00046577 0.000121944 1.00315)
(-0.00286195 9.55269e-05 1.01066)
(-0.00311484 0.000110892 0.987432)
(0.00275829 -6.33925e-05 0.988448)
(0.00248007 -5.28273e-05 1.0103)
(0.000329722 -5.27162e-05 1.00329)
(0.000715682 -5.08608e-05 1.00323)
(3.68347e-05 -5.02349e-05 1.00303)
(-0.000243099 -5.07333e-05 1.00301)
(-0.000933148 -5.14266e-05 1.00316)
(-0.000477855 -5.03646e-05 1.00315)
(-0.00284608 -4.87164e-05 1.01061)
(-0.00309218 1.79584e-05 0.98751)
(0.00276748 -0.000722455 0.988624)
(0.00248861 -0.000716767 1.01051)
(0.000332371 -0.000712401 1.00349)
(0.000720358 -0.000705783 1.00343)
(4.22673e-05 -0.000698295 1.00323)
(-0.000235796 -0.000688757 1.00322)
(-0.000922406 -0.000675635 1.00338)
(-0.000464109 -0.000657794 1.00337)
(-0.00279757 -0.000639844 1.01078)
(-0.00305204 -0.000541196 0.987891)
(0.00276582 -0.000306696 0.988669)
(0.00249376 -0.000297598 1.01057)
(0.000340217 -0.00029602 1.00354)
(0.000729755 -0.000287199 1.00349)
(5.39565e-05 -0.000278836 1.0033)
(-0.000220445 -0.000267472 1.00328)
(-0.000902306 -0.000251962 1.00345)
(-0.000442565 -0.000234078 1.00346)
(-0.00273478 -0.000210953 1.01081)
(-0.00299593 -0.00012605 0.988158)
(0.00279549 -0.00249447 0.995684)
(0.00251529 -0.00249587 1.01767)
(0.000342717 -0.00247209 1.01057)
(0.000737986 -0.00246124 1.0105)
(6.26031e-05 -0.00244096 1.01028)
(-0.000209728 -0.00241745 1.01023)
(-0.000889757 -0.0023907 1.01036)
(-0.000423898 -0.00235521 1.01032)
(-0.00270727 -0.00234096 1.01764)
(-0.00298578 -0.00224676 0.995002)
(0.00276919 -0.00278401 0.973758)
(0.00251508 -0.00280993 0.995723)
(0.00035732 -0.00277812 0.988714)
(0.0007556 -0.00277501 0.988684)
(9.38506e-05 -0.00275699 0.988541)
(-0.00016993 -0.00273825 0.988589)
(-0.000838468 -0.00271917 0.988825)
(-0.000377944 -0.00268664 0.988922)
(-0.00262991 -0.00269104 0.996197)
(-0.00290999 -0.00261081 0.973959)
(0.00284535 0.00301625 0.967851)
(0.00247616 0.00305854 0.994046)
(0.000335216 0.00302399 0.98593)
(0.000827981 0.00302739 0.985834)
(9.44036e-05 0.00300775 0.985673)
(-2.96633e-05 0.00298047 0.985756)
(-0.000746296 0.00294095 0.986107)
(-9.71487e-05 0.00286562 0.986437)
(-0.00258492 0.0028234 0.9957)
(-0.00315037 0.00265347 0.968103)
(0.00289041 0.00265177 0.994893)
(0.00249295 0.00266985 1.02125)
(0.000328759 0.00264117 1.01301)
(0.000816847 0.00262886 1.01293)
(5.43056e-05 0.00259495 1.01273)
(-0.000100997 0.00254117 1.01273)
(-0.000863007 0.00245945 1.01295)
(-0.000241564 0.00233707 1.01304)
(-0.00279635 0.0022198 1.02226)
(-0.0033099 0.00198487 0.993839)
(0.00285802 0.000401994 0.986378)
(0.00246744 0.000407284 1.01263)
(0.000316946 0.000399254 1.00445)
(0.000789365 0.000379631 1.00436)
(1.26166e-05 0.000349733 1.00415)
(-0.00016541 0.00029888 1.00415)
(-0.000952304 0.000219948 1.00437)
(-0.000361305 0.000116117 1.00447)
(-0.00292735 -1.13212e-05 1.01365)
(-0.00336777 -0.000183074 0.985114)
(0.0028708 0.000937899 0.98627)
(0.00246933 0.000954626 1.01257)
(0.000302423 0.000944356 1.00437)
(0.000767716 0.000932631 1.00427)
(-2.54774e-05 0.000909971 1.00405)
(-0.000226994 0.000870161 1.00403)
(-0.00104151 0.000807476 1.0042)
(-0.000474349 0.000721468 1.00423)
(-0.00306722 0.000622395 1.01337)
(-0.0034516 0.000511861 0.984545)
(0.0028708 0.000173887 0.986066)
(0.00246889 0.000187147 1.01239)
(0.000296537 0.00018377 1.00418)
(0.000755144 0.00018045 1.00407)
(-4.97731e-05 0.000171092 1.00385)
(-0.000267835 0.000152168 1.00382)
(-0.00110103 0.000121575 1.00396)
(-0.000552633 8.12385e-05 1.00395)
(-0.00312892 3.46012e-05 1.01299)
(-0.00346835 5.69283e-05 0.984153)
(0.00287812 -3.06471e-06 0.986056)
(0.00247614 1.27749e-05 1.01243)
(0.00029727 1.49325e-05 1.0042)
(0.000755141 2.08315e-05 1.00409)
(-5.36339e-05 2.60247e-05 1.00387)
(-0.000276458 3.06684e-05 1.00384)
(-0.0011126 3.61768e-05 1.00398)
(-0.000566223 4.69967e-05 1.00396)
(-0.00308901 6.13368e-05 1.01291)
(-0.00342132 0.000204629 0.984348)
(0.00289186 -0.000781176 0.98624)
(0.0024899 -0.000772129 1.01267)
(0.00030367 -0.000763716 1.00442)
(0.000765991 -0.00075129 1.00432)
(-3.99628e-05 -0.000735751 1.0041)
(-0.000257761 -0.000715242 1.00408)
(-0.00108501 -0.000686786 1.00424)
(-0.000528466 -0.000645745 1.00425)
(-0.00297926 -0.000599922 1.01311)
(-0.00333152 -0.000395403 0.985005)
(0.00289064 -0.000278059 0.986324)
(0.00249871 -0.000264993 1.01278)
(0.000317197 -0.00026124 1.00452)
(0.000783044 -0.000246243 1.00442)
(-1.73411e-05 -0.00023065 1.00422)
(-0.000227321 -0.000208977 1.0042)
(-0.00104323 -0.000178986 1.00438)
(-0.00047883 -0.000140897 1.00442)
(-0.00285024 -9.29324e-05 1.01317)
(-0.00322309 7.57705e-05 0.985556)
(0.00292872 -0.00250899 0.994588)
(0.0025274 -0.00250811 1.02117)
(0.00032229 -0.00247645 1.0128)
(0.000797353 -0.00245919 1.01268)
(-1.73555e-06 -0.00242765 1.01243)
(-0.000207293 -0.0023906 1.01236)
(-0.00101817 -0.00234792 1.01248)
(-0.000442948 -0.00229004 1.01244)
(-0.00278831 -0.00226358 1.02113)
(-0.0031901 -0.00210205 0.993574)
(0.0028979 -0.00292347 0.968044)
(0.00253014 -0.00295385 0.994596)
(0.000343724 -0.00291298 0.986366)
(0.000824835 -0.00290713 0.986308)
(4.62011e-05 -0.00288013 0.98618)
(-0.000146526 -0.00285178 0.986263)
(-0.000940024 -0.00282277 0.986552)
(-0.000374466 -0.00277418 0.986728)
(-0.00266881 -0.00277686 0.995345)
(-0.00307741 -0.00265515 0.968459)
(0.00290896 0.00313247 0.962071)
(0.00243394 0.00318114 0.992689)
(0.000307888 0.00313897 0.983435)
(0.000869741 0.00314072 0.983287)
(5.61193e-05 0.00311023 0.983133)
(6.89776e-05 0.0030651 0.983255)
(-0.000684953 0.00299426 0.983706)
(0.000174567 0.00286243 0.984283)
(-0.00233904 0.00275038 0.995334)
(-0.00318489 0.00241696 0.963204)
(0.00296185 0.00266851 0.993895)
(0.00245176 0.00268856 1.02474)
(0.000296597 0.00265289 1.01531)
(0.000847775 0.00263403 1.01518)
(-1.18498e-05 0.00258295 1.01495)
(-5.50081e-05 0.00249732 1.01493)
(-0.000892966 0.00235741 1.01514)
(-0.000106004 0.00213694 1.01528)
(-0.00277704 0.00187923 1.02621)
(-0.00349005 0.00135483 0.99237)
(0.00292283 0.00040891 0.984088)
(0.0024206 0.000416383 1.01478)
(0.000280697 0.000406354 1.00545)
(0.000808964 0.000380431 1.00529)
(-7.42465e-05 0.000337867 1.00507)
(-0.000159182 0.000259924 1.00506)
(-0.00105036 0.000128649 1.00528)
(-0.00033915 -6.4633e-05 1.00545)
(-0.00310199 -0.000334311 1.01641)
(-0.00366791 -0.000764757 0.982165)
(0.00293887 0.00102575 0.983923)
(0.00242325 0.00104807 1.01468)
(0.000262396 0.00103579 1.00531)
(0.000779644 0.00102202 1.00516)
(-0.00013089 0.000991324 1.00492)
(-0.000258627 0.000932211 1.00488)
(-0.00121051 0.000829103 1.00504)
(-0.000570219 0.000669891 1.00508)
(-0.003435 0.000455621 1.01598)
(-0.0038762 0.00017216 0.980959)
(0.00293899 0.000157847 0.983713)
(0.00242385 0.000176336 1.01451)
(0.000256886 0.000174463 1.00513)
(0.000764663 0.000173468 1.00497)
(-0.000164022 0.000164505 1.00472)
(-0.000321443 0.000141062 1.00467)
(-0.00131277 9.6288e-05 1.00478)
(-0.000722686 2.97394e-05 1.00475)
(-0.00358403 -5.5509e-05 1.01547)
(-0.00394007 -1.87198e-05 0.980239)
(0.00294948 6.80171e-05 0.983697)
(0.00243566 9.09618e-05 1.01456)
(0.000261543 9.67767e-05 1.00515)
(0.00076974 0.00010977 1.005)
(-0.000163156 0.000123749 1.00476)
(-0.000326758 0.000139228 1.00471)
(-0.00132213 0.000158768 1.00483)
(-0.000730519 0.00019237 1.00479)
(-0.00347805 0.000249542 1.01534)
(-0.00383037 0.000571304 0.980713)
(0.00296898 -0.000819768 0.983878)
(0.00245667 -0.000805556 1.01483)
(0.000274306 -0.000791061 1.00539)
(0.000791192 -0.000769414 1.00524)
(-0.000134607 -0.000740414 1.00502)
(-0.000286418 -0.000700908 1.00499)
(-0.0012602 -0.000644219 1.00514)
(-0.000635404 -0.000556929 1.00517)
(-0.00321414 -0.000441737 1.01554)
(-0.00362884 -1.38071e-05 0.9819)
(0.00296938 -0.000246928 0.984006)
(0.00247131 -0.000228933 1.015)
(0.000296224 -0.000221571 1.00555)
(0.000820282 -0.000197649 1.0054)
(-9.41521e-05 -0.00017066 1.0052)
(-0.000230097 -0.000132436 1.00519)
(-0.00117836 -7.78697e-05 1.00538)
(-0.00052895 -4.68799e-06 1.00546)
(-0.00294706 9.15473e-05 1.01562)
(-0.00341099 0.00041898 0.98297)
(0.00301595 -0.00249026 0.993485)
(0.00250759 -0.00248512 1.02466)
(0.000305298 -0.00244419 1.01505)
(0.000843183 -0.00241766 1.01488)
(-6.81136e-05 -0.00237094 1.01459)
(-0.000195244 -0.00231523 1.01451)
(-0.00113441 -0.00224995 1.01461)
(-0.000467897 -0.00216526 1.01457)
(-0.00282182 -0.00211739 1.02458)
(-0.00332224 -0.00187472 0.992135)
(0.00298248 -0.00301911 0.962314)
(0.0025163 -0.00305208 0.993447)
(0.000336289 -0.00300115 0.984038)
(0.000884577 -0.00299073 0.983954)
(2.12919e-06 -0.00295218 0.983865)
(-0.000106949 -0.00291122 0.984003)
(-0.00102449 -0.00286897 0.984361)
(-0.000371918 -0.0028029 0.984644)
(-0.00266421 -0.00279974 0.99452)
(-0.00317611 -0.00264515 0.963072)
(0.00293492 0.00321916 0.956297)
(0.00236836 0.00327375 0.991261)
(0.000279903 0.0032241 0.980928)
(0.000894206 0.00322272 0.980721)
(2.12096e-05 0.00317796 0.98058)
(0.000204365 0.00310703 0.980746)
(-0.000507771 0.00298876 0.981323)
(0.000705543 0.0027647 0.982237)
(-0.00162417 0.00253461 0.995174)
(-0.00294906 0.00190565 0.959563)
(0.00299569 0.00267285 0.992911)
(0.00238678 0.00269464 1.02817)
(0.000262121 0.00265199 1.01761)
(0.000856628 0.00262452 1.01741)
(-8.66446e-05 0.00255106 1.01714)
(2.30456e-06 0.00242064 1.01708)
(-0.000861054 0.00219419 1.01725)
(0.000197633 0.00181003 1.01741)
(-0.00245801 0.00130778 1.03005)
(-0.00352306 0.000149055 0.990972)
(0.00295039 0.000424566 0.981842)
(0.00235031 0.000434697 1.0169)
(0.00024143 0.00042271 1.00646)
(0.000803853 0.000389733 1.00625)
(-0.000176634 0.000331246 1.00601)
(-0.000159145 0.000216267 1.00598)
(-0.00112905 6.11466e-06 1.00619)
(-0.000242577 -0.000343871 1.00643)
(-0.00321233 -0.0008964 1.01931)
(-0.00403923 -0.00202708 0.978849)
(0.00296978 0.00110632 0.981614)
(0.00235393 0.00113517 1.01676)
(0.000219364 0.00112157 1.00628)
(0.000765416 0.00110644 1.00607)
(-0.00025791 0.00106695 1.00581)
(-0.000314996 0.000982558 1.00575)
(-0.00141021 0.00081892 1.00587)
(-0.000716072 0.000526877 1.00592)
(-0.00404023 5.11559e-05 1.01872)
(-0.00462242 -0.00079617 0.975935)
(0.00297061 0.000144768 0.981404)
(0.00235681 0.000169971 1.0166)
(0.000215629 0.000171374 1.0061)
(0.000749363 0.000175319 1.00589)
(-0.000300578 0.000170241 1.00563)
(-0.000407472 0.000144901 1.00555)
(-0.00158508 8.40122e-05 1.00562)
(-0.00103172 -2.67402e-05 1.00554)
(-0.00449665 -0.000216303 1.01804)
(-0.00486856 -0.000239685 0.974594)
(0.00298527 0.000146404 0.981379)
(0.00237521 0.000178515 1.01667)
(0.000227131 0.000190232 1.00614)
(0.000764284 0.000214731 1.00593)