/*--------------------------------*- C++ -*----------------------------------*\
  =========                 |
  \\      /  F ield         | OpenFOAM: The Open Source CFD Toolbox
   \\    /   O peration     | Website:  https://openfoam.org
    \\  /    A nd           | Version:  6
     \\/     M anipulation  |
\*---------------------------------------------------------------------------*/
FoamFile
{
    version     2.0;
    format      ascii;
    class       volScalarField;
    location    "1900";
    object      p;
}
// * * * * * * * * * * * * * * * * * * * * * * * * * * * * * * * * * * * * * //

dimensions      [0 2 -2 0 0 0 0];

internalField   nonuniform List<scalar> 
7000
(
0.0379885
0.0357238
0.0351782
0.0349157
0.0347619
0.03473
0.0348227
0.0350322
0.0355346
0.0377466
0.0357497
0.0334854
0.032943
0.0326835
0.0325335
0.0325061
0.0326035
0.0328174
0.0333222
0.0355403
0.0352276
0.0329662
0.0324252
0.0321679
0.0320209
0.0319968
0.0320979
0.032315
0.0328229
0.0350436
0.0349979
0.0327389
0.0321999
0.0319456
0.0318023
0.0317826
0.0318883
0.0321096
0.0326209
0.0348464
0.0348856
0.0326292
0.0320924
0.0318414
0.0317024
0.0316878
0.0317986
0.0320247
0.03254
0.0347712
0.0349003
0.0326465
0.0321119
0.0318643
0.0317296
0.03172
0.0318361
0.032067
0.0325863
0.0348231
0.0350403
0.032789
0.0322565
0.0320118
0.0318811
0.031876
0.031997
0.0322323
0.0327551
0.034997
0.0352925
0.0330429
0.032512
0.0322697
0.0321421
0.0321407
0.0322655
0.0325043
0.0330301
0.0352764
0.0358295
0.0335801
0.0330505
0.0328098
0.0326844
0.0326856
0.0328131
0.0330545
0.0335822
0.035833
0.0380847
0.0358383
0.0353089
0.0350701
0.0349475
0.034952
0.0350829
0.0353277
0.0358596
0.0381127
0.0350225
0.0335894
0.0335858
0.0333249
0.0331674
0.0331335
0.0332258
0.0334289
0.0333828
0.0347738
0.0336121
0.0321806
0.0321821
0.0319237
0.0317701
0.031741
0.0318388
0.0320474
0.0320022
0.0333994
0.0336323
0.0322058
0.0322077
0.0319517
0.0318011
0.0317756
0.0318774
0.0320898
0.0320485
0.0334469
0.033406
0.0319813
0.0319853
0.0317328
0.0315865
0.031566
0.0316732
0.0318907
0.0318534
0.0332581
0.0332917
0.0318697
0.0318759
0.0316271
0.0314856
0.0314707
0.0315839
0.0318072
0.0317742
0.0331854
0.0333067
0.0318876
0.031896
0.0316508
0.0315141
0.0315048
0.0316241
0.031853
0.0318241
0.0332417
0.0334498
0.0320334
0.0320438
0.0318021
0.0316697
0.0316655
0.0317903
0.0320244
0.0319992
0.0334226
0.0336999
0.0322862
0.0322983
0.032059
0.0319302
0.0319302
0.0320595
0.0322981
0.0322758
0.0337036
0.0336917
0.0322761
0.03229
0.0320524
0.0319258
0.0319283
0.0320603
0.0323014
0.03228
0.0337146
0.0351228
0.0337098
0.033722
0.0334874
0.0333642
0.0333706
0.0335065
0.033751
0.033736
0.035175
0.0325319
0.0316921
0.0320108
0.0317627
0.0316567
0.0316169
0.0316464
0.0318264
0.0314469
0.0322372
0.0317154
0.0308816
0.0312079
0.0309621
0.0308615
0.030828
0.0308644
0.0310536
0.0306746
0.0314706
0.0320589
0.0312323
0.0315582
0.0313154
0.0312182
0.0311892
0.0312307
0.0314248
0.0310519
0.031849
0.0318483
0.0310232
0.0313517
0.0311133
0.0310215
0.0309989
0.0310477
0.0312489
0.0308814
0.0316888
0.0317899
0.0309684
0.0312993
0.0310654
0.0309795
0.030964
0.0310208
0.0312301
0.0308686
0.031685
0.0318055
0.0309875
0.0313208
0.0310915
0.0310114
0.0310031
0.0310677
0.0312849
0.0309287
0.0317544
0.031894
0.031079
0.0314146
0.0311895
0.0311149
0.031113
0.0311848
0.0314091
0.0310575
0.0318921
0.032131
0.0313203
0.0316575
0.0314356
0.0313656
0.0313691
0.0314469
0.0316773
0.0313299
0.0321702
0.0317978
0.0309831
0.0313231
0.0311028
0.0310353
0.0310418
0.0311228
0.0313569
0.0310093
0.0318595
0.0326394
0.0318245
0.0321608
0.0319453
0.0318818
0.0318933
0.0319799
0.0322177
0.0318792
0.0327405
0.0312246
0.0306096
0.0309462
0.0306784
0.0306324
0.0305806
0.0305253
0.0307029
0.0302827
0.0308252
0.0306342
0.0300289
0.0303743
0.0301091
0.030071
0.0300281
0.0299825
0.0301746
0.0297583
0.0303106
0.0309981
0.0304012
0.0307455
0.0304846
0.0304511
0.0304143
0.0303763
0.030576
0.0301697
0.0307272
0.0307733
0.0301777
0.0305256
0.0302703
0.030244
0.0302163
0.030189
0.0304001
0.0300021
0.0305765
0.0307836
0.0301931
0.030544
0.0302945
0.0302759
0.030258
0.0302423
0.0304656
0.0300768
0.0306651
0.0307999
0.0302137
0.0305675
0.030324
0.0303132
0.030305
0.0303005
0.0305356
0.0301549
0.0307577
0.0308207
0.0302376
0.0305943
0.0303562
0.0303526
0.0303532
0.0303586
0.0306041
0.0302302
0.0308472
0.0310752
0.0304981
0.0308564
0.0306227
0.0306253
0.0306334
0.0306471
0.0309014
0.0305339
0.0311596
0.0307204
0.0301388
0.030501
0.0302689
0.0302747
0.0302866
0.0303046
0.0305643
0.0301963
0.0308355
0.0313397
0.0307557
0.0311138
0.0308886
0.0308989
0.0309176
0.0309439
0.0312085
0.0308523
0.0315084
0.0303095
0.0297984
0.0300741
0.0297811
0.0297671
0.0296957
0.0295681
0.0297316
0.0293317
0.0297261
0.0298241
0.0293257
0.0296108
0.0293213
0.0293186
0.0292601
0.0291469
0.0293335
0.0289457
0.0293605
0.0301314
0.0296416
0.0299253
0.0296416
0.0296451
0.0295956
0.0294944
0.0296935
0.0293225
0.0297514
0.0298892
0.0294009
0.0296895
0.029413
0.0294263
0.0293898
0.0293047
0.0295224
0.0291659
0.0296225
0.0299444
0.0294631
0.0297551
0.0294863
0.02951
0.0294874
0.0294194
0.0296564
0.0293155
0.0297946
0.0299613
0.0294853
0.0297811
0.0295201
0.0295543
0.0295455
0.0294939
0.0297493
0.0294215
0.029924
0.0299377
0.0294649
0.0297644
0.0295105
0.0295543
0.0295578
0.0295206
0.029792
0.029474
0.0300006
0.0302124
0.0297476
0.0300488
0.0298012
0.0298532
0.0298672
0.0298421
0.0301265
0.0298184
0.03036
0.0299132
0.0294443
0.0297507
0.0295048
0.0295613
0.0295805
0.0295612
0.0298538
0.0295453
0.030103
0.0304306
0.0299582
0.0302612
0.0300245
0.0300864
0.0301147
0.0301075
0.0304071
0.0301109
0.0306937
0.0293103
0.028903
0.0291455
0.0288483
0.0288427
0.0287435
0.0285471
0.0286519
0.0282181
0.0284189
0.0289292
0.0285382
0.0287906
0.0284985
0.0285083
0.0284276
0.0282541
0.0283951
0.027989
0.0282355
0.0292079
0.0288258
0.0290768
0.0287924
0.0288105
0.0287429
0.0285881
0.0287509
0.0283723
0.0286515
0.0289709
0.0285909
0.0288481
0.0285728
0.0286043
0.0285553
0.0284248
0.0286181
0.0282648
0.0285914
0.0290514
0.0286802
0.0289414
0.0286763
0.0287218
0.0286925
0.0285876
0.0288119
0.0284846
0.0288506
0.0290687
0.028704
0.0289701
0.0287151
0.0287747
0.028765
0.0286847
0.0289377
0.0286317
0.0290374
0.0290192
0.0286581
0.028929
0.0286832
0.0287556
0.0287632
0.0287041
0.0289814
0.0286919
0.0291367
0.029291
0.0289397
0.0292127
0.0289752
0.0290587
0.0290809
0.0290394
0.0293363
0.029062
0.0295336
0.0290185
0.0286638
0.0289428
0.0287075
0.0287969
0.0288262
0.0287927
0.0291012
0.0288275
0.0293225
0.0294338
0.0290743
0.0293508
0.0291269
0.0292233
0.0292648
0.0292478
0.0295667
0.0293081
0.0298347
0.0282512
0.0279409
0.0281633
0.0278754
0.0278652
0.0277291
0.0274551
0.0274524
0.0269212
0.026853
0.0279656
0.0276754
0.0279079
0.0276274
0.0276371
0.0275274
0.0272887
0.0273441
0.0268706
0.0268975
0.0282285
0.0279472
0.0281787
0.0279079
0.0279287
0.0278376
0.0276274
0.0277192
0.027294
0.0273905
0.0280103
0.0277321
0.0279711
0.0277117
0.02775
0.0276848
0.0275108
0.0276521
0.0272746
0.027457
0.0281054
0.0278377
0.0280816
0.0278349
0.0278916
0.0278538
0.0277176
0.0279083
0.0275775
0.0278299
0.0281224
0.0278626
0.0281123
0.0278786
0.0279539
0.0279431
0.0278431
0.0280798
0.0277848
0.0281045
0.0280559
0.0278004
0.0280561
0.0278339
0.027926
0.0279391
0.0278701
0.0281459
0.0278764
0.028265
0.0283098
0.0280654
0.0283238
0.0281126
0.0282192
0.0282526
0.0282093
0.0285155
0.0282692
0.0287082
0.0280505
0.0278035
0.0280685
0.0278601
0.0279744
0.0280174
0.0279853
0.0283087
0.0280662
0.0285345
0.0283711
0.0281183
0.028382
0.0281872
0.0283109
0.0283698
0.0283593
0.0286977
0.0284683
0.0289747
0.0272393
0.0270021
0.0271968
0.0269207
0.0268975
0.0267184
0.0263529
0.0261902
0.0254821
0.0249934
0.0270209
0.0268067
0.0270115
0.026745
0.0267465
0.0266029
0.0262903
0.0262197
0.0256237
0.0253352
0.0272577
0.027052
0.0272562
0.0270012
0.0270167
0.0268984
0.026627
0.0266182
0.0261097
0.0259798
0.0270574
0.026856
0.0270687
0.0268272
0.0268647
0.0267809
0.0265617
0.0266337
0.0262177
0.0262536
0.027158
0.0269682
0.0271862
0.0269602
0.0270208
0.0269732
0.0268083
0.02696
0.0266243
0.0267917
0.0271735
0.0269929
0.0272176
0.0270073
0.0270914
0.0270799
0.026967
0.0271906
0.0269169
0.0272001
0.0270967
0.0269211
0.0271529
0.0269566
0.0270618
0.0270824
0.0270142
0.0272973
0.0270713
0.0274616
0.0273316
0.0271684
0.0274033
0.0272209
0.0273445
0.0273922
0.0273606
0.0276897
0.0275021
0.0279784
0.0270938
0.0269292
0.0271711
0.026992
0.027125
0.0271852
0.0271689
0.0275233
0.0273405
0.0278726
0.0273464
0.0271749
0.0274169
0.0272532
0.027398
0.0274782
0.0274883
0.0278614
0.0276907
0.0282406
0.026286
0.0261043
0.0262685
0.0260075
0.0259699
0.0257489
0.0252837
0.0249001
0.0238433
0.0226604
0.0261102
0.0259532
0.0261264
0.0258765
0.0258671
0.025691
0.0252994
0.0250516
0.0241967
0.0233969
0.0263128
0.0261631
0.0263357
0.0260984
0.0261054
0.0259611
0.0256256
0.0254736
0.0247942
0.0243398
0.0261264
0.0259815
0.026163
0.0259407
0.0259735
0.0258722
0.0256071
0.0255814
0.0250902
0.0249781
0.0262233
0.0260906
0.0262773
0.0260725
0.0261319
0.0260756
0.0258831
0.0259795
0.0256423
0.0257716
0.0262355
0.0261127
0.0263065
0.0261195
0.0262067
0.0261953
0.0260725
0.0262817
0.0260584
0.0263689
0.0261534
0.0260363
0.0262377
0.0260667
0.026179
0.0262081
0.0261461
0.0264517
0.0263006
0.0267765
0.02637
0.0262661
0.026471
0.0263165
0.0264511
0.0265151
0.0265036
0.0268801
0.0267836
0.0274131
0.0261602
0.0260557
0.0262673
0.0261165
0.0262621
0.0263419
0.0263514
0.026762
0.0266869
0.0274038
0.0263654
0.0262543
0.0264678
0.0263342
0.0264942
0.0265972
0.0266364
0.0270696
0.0269889
0.0276577
0.0253598
0.0252293
0.0253732
0.0251408
0.0251023
0.02486
0.0243115
0.0236829
0.0221146
0.0195182
0.0252116
0.0251063
0.0252565
0.0250349
0.0250246
0.024832
0.0243734
0.0239168
0.0226552
0.0207718
0.02538
0.0252799
0.0254289
0.0252192
0.0252253
0.0250678
0.0246756
0.0243502
0.0234146
0.0224548
0.0252054
0.0251099
0.0252669
0.0250717
0.0251044
0.0249949
0.0246874
0.0245416
0.0239667
0.0237474
0.0252919
0.0252076
0.0253686
0.0251909
0.0252511
0.0251916
0.0249714
0.0250009
0.0247017
0.0248791
0.0252984
0.0252239
0.0253911
0.0252319
0.0253215
0.0253128
0.0251785
0.0253696
0.0252646
0.0257281
0.025213
0.0251441
0.0253185
0.025176
0.025293
0.0253314
0.025275
0.0255986
0.025608
0.0262566
0.0254096
0.0253541
0.025532
0.0254077
0.0255497
0.0256304
0.0256397
0.0260619
0.0261538
0.0270422
0.0252243
0.0251693
0.0253531
0.0252323
0.0253858
0.025485
0.025521
0.0259963
0.0261305
0.0272483
0.0253942
0.0253317
0.0255181
0.0254151
0.0255843
0.0257081
0.0257732
0.026266
0.026377
0.0271844
0.0244444
0.0243697
0.0245101
0.0243281
0.0243184
0.024102
0.02354
0.0227428
0.0208284
0.0160764
0.0243143
0.024263
0.024405
0.0242295
0.0242407
0.0240676
0.0235944
0.0229696
0.0212785
0.017444
0.0244511
0.0244017
0.0245405
0.0243736
0.0243967
0.024255
0.0238508
0.0233733
0.0220634
0.0200121
0.0242864
0.0242398
0.0243836
0.0242276
0.0242728
0.0241764
0.0238592
0.023581
0.022758
0.0220496
0.0243572
0.0243192
0.0244641
0.024322
0.0243901
0.0243407
0.0241085
0.0240261
0.0236212
0.0235574
0.0243551
0.0243252
0.0244738
0.0243479
0.0244422
0.0244414
0.024295
0.0244073
0.024319
0.0248328
0.0242656
0.0242403
0.0243941
0.0242835
0.0244035
0.0244495
0.0243853
0.0246663
0.0247254
0.0256641
0.0244387
0.0244261
0.0245822
0.0244901
0.0246355
0.0247272
0.0247406
0.0251527
0.0252957
0.0267035
0.0242727
0.0242601
0.0244206
0.0243308
0.0244868
0.0245984
0.0246482
0.025133
0.0253449
0.027129
0.0244106
0.0243908
0.0245545
0.0244821
0.0246534
0.0247891
0.0248615
0.0253461
0.0255424
0.0267381
0.0235353
0.0235245
0.0236814
0.0235816
0.0236548
0.0235601
0.0231733
0.0225553
0.0211376
0.0173257
0.0234147
0.0234234
0.0235745
0.0234711
0.0235467
0.0234657
0.0231182
0.0225761
0.0209825
0.0169593
0.0235215
0.0235273
0.0236715
0.0235692
0.0236438
0.0235736
0.0232543
0.0227502
0.0210935
0.0174937
0.0233634
0.0233684
0.0235122
0.0234123
0.0234944
0.0234477
0.0231721
0.0227545
0.0213032
0.0183766
0.0234146
0.0234233
0.0235628
0.0234687
0.0235601
0.0235411
0.0233149
0.0230325
0.022003
0.0200116
0.0234011
0.0234144
0.0235531
0.0234687
0.0235759
0.0235905
0.0234272
0.0233511
0.0227685
0.021943
0.0233061
0.0233214
0.0234615
0.0233877
0.0235136
0.0235647
0.0234726
0.0236034
0.0232323
0.0232367
0.0234547
0.0234807
0.023621
0.0235637
0.0237118
0.0238054
0.0237947
0.0241011
0.0237946
0.0244823
0.0233029
0.0233289
0.0234711
0.023414
0.0235694
0.0236817
0.0237123
0.0241128
0.0238414
0.0247675
0.0234144
0.0234312
0.0235757
0.0235335
0.0237009
0.023833
0.0238793
0.0242539
0.0241037
0.0249417
0.0226306
0.0226941
0.0228891
0.0229085
0.0231341
0.0232811
0.0232836
0.0232048
0.0225437
0.0192871
0.0225128
0.0225891
0.0227679
0.022767
0.022963
0.0230684
0.0230146
0.022884
0.0219241
0.0181732
0.0225905
0.0226577
0.0228238
0.022812
0.022984
0.0230582
0.022956
0.0227216
0.0214569
0.0177883
0.0224355
0.022496
0.0226536
0.0226297
0.0227819
0.0228333
0.0226924
0.0223591
0.0209164
0.0174783
0.0224639
0.0225211
0.0226664
0.0226347
0.0227718
0.0228125
0.0226534
0.0223086
0.0210036
0.0182363
0.0224368
0.0224931
0.0226306
0.0225975
0.0227319
0.0227792
0.0226295
0.0224346
0.0214889
0.0197688
0.0223347
0.0223887
0.0225221
0.0224909
0.0226315
0.0226964
0.0225759
0.0225877
0.0217926
0.020675
0.0224571
0.022519
0.022649
0.0226299
0.0227859
0.0228831
0.0228257
0.0230479
0.0223194
0.0219867
0.0223171
0.0223767
0.0225053
0.0224827
0.0226406
0.0227499
0.0227303
0.0230613
0.0223971
0.0223321
0.0224022
0.0224518
0.0225813
0.0225699
0.0227341
0.022855
0.0228522
0.023138
0.0226098
0.022694
0.0217097
0.0218545
0.0221046
0.0222741
0.0227174
0.0232224
0.0238089
0.0246433
0.0255558
0.0242973
0.0215898
0.0217392
0.0219605
0.0220886
0.0224627
0.0228622
0.023295
0.0239919
0.0247393
0.0236829
0.0216407
0.0217738
0.0219756
0.0220782
0.0223997
0.0227163
0.0230238
0.0234879
0.023718
0.0225105
0.0214865
0.0216054
0.0217887
0.0218604
0.0221254
0.0223531
0.0225162
0.0226655
0.0221523
0.0202061
0.0214911
0.0215982
0.0217599
0.0218063
0.0220231
0.0221845
0.0222273
0.0221468
0.0212098
0.0190181
0.0214498
0.021549
0.0216946
0.0217249
0.0219139
0.0220451
0.0220101
0.0219369
0.0210901
0.0194883
0.02134
0.0214316
0.0215662
0.0215873
0.0217651
0.0218905
0.0218168
0.0218921
0.0211713
0.0199677
0.021438
0.0215332
0.0216604
0.021687
0.0218707
0.0220151
0.0219722
0.0222734
0.0217022
0.0215426
0.021307
0.0213987
0.021521
0.0215401
0.0217185
0.0218637
0.0218449
0.022248
0.021723
0.0216205
0.0213708
0.0214489
0.0215694
0.0215944
0.0217705
0.0219123
0.0218971
0.0222141
0.0216841
0.0212574
0.020756
0.0209847
0.0213
0.021638
0.0223426
0.0232976
0.0246285
0.0267171
0.0300477
0.033635
0.0206328
0.0208569
0.0211308
0.0214058
0.0220011
0.0227878
0.0238859
0.0257438
0.0290728
0.0337309
0.0206606
0.0208614
0.0211088
0.021343
0.0218562
0.022501
0.023376
0.0248295
0.0270876
0.0301946
0.0205066
0.0206848
0.0209028
0.0210851
0.0214995
0.0219706
0.0225525
0.0234231
0.0241109
0.0238502
0.0204889
0.0206459
0.0208325
0.0209698
0.021298
0.0216358
0.0219737
0.0223879
0.0221304
0.0206279
0.0204342
0.0205759
0.0207379
0.0208429
0.0211142
0.0213847
0.021562
0.0218252
0.0214523
0.0203679
0.0203174
0.0204453
0.0205896
0.0206732
0.0209138
0.0211609
0.0212466
0.0215784
0.0213608
0.0212258
0.0203914
0.0205184
0.020651
0.020733
0.0209689
0.021226
0.0213162
0.0218668
0.0218975
0.0235952
0.0202687
0.0203891
0.0205129
0.0205825
0.0208055
0.0210501
0.0211394
0.0217631
0.0217714
0.0229725
0.0203095
0.020414
0.0205327
0.0206019
0.0208122
0.0210294
0.0210903
0.0215514
0.0212821
0.0206034
0.0197345
0.0200356
0.0204056
0.0208939
0.0218371
0.0232288
0.0252922
0.0285841
0.0343484
0.0438854
0.0196091
0.0198977
0.0202165
0.0206246
0.0214273
0.0226007
0.0243783
0.0273934
0.0333165
0.0453023
0.0196194
0.0198792
0.0201669
0.0205222
0.02122
0.0221936
0.0236353
0.0260386
0.0301488
0.0381897
0.0194677
0.0196974
0.0199463
0.0202309
0.0207916
0.0215073
0.0224908
0.0240428
0.0257884
0.0270364
0.019432
0.0196322
0.019842
0.020065
0.0205061
0.0210293
0.0216634
0.0225891
0.0230211
0.0219862
0.0193677
0.0195457
0.0197243
0.0199017
0.0202597
0.0206874
0.0211082
0.0217498
0.0218519
0.0212223
0.0192467
0.0194052
0.0195609
0.0197069
0.0200161
0.02041
0.0207094
0.021331
0.0214965
0.0227545
0.0193012
0.0194543
0.019595
0.0197334
0.0200291
0.0204289
0.0207188
0.0215419
0.0219554
0.0260545
0.0191868
0.0193321
0.0194614
0.0195842
0.0198619
0.0202396
0.0205091
0.0213913
0.0218306
0.0249277
0.0192103
0.019335
0.019456
0.0195721
0.0198278
0.0201562
0.0203606
0.0210233
0.0212217
0.0209759
0.0186262
0.0189757
0.0193728
0.0199624
0.0210577
0.0227519
0.0253402
0.0293831
0.0368034
0.0517244
0.0185032
0.0188355
0.0191775
0.019679
0.020622
0.0220762
0.0243718
0.0281648
0.036036
0.0547852
0.0185031
0.0188039
0.0191142
0.0195573
0.0203854
0.0216008
0.0234479
0.0264503
0.0317164
0.0428936
0.018358
0.0186235
0.0188895
0.0192493
0.0199164
0.0208176
0.022076
0.0240904
0.0266193
0.0285672
0.0183111
0.0185415
0.0187644
0.0190527
0.0195799
0.0202539
0.021109
0.022461
0.0235876
0.02287
0.0182431
0.0184459
0.0186341
0.0188685
0.0192924
0.0198487
0.0204688
0.0214475
0.021944
0.0214044
0.0181225
0.0183012
0.0184631
0.0186589
0.0190166
0.0195242
0.0200039
0.0208692
0.0209913
0.0226113
0.0181611
0.0183306
0.0184755
0.0186588
0.0189942
0.019503
0.0199666
0.0210151
0.0212429
0.0266944
0.018057
0.0182164
0.0183482
0.0185135
0.0188286
0.0193151
0.0197564
0.0208867
0.0215057
0.0264665
0.0180625
0.018198
0.0183195
0.0184728
0.0187617
0.0191909
0.0195633
0.0204985
0.0213466
0.0227254
0.0174027
0.0177605
0.0181351
0.0187332
0.0198096
0.0215117
0.0241648
0.0280289
0.0356002
0.0548141
0.0172886
0.0176296
0.0179528
0.0184694
0.0194108
0.0209013
0.0233213
0.0270747
0.035508
0.0583058
0.0172864
0.0175976
0.0178945
0.0183582
0.0191994
0.0204629
0.0223918
0.0253584
0.030728
0.0427925
0.0171539
0.0174289
0.0176831
0.018064
0.0187506
0.0197118
0.021051
0.0232109
0.026491
0.029666
0.0171048
0.017343
0.0175568
0.0178686
0.0184207
0.0191681
0.0201418
0.0218286
0.0240978
0.0250664
0.0170405
0.0172487
0.0174285
0.0176859
0.0181272
0.0187456
0.0194838
0.0207963
0.022033
0.0221639
0.0169264
0.0171074
0.0172603
0.0174753
0.0178351
0.01838
0.0189385
0.0200213
0.0200324
0.0205346
0.016956
0.0171245
0.01726
0.0174591
0.0177876
0.0183239
0.0188493
0.0200425
0.019711
0.0241945
0.0168647
0.0170233
0.0171466
0.017328
0.017638
0.0181618
0.0186923
0.0199997
0.0206162
0.0270592
0.0168594
0.0169896
0.0171022
0.0172698
0.0175573
0.0180399
0.0185522
0.0197322
0.0213461
0.0257038
0.0160604
0.0163773
0.0166711
0.0171671
0.0180203
0.0193619
0.0215176
0.024031
0.0293568
0.0515975
0.0159633
0.0162702
0.016525
0.0169625
0.0177308
0.0189469
0.021013
0.0236382
0.0300941
0.0534391
0.0159676
0.0162516
0.0164924
0.016896
0.0176072
0.0186794
0.0203456
0.0225206
0.0268759
0.0413727
0.0158556
0.0161081
0.0163164
0.0166547
0.0172553
0.0181283
0.0193715
0.0212892
0.0251704
0.0348407
0.0158146
0.0160343
0.0162131
0.0164997
0.0170032
0.0177353
0.018738
0.0205752
0.0242731
0.0327008
0.0157628
0.0159538
0.0161048
0.016346
0.0167489
0.0173593
0.0181305
0.0196749
0.0222654
0.0278277
0.0156623
0.0158255
0.015952
0.0161511
0.016462
0.0169649
0.0174749
0.0186876
0.0193268
0.0213508
0.0156883
0.0158369
0.0159478
0.0161289
0.0163978
0.0168654
0.0172988
0.0185035
0.0179934
0.0227734
0.0156137
0.0157521
0.0158528
0.0160179
0.0162701
0.016733
0.0172174
0.018543
0.0190886
0.029424
0.0155994
0.0157065
0.015798
0.0159495
0.0161878
0.0166332
0.0171853
0.0184281
0.0204822
0.0304679
0.0146069
0.0148361
0.0149985
0.0152936
0.0157479
0.0163528
0.0174732
0.017854
0.0162499
0.0338188
0.0145336
0.0147649
0.014908
0.0151807
0.0156237
0.0162427
0.0174766
0.0182995
0.0179506
0.0341782
0.014551
0.0147704
0.0149168
0.0151849
0.0156338
0.0162613
0.0173574
0.0184501
0.0189884
0.0364557
0.0144657
0.0146638
0.0147952
0.01503
0.0154409
0.0160501
0.0170387
0.0186006
0.021171
0.0410462
0.0144419
0.0146167
0.0147362
0.0149492
0.0153256
0.0159258
0.0168692
0.0187752
0.0225683
0.0433189
0.0144101
0.0145616
0.0146644
0.0148495
0.0151546
0.0156771
0.0164153
0.0181456
0.0216325
0.0385488
0.0143298
0.0144551
0.0145392
0.0146872
0.0148992
0.0152872
0.0156701
0.0169928
0.0184004
0.0276289
0.0143588
0.0144685
0.0145401
0.0146696
0.0148293
0.0151336
0.0153453
0.0165049
0.0152805
0.0222098
0.014304
0.0144053
0.0144705
0.0145866
0.01473
0.0150118
0.015271
0.0164366
0.0148714
0.0255878
0.0142879
0.0143552
0.014414
0.0145184
0.0146564
0.0149304
0.0153331
0.0164228
0.0160865
0.0292441
0.0133701
0.0169043
0.0191311
0.0202622
0.0199364
0.0197171
0.0207033
0.0222541
0.0240035
0.0235942
0.014801
0.018801
0.0222822
0.0236279
0.0224954
0.0208578
0.0208389
0.0222525
0.0244886
0.0249919
0.0182169
0.0227614
0.0258554
0.0259645
0.0235704
0.0208162
0.0202313
0.0216728
0.024403
0.0256067
0.0208396
0.0253899
0.0277763
0.0273428
0.0244019
0.020933
0.0197771
0.0211296
0.0242588
0.0261686
0.0226182
0.0263665
0.0279246
0.0265515
0.0232804
0.0200193
0.0193234
0.0210698
0.0240712
0.0255827
0.0243534
0.026892
0.0275984
0.026111
0.0233363
0.0208529
0.0205662
0.0219044
0.0238691
0.0237816
0.0256585
0.0276621
0.028021
0.0265608
0.02419
0.0221105
0.0216402
0.0225624
0.0243815
0.02495
0.0272803
0.0298998
0.0299424
0.0280206
0.0254315
0.0232751
0.022658
0.0234785
0.025383
0.0264924
0.028022
0.0307727
0.0310154
0.0292035
0.0265753
0.02434
0.0234632
0.0239468
0.0255931
0.026661
0.0266602
0.0286394
0.0291069
0.0277025
0.0255877
0.0239279
0.0234348
0.0238984
0.0250451
0.0250842
0.0137351
0.0147856
0.0158337
0.0159521
0.0151969
0.0150987
0.0170063
0.0202023
0.0235666
0.0260261
0.0135381
0.0149278
0.0171895
0.0181212
0.0169336
0.0160078
0.0169962
0.0197718
0.0238942
0.0269663
0.0147338
0.0167884
0.0197031
0.0199593
0.0180303
0.0165019
0.0169913
0.019433
0.0235623
0.0265912
0.015741
0.0180458
0.0199663
0.0199272
0.0177887
0.0158726
0.0159462
0.0181469
0.0227038
0.0262967
0.0176597
0.0200227
0.0210144
0.0199881
0.0175686
0.0153286
0.015333
0.0180367
0.0227877
0.0260902
0.0206108
0.0220588
0.0227623
0.021626
0.0190677
0.0167942
0.0173745
0.0201344
0.0233554
0.0252054
0.0224924
0.0231725
0.0236538
0.0226515
0.0202886
0.0182872
0.0186618
0.0208242
0.0237381
0.0257304
0.0243268
0.0242133
0.0244694
0.0233646
0.0210512
0.0190928
0.0190063
0.0209313
0.0240946
0.026372
0.0251968
0.0252471
0.0256737
0.0246124
0.022353
0.0204471
0.0201344
0.0215943
0.0243532
0.0265995
0.0245981
0.0253228
0.0253916
0.0242047
0.0222091
0.0205121
0.0203853
0.0219655
0.0243521
0.0262951
0.014665
0.014537
0.0137848
0.0122553
0.010688
0.0104846
0.0125371
0.0165589
0.020768
0.0227965
0.0139341
0.0140511
0.0141856
0.013303
0.0113545
0.0110218
0.0128209
0.0163841
0.0212598
0.0238492
0.0149757
0.0145207
0.0151825
0.0141999
0.0116686
0.0110188
0.0127862
0.016243
0.0210364
0.023421
0.0154864
0.0150286
0.0142197
0.0136862
0.0112503
0.0103099
0.0116374
0.0149508
0.0199984
0.0227966
0.0158751
0.0175473
0.017019
0.0157907
0.0131348
0.0112222
0.0120142
0.0153805
0.02035
0.0225814
0.0179308
0.0197008
0.0198391
0.018747
0.0155927
0.0130567
0.0140115
0.0176167
0.0214856
0.0225531
0.0193121
0.0202212
0.0207364
0.0200862
0.0170553
0.0146186
0.0153005
0.0182536
0.0217782
0.0232057
0.021285
0.020561
0.0209311
0.0204278
0.0179571
0.0158995
0.0160696
0.0184316
0.021959
0.0237932
0.0224291
0.0221912
0.0222268
0.0212102
0.018697
0.0167743
0.0168422
0.0189851
0.0223245
0.0241564
0.0225751
0.023166
0.0228852
0.021434
0.0190061
0.0170909
0.0170851
0.0192535
0.0224014
0.0241053
0.0192427
0.0171068
0.0138057
0.00930802
0.00579532
0.00518347
0.00745159
0.0119478
0.0161312
0.0164255
0.0190435
0.0166139
0.0137952
0.00931332
0.00547088
0.0048924
0.00734055
0.0116611
0.0167493
0.0178652
0.0198617
0.0158173
0.0128893
0.00893231
0.00492574
0.00464558
0.00749509
0.011878
0.0167845
0.0176729
0.0192798
0.0147889
0.0113893
0.00905902
0.0047038
0.00402951
0.00650481
0.0110897
0.0158633
0.0169781
0.0181542
0.0170341
0.0149963
0.0127866
0.0076149
0.00515499
0.00717445
0.011666
0.0162113
0.0165995
0.0180621
0.018948
0.0182667
0.0161535
0.0103943
0.00726289
0.00895615
0.0132039
0.0172878
0.0171158
0.0186695
0.0189891
0.0188217
0.016982
0.0117083
0.0088625
0.00995978
0.0134923
0.0173819
0.0179193
0.0206846
0.0194135
0.0189388
0.0174754
0.0135314
0.0110085
0.0114786
0.0142721
0.0178309
0.0188212
0.0215131
0.0209976
0.0197313
0.0175676
0.0137376
0.0112915
0.0117151
0.0145783
0.0182928
0.0193296
0.0213647
0.021696
0.0204532
0.0178908
0.0142288
0.0117217
0.0119485
0.0146562
0.0180868
0.0187545
0.0301447
0.0243749
0.0168469
0.00802215
0.00256246
0.00143427
0.00357174
0.00808694
0.0119093
0.0113425
0.0295904
0.0228173
0.0150232
0.00647806
0.0010768
0.00016646
0.00281062
0.00728835
0.0121689
0.012395
0.0266401
0.0190859
0.011987
0.00489505
6.48032e-05
5.98472e-05
0.00338543
0.00803401
0.0124262
0.012098
0.0219527
0.015245
0.011107
0.00603483
-0.000327049
-0.00039587
0.00266196
0.00735028
0.011299
0.0111421
0.0202718
0.0170373
0.0150355
0.0105436
0.00170072
-0.00027306
0.00239086
0.00687072
0.0110032
0.010329
0.0197804
0.0189295
0.0178827
0.0135907
0.00410821
0.000986474
0.00309504
0.0073291
0.0116263
0.0109717
0.0200298
0.0194448
0.0180976
0.01366
0.00590358
0.00302471
0.00428126
0.00784282
0.0117965
0.0119023
0.0212939
0.0197632
0.0180813
0.0143582
0.00827786
0.00513537
0.00584057
0.00911628
0.0127743
0.0132778
0.0214047
0.0205333
0.0180966
0.0140182
0.00821416
0.00489506
0.00540288
0.00885922
0.0130861
0.0138643
0.0204594
0.0205384
0.018432
0.0145286
0.00908389
0.00563013
0.00578697
0.00885783
0.0125875
0.0127756
0.0424412
0.0337959
0.0216443
0.00873558
0.00184833
0.000221136
0.00242996
0.00671219
0.0097459
0.00866962
0.0408915
0.0297254
0.0166977
0.00548285
-0.000491394
-0.00117951
0.00167237
0.00583852
0.00975151
0.00887208
0.0320049
0.0215844
0.0119512
0.00338344
-0.00139704
-0.00131964
0.00212206
0.00650255
0.00989088
0.0082449
0.0224391
0.0155533
0.0123242
0.00523986
-0.00149318
-0.00154
0.00180369
0.00579029
0.00857441
0.00694823
0.0201323
0.0170881
0.0161994
0.00934505
-0.000587651
-0.00195125
0.000732573
0.00447918
0.00766382
0.00561254
0.0207742
0.0191343
0.0185053
0.0114489
0.000755074
-0.00167089
0.000145379
0.00364935
0.00746492
0.00593617
0.0211885
0.019901
0.0180897
0.0111755
0.00233283
-0.000567331
0.000591335
0.00389875
0.00750016
0.00675545
0.0219538
0.0204029
0.01792
0.0118624
0.00400961
0.000342103
0.00116575
0.0047495
0.00847384
0.0083511
0.0215199
0.0208332
0.0176392
0.0113083
0.003684
-2.17338e-05
0.000625378
0.00416046
0.00848015
0.00890069
0.0202935
0.020553
0.0179604
0.0122104
0.00462459
0.000717611
0.00110577
0.0043858
0.00816976
0.00769771
0.0499026
0.0404283
0.0257624
0.0110582
0.00308281
0.00132439
0.00380109
0.00755754
0.0101347
0.00873487
0.0464373
0.0335071
0.0185336
0.00679229
0.000556427
1.4806e-05
0.0032853
0.00719415
0.0100481
0.00808273
0.0322859
0.0219206
0.0131239
0.00509119
0.000284305
0.000106506
0.00347044
0.00751924
0.00998825
0.0072865
0.0203248
0.015315
0.0142928
0.00794851
0.00106271
7.84525e-05
0.00287041
0.00628341
0.00861271
0.00582158
0.0184346
0.0168336
0.0174192
0.0111731
0.00166071
-0.000498311
0.00136912
0.00452998
0.00735403
0.00419227
0.0197688
0.0188166
0.0189773
0.0120271
0.00191246
-0.00107277
1.57918e-05
0.00313708
0.00652154
0.00385741
0.0205206
0.0195314
0.0185107
0.0114501
0.00235487
-0.00125403
-0.00048151
0.00284343
0.00620719
0.0040797
0.0221078
0.0210019
0.0189715
0.0119027
0.00263514
-0.00147353
-0.000695367
0.00312175
0.00674513
0.005321
0.0223092
0.022204
0.0192244
0.0113813
0.00207611
-0.00159826
-0.0008826
0.00271736
0.00661154
0.00581406
0.0218962
0.0224787
0.0200377
0.0127268
0.00301571
-0.000917158
-0.000341104
0.00321811
0.00671813
0.00510226
0.0513544
0.0422259
0.0285755
0.0143517
0.00618859
0.00462543
0.00688599
0.00987878
0.0132209
0.0128374
0.0458133
0.0337918
0.0208807
0.0101418
0.00420475
0.00380282
0.00696237
0.0101325
0.0130966
0.0107378
0.0283025
0.0212612
0.0163484
0.00984726
0.00499335
0.004534
0.00735635
0.0105245
0.012992
0.00969449
0.0180242
0.0154538
0.0173767
0.0139229
0.00666393
0.00472182
0.00629813
0.00928441
0.0121254
0.00875316
0.0179312
0.0172725
0.0190444
0.0168355
0.00778171
0.00426048
0.00489872
0.00796407
0.011471
0.00793858
0.0184399
0.0182465
0.0199219
0.0173421
0.00739008
0.00314452
0.00328043
0.00666983
0.0106519
0.00740584
0.0182121
0.0181627
0.0202292
0.0167186
0.0066953
0.00189245
0.0019796
0.0058204
0.00995585
0.0070273
0.0203128
0.0207831
0.0219304
0.0167912
0.00597985
0.000875224
0.00121735
0.00562137
0.0100448
0.00779033
0.0236125
0.0243636
0.0235431
0.0164502
0.00523109
0.000289784
0.000783659
0.00532131
0.0100375
0.00830469
0.0250902
0.0260416
0.0250349
0.0182266
0.00678747
0.000731956
0.00112507
0.00567063
0.00991226
0.00789137
0.0483589
0.040262
0.0301645
0.018436
0.0092939
0.00536707
0.00459415
0.00607752
0.0172282
0.0366352
0.0425765
0.0332473
0.0241392
0.0154572
0.00845423
0.00508601
0.00353355
0.00411436
0.0136515
0.0266083
0.0295694
0.0237626
0.0223573
0.0183233
0.012181
0.00824013
0.00567698
0.0050662
0.0128576
0.0233844
0.0241202
0.0191431
0.0226683
0.0237254
0.0155068
0.00939067
0.00584109
0.00540056
0.0125112
0.0219939
0.0264236
0.0206172
0.0234618
0.027083
0.0179898
0.00946236
0.00545588
0.0055966
0.0127306
0.0220796
0.0234072
0.0204377
0.024804
0.0281613
0.0176669
0.00821774
0.00451915
0.00564995
0.0125014
0.0204922
0.0183159
0.0192332
0.0258491
0.0274587
0.0166374
0.00723699
0.00420255
0.00635359
0.0127519
0.0174255
0.0199425
0.0223775
0.0276358
0.0266618
0.0156236
0.00635472
0.00427465
0.00765171
0.0140814
0.0167913
0.0265393
0.0275447
0.0293493
0.0257359
0.0145189
0.00539329
0.00344846
0.00724825
0.0144416
0.017484
0.0302641
0.0300892
0.0303445
0.0265856
0.016359
0.00623671
0.00271382
0.00580771
0.0138878
0.0201853
0.0429394
0.0387972
0.0323775
0.0255625
0.0189612
0.0134659
0.00638107
0.00548461
0.0521399
0.154659
0.0436695
0.0364087
0.0298615
0.0260086
0.0216967
0.0165729
0.00706256
0.0014683
0.0425302
0.136766
0.0471066
0.0330102
0.0292793
0.029561
0.0270468
0.0222932
0.0117038
0.00292539
0.0382186
0.124655
0.0553478