/*--------------------------------*- C++ -*----------------------------------*\
  =========                 |
  \\      /  F ield         | OpenFOAM: The Open Source CFD Toolbox
   \\    /   O peration     | Website:  https://openfoam.org
    \\  /    A nd           | Version:  6
     \\/     M anipulation  |
\*---------------------------------------------------------------------------*/
FoamFile
{
    version     2.0;
    format      ascii;
    class       surfaceScalarField;
    location    "1900";
    object      phi;
}
// * * * * * * * * * * * * * * * * * * * * * * * * * * * * * * * * * * * * * //

dimensions      [0 3 -1 0 0 0 0];

internalField   nonuniform List<scalar> 
19500
(
1.57355e-07
1.5616e-07
9.96875e-05
1.76255e-08
1.5617e-07
9.99846e-05
1.23207e-08
1.56117e-07
9.98503e-05
7.1907e-09
1.55966e-07
9.98502e-05
9.83541e-10
1.55784e-07
9.98515e-05
-5.31797e-09
1.55562e-07
9.98519e-05
-1.07574e-08
1.5532e-07
9.98513e-05
-1.6741e-08
1.55106e-07
9.9852e-05
-1.55009e-07
1.54886e-07
9.99844e-05
1.54542e-07
9.96914e-05
1.57362e-07
1.70937e-08
9.99827e-05
1.75092e-08
1.69911e-08
0.00010028
1.22264e-08
1.69415e-08
0.000100146
7.06093e-09
1.68836e-08
0.000100145
8.2817e-10
1.68085e-08
0.000100146
-5.48683e-09
1.67252e-08
0.000100146
-1.09187e-08
1.66438e-08
0.000100145
-1.67828e-08
1.65738e-08
0.000100146
-1.55362e-07
1.65196e-08
0.000100278
1.64781e-08
9.99836e-05
1.57323e-07
1.12974e-08
9.98495e-05
1.74595e-08
1.12294e-08
0.000100147
1.21424e-08
1.11527e-08
0.000100012
6.9612e-09
1.10521e-08
0.000100012
7.09744e-10
1.09232e-08
0.000100013
-5.61295e-09
1.0778e-08
0.000100013
-1.10222e-08
1.06317e-08
0.000100013
-1.68361e-08
1.05065e-08
0.000100013
-1.55592e-07
1.04047e-08
0.000100146
1.02359e-08
9.98516e-05
1.57208e-07
5.85461e-09
9.98493e-05
1.74085e-08
5.77042e-09
0.000100146
1.20446e-08
5.69204e-09
0.000100012
6.83597e-09
5.57909e-09
0.000100012
5.65902e-10
5.4318e-09
0.000100013
-5.76164e-09
5.26368e-09
0.000100013
-1.11489e-08
5.09219e-09
0.000100012
-1.69038e-08
4.94457e-09
0.000100012
-1.55827e-07
4.81961e-09
0.000100146
4.63021e-09
9.98507e-05
1.57087e-07
-5.28885e-10
9.98504e-05
1.735e-08
-6.16772e-10
0.000100147
1.19338e-08
-6.96633e-10
0.000100013
6.69147e-09
-8.07445e-10
0.000100013
3.99515e-10
-9.52799e-10
0.000100014
-5.93362e-09
-1.11915e-09
0.000100014
-1.12963e-08
-1.28891e-09
0.000100013
-1.69804e-08
-1.43416e-09
0.000100013
-1.56106e-07
-1.55317e-09
0.000100147
-1.74022e-09
9.98512e-05
1.56956e-07
-6.85408e-09
9.98504e-05
1.72948e-08
-6.93739e-09
0.000100147
1.18261e-08
-7.01086e-09
0.000100013
6.54812e-09
-7.10868e-09
0.000100013
2.34018e-10
-7.23788e-09
0.000100014
-6.10477e-09
-7.38623e-09
0.000100014
-1.14438e-08
-7.53775e-09
0.000100013
-1.70566e-08
-7.6676e-09
0.000100013
-1.56379e-07
-7.77119e-09
0.000100147
-7.94004e-09
9.98508e-05
1.56829e-07
-1.20917e-08
9.98495e-05
1.72491e-08
-1.2162e-08
0.000100146
1.17324e-08
-1.2209e-08
0.000100012
6.42078e-09
-1.22798e-08
0.000100012
8.64434e-11
-1.23763e-08
0.000100013
-6.25769e-09
-1.24895e-08
0.000100013
-1.15771e-08
-1.26072e-08
0.000100012
-1.7126e-08
-1.2709e-08
0.000100012
-1.56622e-07
-1.27972e-08
0.000100146
-1.2932e-08
9.98493e-05
1.56738e-07
-1.75039e-08
9.98497e-05
1.72163e-08
-1.74804e-08
0.000100146
1.16633e-08
-1.7497e-08
0.000100012
6.32378e-09
-1.75299e-08
0.000100012
-2.67007e-11
-1.75749e-08
0.000100013
-6.37576e-09
-1.76292e-08
0.000100013
-1.16812e-08
-1.76865e-08
0.000100012
-1.71786e-08
-1.77334e-08
0.000100012
-1.56834e-07
-1.77814e-08
0.000100146
-1.79463e-08
9.98491e-05
1.56627e-07
-1.57015e-07
9.99839e-05
1.72001e-08
-1.57206e-07
0.00010028
1.1618e-08
-1.57321e-07
0.000100147
6.25104e-09
-1.57421e-07
0.000100146
-1.08512e-10
-1.57568e-07
0.000100147
-6.45897e-09
-1.57728e-07
0.000100148
-1.17626e-08
-1.5789e-07
0.000100147
-1.72274e-08
-1.58052e-07
0.000100147
-1.56961e-07
-1.58158e-07
0.000100281
-1.58258e-07
9.99843e-05
1.56439e-07
9.96875e-05
1.72211e-08
9.9983e-05
1.154e-08
9.98493e-05
6.15244e-09
9.98489e-05
-2.20012e-10
9.98498e-05
-6.5736e-09
9.98496e-05
-1.18642e-08
9.98484e-05
-1.73779e-08
9.98484e-05
-1.57058e-07
9.99824e-05
9.96854e-05
2.26848e-07
2.22465e-07
9.92423e-05
7.20889e-08
2.2233e-07
9.99213e-05
4.53518e-08
2.2183e-07
9.96595e-05
2.08807e-08
2.21417e-07
9.96577e-05
1.90128e-09
2.20809e-07
9.96542e-05
-1.70992e-08
2.20061e-07
9.96554e-05
-4.16899e-08
2.19216e-07
9.96612e-05
-6.85673e-08
2.18345e-07
9.9665e-05
-2.16364e-07
2.17857e-07
9.99187e-05
2.1659e-07
9.92612e-05
2.26726e-07
7.02808e-08
9.99125e-05
7.18066e-08
7.00856e-08
0.000100592
4.4861e-08
6.99169e-08
0.000100329
2.01862e-08
6.96855e-08
0.000100326
1.06838e-09
6.94158e-08
0.000100322
-1.80113e-08
6.91024e-08
0.000100321
-4.26125e-08
6.87572e-08
0.000100325
-6.93867e-08
6.84312e-08
0.000100327
-2.17602e-07
6.81351e-08
0.00010058
6.72412e-08
9.99183e-05
2.26281e-07
4.29577e-08
9.96549e-05
7.1634e-08
4.26487e-08
0.000100333
4.46667e-08
4.24915e-08
0.000100071
1.99354e-08
4.22234e-08
0.000100069
7.59838e-10
4.18912e-08
0.000100065
-1.83668e-08
4.15008e-08
0.000100065
-4.29807e-08
4.10682e-08
0.00010007
-6.96869e-08
4.06418e-08
0.000100072
-2.18182e-07
4.02218e-08
0.000100327
3.91342e-08
9.96645e-05
2.26e-07
1.79425e-08
9.96527e-05
7.14311e-08
1.75462e-08
0.000100331
4.43978e-08
1.73728e-08
0.000100069
1.96069e-08
1.70904e-08
0.000100066
3.74384e-10
1.67244e-08
0.000100062
-1.87921e-08
1.6287e-08
0.000100062
-4.34082e-08
1.57966e-08
0.000100067
-7.00716e-08
1.53036e-08
0.000100069
-2.19228e-07
1.48384e-08
0.000100325
1.3668e-08
9.96599e-05
2.25626e-07
-1.45649e-09
9.96485e-05
7.12306e-08
-1.86784e-09
0.000100326
4.41102e-08
-2.05064e-09
0.000100064
1.92399e-08
-2.32835e-09
0.000100062
-6.35328e-11
-2.69657e-09
0.000100057
-1.92812e-08
-3.14031e-09
0.000100057
-4.39089e-08
-3.64004e-09
0.000100062
-7.05343e-08
-4.14561e-09
0.000100064
-2.20339e-07
-4.60329e-09
0.00010032
-5.7712e-09
9.96533e-05
2.25224e-07
-2.07046e-08
9.96489e-05
7.10372e-08
-2.10935e-08
0.000100325
4.3828e-08
-2.12689e-08
0.000100064
1.88726e-08
-2.15178e-08
0.000100062
-5.05512e-10
-2.18549e-08
0.000100057
-1.97771e-08
-2.22636e-08
0.000100057
-4.44197e-08
-2.27252e-08
0.000100061
-7.10054e-08
-2.31939e-08
0.000100063
-2.21428e-07
-2.36074e-08
0.000100321
-2.4661e-08
9.96512e-05
2.2483e-07
-4.52726e-08
9.96536e-05
7.08665e-08
-4.56374e-08
0.000100329
4.35746e-08
-4.57817e-08
0.000100068
1.85363e-08
-4.59738e-08
0.000100066
-9.12701e-10
-4.62481e-08
0.000100061
-2.02354e-08
-4.65846e-08
0.000100061
-4.48943e-08
-4.69676e-08
0.000100065
-7.14447e-08
-4.73698e-08
0.000100067
-2.22399e-07
-4.77062e-08
0.000100325
-4.85381e-08
9.96537e-05
2.24459e-07
-7.18563e-08
9.96562e-05
7.07535e-08
-7.21541e-08
0.000100331
4.33838e-08
-7.22174e-08
0.00010007
1.82688e-08
-7.23393e-08
0.000100068
-1.24193e-09
-7.25334e-08
0.000100063
-2.06102e-08
-7.27735e-08
0.000100063
-4.5297e-08
-7.30532e-08
0.000100067
-7.18241e-08
-7.33564e-08
0.000100069
-2.23144e-07
-7.36442e-08
0.000100327
-7.41819e-08
9.96544e-05
2.24448e-07
-2.24615e-07
9.99165e-05
7.06911e-08
-2.25111e-07
0.000100591
4.32357e-08
-2.2514e-07
0.000100331
1.80768e-08
-2.25541e-07
0.000100329
-1.46152e-09
-2.26e-07
0.000100325
-2.08532e-08
-2.26517e-07
0.000100325
-4.55492e-08
-2.27059e-07
0.00010033
-7.21075e-08
-2.27552e-07
0.000100332
-2.23882e-07
-2.28194e-07
0.000100592
-2.28603e-07
9.99176e-05
2.23933e-07
9.92418e-05
7.0384e-08
9.99143e-05
4.28403e-08
9.96547e-05
1.762e-08
9.96516e-05
-1.99342e-09
9.96464e-05
-2.14243e-08
9.96455e-05
-4.60839e-08
9.96489e-05
-7.25125e-08
9.96501e-05
-2.24305e-07
9.99088e-05
9.92341e-05
2.58094e-07
2.50423e-07
9.8738e-05
9.5761e-08
2.50301e-07
9.98377e-05
6.52351e-08
2.4908e-07
9.94454e-05
3.35493e-08
2.48402e-07
9.94456e-05
6.89369e-09
2.47252e-07
9.94383e-05
-2.01354e-08
2.45862e-07
9.94414e-05
-5.30252e-08
2.44315e-07
9.94546e-05
-8.54257e-08
2.4258e-07
9.94596e-05
-2.39577e-07
2.41965e-07
9.98355e-05
2.39615e-07
9.87852e-05
2.5799e-07
9.03361e-08
9.9819e-05
9.5445e-08
9.01366e-08
0.000100919
6.43484e-08
8.9661e-08
0.000100524
3.22758e-08
8.90438e-08
0.000100523
5.30656e-09
8.83157e-08
0.000100512
-2.19205e-08
8.74491e-08
0.000100512
-5.48535e-08
8.64929e-08
0.000100521
-8.72447e-08
8.5602e-08
0.000100521
-2.41881e-07
8.49398e-08
0.000100897
8.29941e-08
9.98363e-05
2.56868e-07
5.77581e-08
9.9435e-05
9.49636e-08
5.71458e-08
0.000100533
6.38469e-08
5.6726e-08
0.00010014
3.16144e-08
5.59805e-08
0.000100139
4.51481e-09
5.50518e-08
0.00010013
-2.28006e-08
5.39505e-08
0.000100131
-5.57505e-08
5.27341e-08
0.000100141
-8.79104e-08
5.15568e-08
0.000100143
-2.4264e-07
5.05491e-08
0.000100521
4.83947e-08
9.94597e-05
2.56427e-07
2.4329e-08
9.94341e-05
9.44129e-08
2.35488e-08
0.000100531
6.30949e-08
2.30707e-08
0.000100138
3.0673e-08
2.22617e-08
0.000100137
3.41093e-09
2.12221e-08
0.000100128
-2.40005e-08
1.99852e-08
0.000100129
-5.69271e-08
1.86184e-08
0.000100139
-8.89245e-08
1.72711e-08
0.00010014
-2.447e-07
1.6168e-08
0.00010052
1.38605e-08
9.94531e-05
2.55711e-07
-3.53223e-09
9.94252e-05
9.38602e-08
-4.3759e-09
0.00010052
6.22851e-08
-4.86207e-09
0.000100128
2.96279e-08
-5.66684e-09
0.000100127
2.1697e-09
-6.71811e-09
0.000100118
-2.53619e-08
-7.96873e-09
0.000100118
-5.82843e-08
-9.34847e-09
0.000100128
-9.01227e-08
-1.07168e-08
0.000100129
-2.46758e-07
-1.1811e-08
0.00010051
-1.40531e-08
9.94377e-05
2.54982e-07
-3.10283e-08
9.94259e-05
9.33056e-08
-3.1858e-08
0.000100519
6.1473e-08
-3.23069e-08
0.000100128
2.85767e-08
-3.30359e-08
0.000100127
9.21042e-10
-3.40022e-08
0.000100117
-2.67292e-08
-3.51497e-08
0.000100117
-5.96455e-08
-3.64116e-08
0.000100126
-9.13188e-08
-3.76699e-08
0.000100127
-2.48782e-07
-3.86525e-08
0.00010051
-4.0626e-08
9.94322e-05
2.54306e-07
-6.3401e-08
9.94361e-05
9.27935e-08
-6.41677e-08
0.000100527
6.07262e-08
-6.45475e-08
0.000100137
2.7608e-08
-6.51294e-08
0.000100136
-2.27311e-10
-6.5927e-08
0.000100126
-2.79822e-08
-6.68718e-08
0.000100125
-6.08936e-08
-6.79105e-08
0.000100134
-9.24049e-08
-6.896e-08
0.000100135
-2.50599e-07
-6.97451e-08
0.000100519
-7.12772e-08
9.9437e-05
2.53553e-07
-9.42796e-08
9.94379e-05
9.24285e-08
-9.50952e-08
0.000100527
6.01422e-08
-9.52248e-08
0.000100138
2.6823e-08
-9.56095e-08
0.000100136
-1.16882e-09
-9.61817e-08
0.000100126
-2.902e-08
-9.68567e-08
0.000100126
-6.19397e-08
-9.75949e-08
0.000100134
-9.33398e-08
-9.83747e-08
0.000100134
-2.51856e-07
-9.90852e-08
0.00010052
-9.98784e-08
9.94344e-05
2.53888e-07
-2.54545e-07
9.98272e-05
9.23027e-08
-2.55496e-07
0.000100918
5.97496e-08
-2.552e-07
0.000100528
2.63273e-08
-2.56008e-07
0.000100528
-1.75044e-09
-2.56804e-07
0.000100518
-2.96476e-08
-2.57738e-07
0.000100519
-6.25577e-08
-2.5875e-07
0.000100529
-9.40417e-08
-2.59529e-07
0.000100529
-2.53484e-07
-2.6096e-07
0.000100918
-2.61473e-07
9.9829e-05
2.52902e-07
9.87373e-05
9.1462e-08
9.98233e-05
5.89179e-08
9.94351e-05
2.5363e-08
9.94323e-05
-2.82305e-09
9.9421e-05
-3.07601e-08
9.94189e-05
-6.35748e-08
9.94261e-05
-9.46112e-08
9.94247e-05
-2.54018e-07
9.98105e-05
9.87203e-05
2.78082e-07
2.67258e-07
9.81971e-05
1.09273e-07
2.67221e-07
9.97439e-05
7.57363e-08
2.65198e-07
9.92185e-05
4.22112e-08
2.64234e-07
9.92198e-05
1.24076e-08
2.62373e-07
9.92108e-05
-1.81223e-08
2.60175e-07
9.9217e-05
-5.40621e-08
2.57745e-07
9.92381e-05
-9.12853e-08
2.54808e-07
9.92472e-05
-2.49369e-07
2.53847e-07
9.9745e-05
2.49708e-07
9.82898e-05
2.78049e-07
1.00188e-07
9.97125e-05
1.08928e-07
1.00007e-07
0.00010126
7.4413e-08
9.91447e-08
0.000100729
4.02938e-08
9.80865e-08
0.000100728
9.90074e-09
9.68289e-08
0.000100713
-2.10686e-08
9.53073e-08
0.000100713
-5.71075e-08
9.36055e-08
0.000100726
-9.44187e-08
9.19806e-08
0.000100727
-2.53446e-07
9.086e-08
0.000101224
8.7426e-08
9.97488e-05
2.76194e-07
6.30812e-08
9.92006e-05
1.08059e-07
6.21662e-08
0.000100744
7.35355e-08
6.14304e-08
0.000100217
3.91277e-08
6.01452e-08
0.000100216
8.52927e-09
5.85365e-08
0.000100204
-2.25727e-08
5.66002e-08
0.000100206
-5.866e-08
5.44368e-08
0.000100222
-9.55497e-08
5.22945e-08
0.000100225
-2.54727e-07
5.05328e-08
0.000100726
4.68269e-08
9.92492e-05
2.75616e-07
2.64268e-08
9.91998e-05
1.07116e-07
2.52836e-08
0.000100741
7.2236e-08
2.44448e-08
0.000100215
3.74736e-08
2.30377e-08
0.000100214
6.5694e-09
2.12275e-08
0.000100202
-2.47203e-08
1.90499e-08
0.000100203
-6.07947e-08
1.66174e-08
0.000100218
-9.7404e-08
1.41713e-08
0.00010022
-2.58315e-07
1.22363e-08
0.000100724
8.25583e-09
9.9237e-05
2.74478e-07
-5.56287e-09
9.91873e-05
1.06174e-07
-6.86202e-09
0.000100725
7.08446e-08
-7.67847e-09
0.000100201
3.56531e-08
-9.0789e-09
0.0001002
4.38354e-09
-1.09093e-08
0.000100186
-2.71439e-08
-1.31039e-08
0.000100187
-6.32324e-08
-1.55467e-08
0.000100201
-9.95735e-08
-1.80195e-08
0.000100203
-2.61747e-07
-1.99472e-08
0.000100709
-2.37226e-08
9.92116e-05
2.73404e-07
-3.69807e-08
9.91885e-05
1.05219e-07
-3.83141e-08
0.000100723
6.94435e-08
-3.90311e-08
0.0001002
3.38232e-08
-4.02974e-08
0.000100199
2.1917e-09
-4.19757e-08
0.000100185
-2.95659e-08
-4.39769e-08
0.000100185
-6.56572e-08
-4.61927e-08
0.000100198
-1.01719e-07
-4.84368e-08
0.000100199
-2.65151e-07
-5.01708e-08
0.000100709
-5.33782e-08
9.92005e-05
2.72491e-07
-7.20107e-08
9.92033e-05
1.04329e-07
-7.32173e-08
0.000100735
6.81507e-08
-7.38202e-08
0.000100213
3.21401e-08
-7.48345e-08
0.000100211
1.87017e-10
-7.62161e-08
0.000100197
-3.17657e-08
-7.78521e-08
0.000100196
-6.7843e-08
-7.96488e-08
0.000100209
-1.03628e-07
-8.14911e-08
0.000100209
-2.68214e-07
-8.28497e-08
0.000100722
-8.52978e-08
9.92044e-05
2.7129e-07
-1.0654e-07
9.92057e-05
1.03683e-07
-1.07931e-07
0.000100734
6.71285e-08
-1.08088e-07
0.000100214
3.07685e-08
-1.08767e-07
0.000100211
-1.46486e-09
-1.09763e-07
0.000100197
-3.35861e-08
-1.10928e-07
0.000100196
-6.96728e-08
-1.12195e-07
0.000100208
-1.05269e-07
-1.13551e-07
0.000100207
-2.7018e-07
-1.14758e-07
0.000100722
-1.15876e-07
9.91985e-05
2.72014e-07
-2.73324e-07
9.97265e-05
1.03534e-07
-2.74819e-07
0.000101258
6.65046e-08
-2.74143e-07
0.000100736
2.99714e-08
-2.75429e-07
0.000100736
-2.441e-09
-2.76533e-07
0.000100723
-3.46812e-08
-2.7793e-07
0.000100723
-7.07394e-08
-2.79526e-07
0.000100737
-1.06467e-07
-2.80612e-07
0.000100737
-2.72764e-07
-2.8281e-07
0.000101257
-2.8353e-07
9.97275e-05
2.70462e-07
9.81966e-05
1.0211e-07
9.972e-05
6.51885e-08
9.92011e-05
2.84114e-08
9.91969e-05
-4.12328e-09
9.91803e-05
-3.63578e-08
9.91765e-05
-7.22738e-08
9.91859e-05
-1.0718e-07
9.91824e-05
-2.73496e-07
9.96975e-05
9.81653e-05
2.9402e-07
2.80036e-07
9.76275e-05
1.21251e-07
2.80084e-07
9.96412e-05
8.4899e-08
2.77217e-07
9.89824e-05
5.07244e-08
2.75866e-07
9.8983e-05
1.94186e-08
2.73051e-07
9.89743e-05
-1.29755e-08
2.6973e-07
9.8985e-05
-5.09365e-08
2.66027e-07
9.90155e-05
-9.2867e-08
2.61341e-07
9.90336e-05
-2.5057e-07
2.5944e-07
9.96493e-05
2.5237e-07
9.77912e-05
2.94041e-07
1.08103e-07
9.9595e-05
1.20789e-07
1.07885e-07
0.00010161
8.29957e-08
1.06579e-07
0.000100943
4.79521e-08
1.04975e-07
0.000100939
1.56179e-08
1.03027e-07
0.000100921
-1.76266e-08
1.0063e-07
0.000100921
-5.5799e-08
9.78974e-08
0.000100938
-9.79981e-08
9.5209e-08
0.000100941
-2.5757e-07
9.33113e-08
0.000101556
8.7559e-08
9.96604e-05
2.9144e-07
6.64279e-08
9.89555e-05
1.19473e-07
6.51544e-08
0.000100963
8.1645e-08
6.40338e-08
0.000100302
4.61275e-08
6.2081e-08
0.0001003
1.34701e-08
5.96062e-08
0.000100286
-2.00026e-08
5.65697e-08
0.000100289
-5.82823e-08
5.30979e-08
0.000100311
-9.99152e-08
4.95565e-08
0.000100318
-2.60111e-07
4.66366e-08
0.000100938
4.03053e-08
9.90406e-05
2.90694e-07
2.73786e-08
9.89529e-05
1.18059e-07
2.58358e-08
0.000100958
7.96651e-08
2.45548e-08
0.000100298
4.35598e-08
2.24075e-08
0.000100295
1.03765e-08
1.96254e-08
0.00010028
-2.34681e-08
1.62116e-08
0.000100282
-6.17957e-08
1.23152e-08
0.000100303
-1.03071e-07
8.27342e-09
0.000100309
-2.66228e-07
5.03522e-09
0.000100935
-1.77132e-09
9.90171e-05
2.89034e-07
-7.54563e-09
9.89379e-05
1.16638e-07
-9.36896e-09
0.000100938
7.75566e-08
-1.05796e-08
0.00010028
4.07591e-08
-1.27124e-08
0.000100277
6.95136e-09
-1.55161e-08
0.00010026
-2.73492e-08
-1.89396e-08
0.000100262
-6.57892e-08
-2.28242e-08
0.00010028
-1.06744e-07
-2.68693e-08
0.000100284
-2.72027e-07
-3.00959e-08
0.000100916
-3.63971e-08
9.89787e-05
2.8756e-07
-4.16988e-08
9.89398e-05
1.152e-07
-4.36323e-08
0.000100935
7.5435e-08
-4.46584e-08
0.000100279
3.7951e-08
-4.65804e-08
0.000100275
3.53074e-09
-4.91379e-08
0.000100258
-3.11982e-08
-5.22364e-08
0.000100258
-6.97237e-08
-5.57189e-08
0.000100275
-1.10333e-07
-5.93469e-08
0.000100277
-2.77707e-07
-6.21981e-08
0.000100914
-6.7415e-08
9.89583e-05
2.86407e-07
-7.85854e-08
9.89584e-05
1.13865e-07
-8.02861e-08
0.000100949
7.34844e-08
-8.11501e-08
0.000100295
3.53839e-08
-8.26931e-08
0.000100291
4.3005e-10
-8.47872e-08
0.000100273
-3.46519e-08
-8.72975e-08
0.000100272
-7.32296e-08
-9.00863e-08
0.000100288
-1.13486e-07
-9.30012e-08
0.000100288
-2.82767e-07
-9.51431e-08
0.00010093
-9.91083e-08
9.89579e-05
2.84683e-07
-1.16895e-07
9.89639e-05
1.12866e-07
-1.18884e-07
0.000100949
7.19223e-08
-1.19093e-07
0.000100297
3.32811e-08
-1.20139e-07
0.000100292
-2.12886e-09
-1.21645e-07
0.000100274
-3.75073e-08
-1.23428e-07
0.000100273
-7.61202e-08
-1.25382e-07
0.000100287
-1.16086e-07
-1.27461e-07
0.000100287
-2.85886e-07
-1.29348e-07
0.000100932
-1.31192e-07
9.89491e-05
2.85783e-07
-2.88004e-07
9.96164e-05
1.12678e-07
-2.90171e-07
0.000101607
7.10344e-08
-2.89168e-07
0.000100953
3.21372e-08
-2.91021e-07
0.00010095
-3.59012e-09
-2.92466e-07
0.000100934
-3.91869e-08
-2.94432e-07
0.000100935
-7.77362e-08
-2.96777e-07
0.000100952
-1.17976e-07
-2.98274e-07
0.000100953
-2.89708e-07
-3.01357e-07
0.000101607
-3.02263e-07
9.96135e-05
2.83523e-07
9.76281e-05
1.10595e-07
9.96059e-05
6.91349e-08
9.89567e-05
2.9819e-08
9.89485e-05
-6.0382e-09
9.89271e-05
-4.15864e-08
9.89212e-05
-8.00044e-08
9.89311e-05
-1.19045e-07
9.8927e-05
-2.90584e-07
9.95721e-05
9.7575e-05
3.05461e-07
2.88165e-07
9.70385e-05
1.31654e-07
2.88244e-07
9.95316e-05
9.4345e-08
2.84434e-07
9.87403e-05
6.06871e-08
2.82517e-07
9.87394e-05
2.89105e-08
2.78425e-07
9.87332e-05
-4.29141e-09
2.73517e-07
9.87506e-05
-4.29608e-08
2.67916e-07
9.87926e-05
-8.81776e-08
2.60549e-07
9.88247e-05
-2.38645e-07
2.56916e-07
9.955e-05
2.45089e-07
9.73131e-05
3.05458e-07
1.13828e-07
9.94686e-05
1.30947e-07
1.135e-07
0.000101964
9.16419e-08
1.11669e-07
0.00010116
5.66973e-08
1.09366e-07
0.000101152
2.32389e-08
1.06483e-07
0.000101132
-1.14683e-08
1.0286e-07
0.000101132
-5.07554e-08
9.86598e-08
0.000101153
-9.63519e-08
9.43056e-08
0.000101159
-2.5046e-07
9.10857e-08
0.000101883
8.14014e-08
9.9579e-05
3.02051e-07
6.8996e-08
9.8703e-05
1.29105e-07
6.72756e-08
0.000101187
8.9681e-08
6.56734e-08
0.000100393
5.39987e-08
6.28593e-08
0.000100388
2.00067e-08
5.92235e-08
0.000100372
-1.51019e-08
5.46417e-08
0.000100378
-5.47048e-08
4.92588e-08
0.000100406
-9.95926e-08
4.3499e-08
0.00010042
-2.55606e-07
3.85338e-08
0.000101154
2.74908e-08
9.88442e-05
3.0105e-07
2.80667e-08
9.86975e-05
1.27101e-07
2.60335e-08
0.000101178
8.68182e-08
2.42021e-08
0.000100385
5.01993e-08
2.10958e-08
0.000100379
1.53187e-08
1.70136e-08
0.000100363
-2.05033e-08
1.18682e-08
0.000100367
-6.04088e-08
5.8168e-09
0.000100392
-1.04981e-07
-7.53028e-10
0.000100404
-2.66204e-07
-6.24835e-09
0.000101148
-1.81166e-08
9.88017e-05
2.9875e-07
-9.55057e-09
9.86816e-05
1.25064e-07
-1.20091e-08
0.000101154
8.37764e-08
-1.37158e-08
0.000100364
4.60801e-08
-1.67958e-08
0.000100358
1.01598e-08
-2.08922e-08
0.00010034
-2.65269e-08
-2.60197e-08
0.000100342
-6.68433e-08
-3.20028e-08
0.000100365
-1.11106e-07
-3.85202e-08
0.000100373
-2.76369e-07
-4.38153e-08
0.000101126
-5.46766e-08
9.87442e-05
2.96786e-07
-4.62023e-08
9.86844e-05
1.23012e-07
-4.88539e-08
0.00010115
8.07196e-08
-5.02746e-08
0.000100363
4.19603e-08
-5.30427e-08
0.000100355
5.03391e-09
-5.67571e-08
0.000100336
-3.24677e-08
-6.13582e-08
0.000100337
-7.31252e-08
-6.66579e-08
0.000100357
-1.17018e-07
-7.23725e-08
0.000100362
-2.86136e-07
-7.68735e-08
0.000101124
-8.55329e-08
9.87086e-05
2.95349e-07
-8.44445e-08
9.8706e-05
1.21126e-07
-8.67321e-08
0.000101166
7.79288e-08
-8.79258e-08
0.000100381
3.82273e-08
-9.01503e-08
0.000100373
4.37366e-10
-9.31702e-08
0.000100353
-3.77254e-08
-9.68615e-08
0.000100351
-7.85753e-08
-1.01037e-07
0.000100369
-1.22049e-07
-1.05486e-07
0.000100371
-2.94453e-07
-1.08761e-07
0.000101142
-1.14996e-07
9.86985e-05
2.93027e-07
-1.25081e-07
9.87161e-05
1.19667e-07
-1.27759e-07
0.000101169
7.56645e-08
-1.2808e-07
0.000100386
3.51556e-08
-1.29608e-07
0.000100378
-3.3575e-09
-1.31767e-07
0.000100357
-4.20275e-08
-1.34378e-07
0.000100354
-8.29647e-08
-1.37264e-07
0.00010037
-1.26091e-07
-1.40426e-07
0.000100371
-2.99389e-07
-1.43043e-07
0.000101147
-1.4594e-07
9.86862e-05
2.94457e-07
-2.98142e-07
9.94996e-05
1.19383e-07
-3.00991e-07
0.00010196
7.44399e-08
-2.99664e-07
0.000101174
3.35575e-08
-3.02171e-07
0.000101169
-5.45082e-09
-3.04051e-07
0.000101151
-4.44816e-08
-3.06751e-07
0.000101152
-8.54026e-08
-3.10104e-07
0.000101172
-1.28729e-07
-3.12196e-07
0.000101175
-3.04551e-07
-3.16084e-07
0.000101963
-3.17537e-07
9.94859e-05
2.91464e-07
9.70418e-05
1.16575e-07
9.94831e-05
7.18176e-08
9.87051e-05
3.02723e-08
9.86914e-05
-8.92622e-09
9.86659e-05
-4.7892e-08
9.86572e-05
-8.86058e-08
9.86657e-05
-1.30245e-07
9.86609e-05
-3.06014e-07
9.94367e-05
9.69545e-05
3.12744e-07
2.92044e-07
9.64383e-05
1.40234e-07
2.92122e-07
9.94168e-05
1.03806e-07
2.87273e-07
9.84945e-05
7.23573e-08
2.8456e-07
9.84917e-05
4.20223e-08
2.78816e-07
9.84905e-05
1.02744e-08
2.71726e-07
9.85169e-05
-2.72267e-08
2.63278e-07
9.85732e-05
-7.42465e-08
2.52056e-07
9.86269e-05
-2.08741e-07
2.45654e-07
9.94477e-05
2.26422e-07
9.68847e-05
3.1266e-07
1.1698e-07
9.93358e-05
1.39139e-07
1.16468e-07
0.000102318
1.00036e-07
1.13998e-07
0.000101377
6.66629e-08
1.10785e-07
0.000101365
3.36651e-08
1.06622e-07
0.000101343
-7.00047e-10
1.01285e-07
0.000101343
-3.95186e-08
9.48604e-08
0.000101367
-8.71762e-08
8.78781e-08
0.000101378
-2.2821e-07
8.22608e-08
0.000102196
6.64286e-08
9.95176e-05
3.0839e-07
7.01765e-08
9.84462e-05
1.36656e-07
6.79221e-08
0.000101412
9.7269e-08
6.57038e-08
0.000100486
6.27791e-08
6.17626e-08
0.000100477
2.89089e-08
5.65476e-08
0.000100462
-6.2806e-09
4.97791e-08
0.000100471
-4.58235e-08
4.15085e-08
0.000100505
-9.28618e-08
3.20934e-08
0.00010053
-2.37751e-07
2.36828e-08
0.000101366
4.21189e-09
9.86752e-05
3.07019e-07
2.80855e-08
9.84374e-05
1.33903e-07
2.54546e-08
0.000101398
9.32419e-08
2.2931e-08
0.000100473
5.72975e-08
1.85695e-08
0.000100464
2.19594e-08
1.27288e-08
0.000100448
-1.45903e-08
5.13462e-09
0.000100454
-5.50423e-08
-4.14644e-09
0.000100485
-1.0188e-07
-1.47746e-08
0.000100504
-2.562e-07
-2.39986e-08
0.000101358
-4.52728e-08
9.86016e-05
3.03969e-07
-1.15688e-08
9.8422e-05
1.31073e-07
-1.47877e-08
0.000101372
8.89694e-08
-1.71235e-08
0.000100452
5.13819e-08
-2.14396e-08
0.000100441
1.43453e-08
-2.72666e-08
0.000100423
-2.38081e-08
-3.47804e-08
0.000100426
-6.52736e-08
-4.3859e-08
0.000100452
-1.12037e-07
-5.41603e-08
0.000100466
-2.74788e-07
-6.29099e-08
0.000101336
-8.18456e-08
9.85129e-05
3.01414e-07
-5.00556e-08
9.84263e-05
1.28232e-07
-5.35612e-08
0.000101367
8.46842e-08
-5.54885e-08
0.00010045
4.54873e-08
-5.93558e-08
0.000100438
6.81754e-09
-6.46029e-08
0.000100418
-3.28096e-08
-7.12779e-08
0.000100419
-7.51216e-08
-7.918e-08
0.000100441
-1.21775e-07
-8.79905e-08
0.000100449
-2.91993e-07
-9.50612e-08
0.000101335
-1.09628e-07
9.84512e-05
2.99623e-07
-8.8906e-08
9.84499e-05
1.25654e-07
-9.18969e-08
0.000101383
8.08067e-08
-9.35023e-08
0.000100469
4.01992e-08
-9.66091e-08
0.000100456
1.53583e-10
-1.00841e-07
0.000100435
-4.06145e-08
-1.06138e-07
0.000100433
-8.34693e-08
-1.12246e-07
0.000100451
-1.29761e-07
-1.18957e-07
0.000100456
-3.05753e-07
-1.23751e-07
0.000101355
-1.34096e-07
9.84238e-05
2.96636e-07
-1.30766e-07
9.84659e-05
1.23596e-07
-1.34166e-07
0.000101389
7.76244e-08
-1.34634e-07
0.000100478
3.58353e-08
-1.36787e-07
0.000100465
-5.326e-09
-1.39788e-07
0.000100442
-4.69408e-08
-1.43499e-07
0.000100439
-9.01097e-08
-1.47719e-07
0.000100455
-1.3593e-07
-1.52237e-07
0.000100457
-3.14095e-07
-1.55972e-07
0.000101365
-1.60783e-07
9.84053e-05
2.98431e-07
-3.03887e-07
9.9379e-05
1.23194e-07
-3.07588e-07
0.000102313
7.59866e-08
-3.06002e-07
0.000101398
3.36484e-08
-3.09251e-07
0.000101389
-8.24778e-09
-3.11686e-07
0.00010137
-5.04658e-08
-3.15337e-07
0.000101372
-9.3519e-08
-3.19917e-07
0.000101393
-1.39743e-07
-3.2301e-07
0.000101398
-3.21137e-07
-3.28002e-07
0.000102324
-3.29722e-07
9.93405e-05
2.94504e-07
9.64464e-05
1.19509e-07
9.93537e-05
7.24514e-08
9.84496e-05
2.91412e-08
9.84291e-05
-1.30651e-08
9.84003e-05
-5.5208e-08
9.83881e-05
-9.81841e-08
9.8393e-05
-1.42172e-07
9.83867e-05
-3.22762e-07
9.92956e-05
9.63057e-05
3.1734e-07
2.93525e-07
9.58321e-05
1.47932e-07
2.93568e-07
9.92974e-05
1.13646e-07
2.87631e-07
9.82462e-05
8.61662e-08
2.83903e-07
9.82407e-05
5.9952e-08
2.76143e-07
9.82465e-05
3.25198e-08
2.66203e-07
9.82844e-05
-6.23166e-10
2.53991e-07
9.83594e-05
-4.74781e-08
2.37443e-07
9.84444e-05
-1.54356e-07
2.27459e-07
9.93369e-05
1.99585e-07
9.65372e-05
3.17124e-07
1.18638e-07
9.91982e-05
1.46295e-07
1.1786e-07
0.00010267
1.08533e-07
1.14639e-07
0.000101593
7.81984e-08
1.10281e-07
0.000101574
4.78849e-08
1.0446e-07
0.000101551
1.62164e-08
9.67899e-08
0.000101551
-1.978e-08
8.73448e-08
0.000101576
-6.76843e-08
7.64131e-08
0.000101595
-1.81985e-07
6.80363e-08
0.00010248
3.90147e-08
9.95023e-05
3.11972e-07
7.03383e-08
9.81872e-05
1.43056e-07
6.74781e-08
0.000101636
1.04749e-07
6.45039e-08
0.000100579
7.27929e-08
5.91426e-08
0.000100565
4.10612e-08
5.1864e-08
0.000100553
8.08618e-09
4.20794e-08
0.000100565
-2.92224e-08
2.95776e-08
0.000100607
-7.66091e-08
1.42314e-08
0.000100648
-1.99918e-07
-3.24383e-10
0.000101567
-3.82366e-08
9.85586e-05
3.10126e-07
2.75029e-08
9.81747e-05
1.39379e-07
2.41806e-08
0.000101617
9.92449e-08
2.08196e-08
0.000100562
6.50905e-08
1.48755e-08
0.000100548
3.09757e-08
6.73012e-09
0.000100533
-4.45542e-09
-4.24563e-09
0.000100543
-4.40053e-08
-1.82948e-08
0.000100579
-9.26516e-08
-3.55812e-08
0.000100611
-2.34594e-07
-5.21232e-08
0.000101561
-9.25972e-08
9.84275e-05
3.06246e-07
-1.34752e-08
9.81614e-05
1.35567e-07
-1.75646e-08
0.00010159
9.34076e-08
-2.06649e-08
0.00010054
5.67924e-08
-2.65375e-08
0.000100524
1.99397e-08
-3.46188e-08
0.000100507
-1.83795e-08
-4.53922e-08
0.000100512
-6.05381e-08
-5.89618e-08
0.000100542
-1.10634e-07
-7.5483e-08
0.000100564
-2.7057e-07
-9.05005e-08
0.000101544
-1.25547e-07
9.82814e-05
3.03018e-07
-5.30992e-08
9.81675e-05
1.31754e-07
-5.757e-08
0.000101583
8.75622e-08
-6.01168e-08
0.000100539
4.85527e-08
-6.53645e-08
0.000100521
9.10796e-09
-7.25891e-08
0.000100502
-3.18294e-08
-8.20617e-08
0.000100503
-7.61701e-08
-9.36644e-08
0.000100526
-1.27093e-07
-1.07274e-07
0.00010054
-3.02527e-07
-1.18262e-07
0.000101548
-1.42958e-07
9.81723e-05
3.00819e-07
-9.22149e-08
9.81927e-05
1.28333e-07
-9.60099e-08
0.000101599
8.23192e-08
-9.81053e-08
0.000100558
4.12362e-08
-1.02315e-07
0.000100539
-3.56966e-10
-1.08097e-07
0.000100517
-4.33209e-08
-1.15541e-07
0.000100516
-8.89361e-08
-1.24348e-07
0.000100534
-1.3993e-07
-1.34189e-07
0.000100541
-3.25498e-07
-1.4078e-07
0.000101572
-1.55665e-07
9.81171e-05
2.9713e-07
-1.34753e-07
9.82158e-05
1.25534e-07
-1.38999e-07
0.000101608
7.79751e-08
-1.39694e-07
0.000100572
3.51873e-08
-1.42629e-07
0.000100553
-8.11186e-09
-1.46703e-07
0.00010053
-5.24783e-08
-1.51909e-07
0.000100526
-9.85405e-08
-1.57932e-07
0.000100541
-1.48526e-07
-1.64685e-07
0.000100545
-3.36957e-07
-1.69349e-07
0.000101592
-1.76174e-07
9.80948e-05
2.99188e-07
-3.07091e-07
9.92565e-05
1.24942e-07
-3.11574e-07
0.000102665
7.58317e-08
-3.09732e-07
0.000101622
3.22424e-08
-3.13779e-07
0.000101609
-1.21545e-08
-3.16909e-07
0.000101591
-5.74391e-08
-3.21735e-07
0.000101593
-1.0368e-07
-3.27997e-07
0.000101616
-1.53784e-07
-3.32425e-07
0.000101624
-3.4536e-07
-3.38226e-07
0.000102695
-3.41066e-07
9.91659e-05
2.94367e-07
9.58482e-05
1.20326e-07
9.92195e-05
7.12003e-08
9.81925e-05
2.6235e-08
9.81641e-05
-1.86949e-08
9.81323e-05
-6.40852e-08
9.81159e-05
-1.10049e-07
9.81157e-05
-1.57295e-07
9.81073e-05
-3.47133e-07
9.91534e-05
9.5619e-05
3.2001e-07
2.94047e-07
9.52226e-05
1.55418e-07
2.94115e-07
9.91727e-05
1.24375e-07
2.87145e-07
9.79953e-05
1.02795e-07
2.82264e-07
9.79856e-05
8.40592e-08
2.72214e-07
9.79991e-05
6.60858e-08
2.58833e-07
9.80501e-05
4.2697e-08
2.41823e-07
9.81477e-05
4.21664e-09
2.19186e-07
9.82707e-05
-7.66907e-08
2.06387e-07
9.92168e-05
1.79728e-07
9.6279e-05
3.19727e-07
1.19874e-07
9.90573e-05
1.53153e-07
1.18796e-07
0.000103016
1.17703e-07
1.14756e-07
0.000101806
9.19934e-08
1.09025e-07
0.000101779
6.71329e-08
1.01097e-07
0.000101753
4.22782e-08
9.02835e-08
0.000101751
1.40851e-08
7.65046e-08
0.000101777
-2.62716e-08
5.91863e-08
0.000101803
-1.08008e-07
4.3375e-08
0.000102729
6.94734e-11
9.95725e-05
3.13749e-07
7.02732e-08
9.79277e-05
1.49077e-07
6.67853e-08
0.000101858
1.12698e-07
6.29509e-08
0.000100673
8.46444e-08
5.58707e-08
0.000100652
5.74922e-08
4.59382e-08
0.000100641
3.02802e-08
3.20201e-08
0.000100658
-1.98676e-10
1.32913e-08
0.000100709
-4.28029e-08
-1.25282e-08
0.00010077
-1.38427e-07
-4.16541e-08
0.000101753
-1.08146e-07
9.85276e-05
3.11373e-07
2.6813e-08
9.79115e-05
1.4432e-07
2.27539e-08
0.000101833
1.05385e-07
1.84404e-08
0.000100651
7.4051e-08
1.05727e-08
0.00010063
4.30389e-08
-5.15074e-10
0.000100617
1.13052e-08
-1.60727e-08
0.000100629
-2.46136e-08
-3.70645e-08
0.000100673
-7.45928e-08
-6.53888e-08
0.000100722
-2.03113e-07
-9.42527e-08
0.000101748
-1.66968e-07
9.82832e-05
3.06653e-07
-1.50931e-08
9.79013e-05
1.39358e-07
-2.01115e-08
0.000101805
9.76263e-08
-2.40882e-08
0.00010063
6.26642e-08
-3.18483e-08
0.000100607
2.72888e-08
-4.27791e-08
0.000100591
-9.56856e-09
-5.7909e-08
0.000100598
-5.11558e-08
-7.79292e-08
0.000100632
-1.05089e-07
-1.04081e-07
0.000100665
-2.70425e-07
-1.29053e-07
0.00010175
-1.9054e-07
9.80353e-05
3.02722e-07
-5.54728e-08
9.79097e-05
1.34397e-07
-6.09814e-08
0.000101797
8.98674e-08
-6.42441e-08
0.000100628
5.14117e-08
-7.11616e-08
0.000100604