/*--------------------------------*- C++ -*----------------------------------*\
  =========                 |
  \\      /  F ield         | OpenFOAM: The Open Source CFD Toolbox
   \\    /   O peration     | Website:  https://openfoam.org
    \\  /    A nd           | Version:  6
     \\/     M anipulation  |
\*---------------------------------------------------------------------------*/
FoamFile
{
    version     2.0;
    format      ascii;
    class       volScalarField;
    location    "0.845";
    object      T;
}
// * * * * * * * * * * * * * * * * * * * * * * * * * * * * * * * * * * * * * //

dimensions      [0 0 0 1 0 0 0];

internalField   nonuniform List<scalar> 
7000
(
106.515
106.514
106.511
106.507
106.502
106.496
106.491
106.487
106.483
106.481
106.515
106.514
106.511
106.507
106.502
106.496
106.491
106.487
106.483
106.481
106.515
106.514
106.511
106.507
106.502
106.496
106.491
106.487
106.483
106.481
106.515
106.514
106.511
106.507
106.502
106.496
106.491
106.487
106.483
106.481
106.515
106.514
106.511
106.507
106.502
106.496
106.491
106.487
106.483
106.481
106.515
106.514
106.511
106.507
106.502
106.496
106.491
106.487
106.483
106.481
106.515
106.514
106.511
106.507
106.502
106.496
106.491
106.487
106.483
106.481
106.515
106.514
106.511
106.507
106.502
106.496
106.491
106.487
106.483
106.481
106.515
106.514
106.511
106.507
106.502
106.496
106.491
106.487
106.483
106.481
106.515
106.514
106.511
106.507
106.502
106.496
106.491
106.487
106.483
106.481
99.5666
99.5622
99.5535
99.5413
99.5264
99.5101
99.4939
99.4795
99.4687
99.4629
99.5666
99.5621
99.5535
99.5413
99.5264
99.5101
99.4939
99.4795
99.4687
99.4629
99.5666
99.5621
99.5535
99.5413
99.5264
99.5101
99.4939
99.4795
99.4687
99.4629
99.5666
99.5621
99.5535
99.5413
99.5264
99.5101
99.4939
99.4795
99.4687
99.4629
99.5666
99.5621
99.5535
99.5413
99.5264
99.5101
99.4939
99.4795
99.4687
99.4629
99.5666
99.5621
99.5535
99.5413
99.5264
99.5101
99.4939
99.4795
99.4687
99.4629
99.5666
99.5621
99.5535
99.5413
99.5264
99.5101
99.4939
99.4795
99.4687
99.4629
99.5666
99.5621
99.5535
99.5413
99.5264
99.5101
99.4939
99.4795
99.4687
99.4629
99.5666
99.5621
99.5535
99.5413
99.5264
99.5101
99.4939
99.4795
99.4687
99.4629
99.5666
99.5621
99.5535
99.5413
99.5264
99.5101
99.4939
99.4795
99.4687
99.4629
92.6829
92.6753
92.6605
92.6396
92.614
92.5857
92.5574
92.532
92.5128
92.5024
92.6828
92.6752
92.6605
92.6396
92.614
92.5857
92.5574
92.532
92.5128
92.5023
92.6828
92.6752
92.6605
92.6396
92.614
92.5857
92.5573
92.532
92.5127
92.5023
92.6828
92.6752
92.6605
92.6396
92.614
92.5857
92.5573
92.532
92.5127
92.5023
92.6828
92.6752
92.6605
92.6396
92.614
92.5857
92.5573
92.532
92.5127
92.5023
92.6828
92.6752
92.6605
92.6396
92.614
92.5857
92.5573
92.532
92.5127
92.5023
92.6828
92.6752
92.6605
92.6396
92.614
92.5857
92.5573
92.532
92.5127
92.5023
92.6828
92.6752
92.6605
92.6396
92.614
92.5857
92.5573
92.532
92.5127
92.5023
92.6828
92.6752
92.6605
92.6396
92.614
92.5857
92.5573
92.532
92.5127
92.5023
92.6828
92.6752
92.6605
92.6396
92.614
92.5857
92.5574
92.532
92.5128
92.5024
85.906
85.8951
85.8738
85.8435
85.8059
85.764
85.7215
85.6828
85.6531
85.6369
85.906
85.8951
85.8738
85.8434
85.8059
85.764
85.7214
85.6828
85.6531
85.6368
85.906
85.895
85.8738
85.8434
85.8059
85.764
85.7214
85.6828
85.6531
85.6368
85.906
85.895
85.8738
85.8434
85.8059
85.764
85.7214
85.6828
85.6531
85.6368
85.906
85.895
85.8738
85.8434
85.8059
85.7639
85.7214
85.6828
85.6531
85.6368
85.906
85.895
85.8738
85.8434
85.8059
85.7639
85.7214
85.6828
85.6531
85.6368
85.906
85.895
85.8738
85.8434
85.8059
85.7639
85.7214
85.6828
85.6531
85.6368
85.906
85.895
85.8738
85.8434
85.8059
85.764
85.7214
85.6828
85.6531
85.6368
85.906
85.895
85.8738
85.8434
85.8059
85.764
85.7214
85.6828
85.6531
85.6368
85.906
85.8951
85.8738
85.8434
85.8059
85.764
85.7214
85.6828
85.6531
85.6369
79.2771
79.2627
79.2345
79.1938
79.1428
79.0851
79.0252
78.9697
78.926
78.9017
79.2771
79.2627
79.2344
79.1937
79.1428
79.085
79.0252
78.9697
78.926
78.9016
79.2771
79.2626
79.2344
79.1937
79.1428
79.085
79.0252
78.9696
78.926
78.9016
79.2771
79.2626
79.2344
79.1937
79.1428
79.085
79.0252
78.9696
78.9259
78.9016
79.2771
79.2626
79.2344
79.1937
79.1428
79.085
79.0252
78.9696
78.9259
78.9016
79.2771
79.2626
79.2344
79.1937
79.1428
79.085
79.0252
78.9696
78.9259
78.9016
79.2771
79.2626
79.2344
79.1937
79.1428
79.085
79.0252
78.9696
78.9259
78.9016
79.2771
79.2626
79.2344
79.1937
79.1428
79.085
79.0252
78.9696
78.9259
78.9016
79.2771
79.2626
79.2344
79.1937
79.1428
79.085
79.0252
78.9696
78.926
78.9016
79.2771
79.2627
79.2344
79.1937
79.1428
79.085
79.0252
78.9697
78.926
78.9017
72.8356
72.8175
72.7821
72.7304
72.6646
72.5883
72.5071
72.4291
72.3655
72.3289
72.8355
72.8175
72.782
72.7303
72.6646
72.5883
72.507
72.429
72.3655
72.3289
72.8355
72.8175
72.782
72.7303
72.6645
72.5883
72.507
72.429
72.3654
72.3289
72.8355
72.8175
72.782
72.7303
72.6645
72.5882
72.507
72.429
72.3654
72.3289
72.8355
72.8174
72.782
72.7303
72.6645
72.5882
72.507
72.429
72.3654
72.3289
72.8355
72.8174
72.782
72.7303
72.6645
72.5882
72.507
72.429
72.3654
72.3289
72.8355
72.8174
72.782
72.7303
72.6645
72.5882
72.507
72.429
72.3654
72.3289
72.8355
72.8175
72.782
72.7303
72.6645
72.5882
72.507
72.429
72.3654
72.3289
72.8355
72.8175
72.782
72.7303
72.6645
72.5883
72.507
72.429
72.3655
72.3289
72.8355
72.8175
72.782
72.7303
72.6646
72.5883
72.507
72.4291
72.3655
72.3289
66.6182
66.5968
66.5543
66.4915
66.4101
66.3128
66.2051
66.0965
66.0028
65.9459
66.6182
66.5967
66.5543
66.4915
66.41
66.3127
66.205
66.0965
66.0028
65.9458
66.6181
66.5967
66.5542
66.4915
66.41
66.3127
66.205
66.0964
66.0028
65.9458
66.6181
66.5967
66.5542
66.4915
66.41
66.3127
66.205
66.0964
66.0028
65.9458
66.6181
66.5967
66.5542
66.4914
66.41
66.3127
66.205
66.0964
66.0027
65.9458
66.6181
66.5967
66.5542
66.4914
66.41
66.3127
66.205
66.0964
66.0027
65.9458
66.6181
66.5967
66.5542
66.4915
66.41
66.3127
66.205
66.0964
66.0028
65.9458
66.6181
66.5967
66.5542
66.4915
66.41
66.3127
66.205
66.0964
66.0028
65.9458
66.6181
66.5967
66.5542
66.4915
66.41
66.3127
66.205
66.0965
66.0028
65.9458
66.6182
66.5967
66.5543
66.4915
66.41
66.3128
66.205
66.0965
66.0028
65.9459
60.659
60.6348
60.5864
60.5139
60.4173
60.2978
60.1586
60.0082
59.8663
59.7708
60.6589
60.6347
60.5864
60.5138
60.4173
60.2978
60.1585
60.0081
59.8663
59.7707
60.6589
60.6347
60.5863
60.5138
60.4173
60.2978
60.1585
60.0081
59.8662
59.7707
60.6589
60.6347
60.5863
60.5138
60.4172
60.2977
60.1585
60.0081
59.8662
59.7707
60.6589
60.6347
60.5863
60.5137
60.4172
60.2977
60.1585
60.0081
59.8662
59.7707
60.6588
60.6347
60.5863
60.5137
60.4172
60.2977
60.1585
60.0081
59.8662
59.7707
60.6589
60.6347
60.5863
60.5138
60.4172
60.2977
60.1585
60.0081
59.8662
59.7707
60.6589
60.6347
60.5863
60.5138
60.4172
60.2977
60.1585
60.0081
59.8662
59.7707
60.6589
60.6347
60.5863
60.5138
60.4173
60.2978
60.1585
60.0081
59.8663
59.7707
60.6589
60.6347
60.5864
60.5138
60.4173
60.2978
60.1586
60.0082
59.8663
59.7708
54.9878
54.9621
54.9103
54.8313
54.7235
54.5842
54.4112
54.2057
53.9836
53.8039
54.9877
54.962
54.9102
54.8313
54.7234
54.5842
54.4111
54.2056
53.9836
53.8038
54.9877
54.962
54.9102
54.8312
54.7234
54.5841
54.4111
54.2056
53.9835
53.8038
54.9876
54.962
54.9102
54.8312
54.7234
54.5841
54.4111
54.2056
53.9835
53.8037
54.9876
54.9619
54.9102
54.8312
54.7233
54.5841
54.4111
54.2055
53.9835
53.8037
54.9876
54.9619
54.9102
54.8312
54.7233
54.5841
54.4111
54.2055
53.9835
53.8037
54.9876
54.9619
54.9102
54.8312
54.7233
54.5841
54.4111
54.2055
53.9835
53.8037
54.9876
54.962
54.9102
54.8312
54.7234
54.5841
54.4111
54.2056
53.9835
53.8038
54.9877
54.962
54.9102
54.8313
54.7234
54.5841
54.4111
54.2056
53.9836
53.8038
54.9877
54.962
54.9102
54.8313
54.7234
54.5842
54.4112
54.2056
53.9836
53.8038
49.6296
49.6044
49.5533
49.4742
49.3635
49.2143
49.015
48.7478
48.3961
48.0012
49.6296
49.6044
49.5532
49.4742
49.3635
49.2143
49.0149
48.7478
48.396
48.0012
49.6295
49.6043
49.5532
49.4742
49.3634
49.2142
49.0149
48.7477
48.396
48.0011
49.6295
49.6043
49.5532
49.4741
49.3634
49.2142
49.0148
48.7477
48.3959
48.0011
49.6295
49.6043
49.5531
49.4741
49.3634
49.2142
49.0148
48.7477
48.3959
48.0011
49.6295
49.6043
49.5531
49.4741
49.3634
49.2142
49.0148
48.7477
48.3959
48.0011
49.6295
49.6043
49.5531
49.4741
49.3634
49.2142
49.0148
48.7477
48.3959
48.0011
49.6295
49.6043
49.5532
49.4741
49.3634
49.2142
49.0149
48.7477
48.3959
48.0011
49.6295
49.6043
49.5532
49.4742
49.3635
49.2143
49.0149
48.7478
48.396
48.0011
49.6296
49.6044
49.5532
49.4742
49.3635
49.2143
49.0149
48.7478
48.396
48.0012
44.6036
44.5816
44.5366
44.4668
44.3676
44.2295
44.033
43.7345
43.2265
42.1925
44.6036
44.5815
44.5366
44.4668
44.3675
44.2294
44.0329
43.7345
43.2265
42.1924
44.6036
44.5815
44.5366
44.4667
44.3675
44.2294
44.0329
43.7344
43.2264
42.1924
44.6035
44.5814
44.5365
44.4667
44.3674
44.2294
44.0328
43.7344
43.2264
42.1923
44.6035
44.5814
44.5365
44.4667
44.3674
44.2294
44.0328
43.7344
43.2264
42.1923
44.6035
44.5814
44.5365
44.4667
44.3674
44.2293
44.0328
43.7344
43.2264
42.1923
44.6035
44.5814
44.5365
44.4667
44.3674
44.2294
44.0328
43.7344
43.2264
42.1923
44.6035
44.5815
44.5365
44.4667
44.3675
44.2294
44.0328
43.7344
43.2264
42.1924
44.6036
44.5815
44.5366
44.4668
44.3675
44.2294
44.0329
43.7345
43.2265
42.1924
44.6036
44.5815
44.5366
44.4668
44.3675
44.2295
44.0329
43.7345
43.2265
42.1925
39.9222
39.9061
39.8738
39.8241
39.7546
39.6587
39.5228
39.319
38.9946
38.4725
39.9222
39.9061
39.8737
39.8241
39.7545
39.6586
39.5228
39.3189
38.9946
38.4724
39.9221
39.9061
39.8737
39.824
39.7545
39.6586
39.5227
39.3189
38.9945
38.4724
39.9221
39.906
39.8736
39.824
39.7544
39.6586
39.5227
39.3188
38.9945
38.4723
39.9221
39.906
39.8736
39.824
39.7544
39.6586
39.5227
39.3188
38.9945
38.4723
39.9221
39.906
39.8736
39.824
39.7544
39.6586
39.5227
39.3188
38.9945
38.4723
39.9221
39.906
39.8736
39.824
39.7544
39.6586
39.5227
39.3188
38.9945
38.4723
39.9221
39.906
39.8737
39.824
39.7544
39.6586
39.5227
39.3188
38.9945
38.4724
39.9221
39.9061
39.8737
39.8241
39.7545
39.6586
39.5227
39.3189
38.9945
38.4724
39.9222
39.9061
39.8737
39.8241
39.7545
39.6587
39.5228
39.3189
38.9946
38.4725
35.5905
35.5831
35.569
35.5495
35.526
35.4992
35.4686
35.4328
35.3964
35.397
35.5905
35.583
35.5689
35.5494
35.5259
35.4991
35.4685
35.4328
35.3963
35.397
35.5904
35.583
35.5689
35.5494
35.5259
35.4991
35.4685
35.4327
35.3963
35.3969
35.5904
35.5829
35.5688
35.5493
35.5258
35.499
35.4684
35.4327
35.3962
35.3969
35.5904
35.5829
35.5688
35.5493
35.5258
35.499
35.4684
35.4327
35.3962
35.3969
35.5904
35.5829
35.5688
35.5493
35.5258
35.499
35.4684
35.4327
35.3962
35.3969
35.5904
35.5829
35.5688
35.5493
35.5258
35.499
35.4684
35.4327
35.3962
35.3969
35.5904
35.583
35.5689
35.5494
35.5258
35.4991
35.4685
35.4327
35.3962
35.3969
35.5904
35.583
35.5689
35.5494
35.5259
35.4991
35.4685
35.4328
35.3963
35.3969
35.5905
35.583
35.5689
35.5494
35.5259
35.4992
35.4686
35.4328
35.3964
35.397
31.6068
31.6098
31.6179
31.6351
31.6679
31.725
31.8191
31.9697
32.211
32.6112
31.6068
31.6098
31.6178
31.6351
31.6678
31.725
31.8191
31.9696
32.211
32.6112
31.6067
31.6097
31.6178
31.635
31.6678
31.7249
31.819
31.9696
32.2109
32.6111
31.6067
31.6097
31.6178
31.635
31.6677
31.7249
31.819
31.9695
32.2109
32.6111
31.6067
31.6097
31.6177
31.635
31.6677
31.7249
31.819
31.9695
32.2109
32.6111
31.6067
31.6097
31.6177
31.635
31.6677
31.7249
31.819
31.9695
32.2109
32.6111
31.6067
31.6097
31.6177
31.635
31.6677
31.7249
31.819
31.9695
32.2109
32.6111
31.6067
31.6097
31.6178
31.635
31.6678
31.7249
31.819
31.9695
32.2109
32.6111
31.6068
31.6097
31.6178
31.6351
31.6678
31.7249
31.8191
31.9696
32.211
32.6112
31.6068
31.6098
31.6179
31.6351
31.6679
31.725
31.8191
31.9697
32.211
32.6112
27.9635
27.9775
28.0091
28.0652
28.1569
28.3004
28.5188
28.8444
29.3236
30.0235
27.9634
27.9775
28.0091
28.0651
28.1568
28.3004
28.5187
28.8443
29.3236
30.0234
27.9634
27.9774
28.009
28.0651
28.1568
28.3003
28.5187
28.8443
29.3235
30.0234
27.9633
27.9774
28.009
28.0651
28.1567
28.3003
28.5186
28.8442
29.3235
30.0233
27.9633
27.9774
28.009
28.065
28.1567
28.3003
28.5186
28.8442
29.3235
30.0233
27.9633
27.9774
28.009
28.065
28.1567
28.3003
28.5186
28.8442
29.3234
30.0233
27.9633
27.9774
28.009
28.0651
28.1567
28.3003
28.5186
28.8442
29.3235
30.0233
27.9633
27.9774
28.009
28.0651
28.1568
28.3003
28.5187
28.8443
29.3235
30.0233
27.9634
27.9775
28.009
28.0651
28.1568
28.3003
28.5187
28.8443
29.3235
30.0234
27.9634
27.9775
28.0091
28.0652
28.1569
28.3004
28.5188
28.8444
29.3236
30.0235
24.648
24.6726
24.7263
24.8187
24.965
25.1875
25.517
25.9948
26.6729
27.611
24.6479
24.6725
24.7263
24.8187
24.965
25.1874
25.5169
25.9948
26.6728
27.6109
24.6479
24.6725
24.7262
24.8186
24.9649
25.1874
25.5169
25.9947
26.6728
27.6109
24.6479
24.6725
24.7262
24.8186
24.9649
25.1873
25.5169
25.9947
26.6727
27.6108
24.6479
24.6724
24.7262
24.8186
24.9649
25.1873
25.5168
25.9947
26.6727
27.6108
24.6479
24.6724
24.7262
24.8186
24.9649
25.1873
25.5168
25.9947
26.6727
27.6108
24.6479
24.6725
24.7262
24.8186
24.9649
25.1873
25.5168
25.9947
26.6727
27.6108
24.6479
24.6725
24.7262
24.8186
24.9649
25.1873
25.5169
25.9947
26.6728
27.6109
24.6479
24.6725
24.7263
24.8187
24.965
25.1874
25.5169
25.9948
26.6728
27.6109
24.648
24.6726
24.7263
24.8187
24.965
25.1874
25.517
25.9948
26.6729
27.611
21.645
21.6783
21.7504
21.8726
22.0632
22.3491
22.768
23.3698
24.2149
25.3637
21.6449
21.6783
21.7504
21.8726
22.0631
22.349
22.7679
23.3697
24.2148
25.3636
21.6449
21.6782
21.7504
21.8725
22.0631
22.349
22.7679
23.3696
24.2148
25.3636
21.6449
21.6782
21.7503
21.8725
22.0631
22.3489
22.7678
23.3696
24.2147
25.3635
21.6449
21.6782
21.7503
21.8725
22.063
22.3489
22.7678
23.3696
24.2147
25.3635
21.6449
21.6782
21.7503
21.8725
22.063
22.3489
22.7678
23.3696
24.2147
25.3635
21.6449
21.6782
21.7503
21.8725
22.0631
22.3489
22.7678
23.3696
24.2147
25.3635
21.6449
21.6782
21.7504
21.8725
22.0631
22.349
22.7679
23.3696
24.2148
25.3636
21.6449
21.6783
21.7504
21.8726
22.0631
22.349
22.7679
23.3697
24.2148
25.3636
21.645
21.6783
21.7504
21.8726
22.0632
22.3491
22.768
23.3698
24.2149
25.3637
18.9374
18.9769
19.0616
19.2038
19.4233
19.7502
20.2277
20.9165
21.8966
23.255
18.9374
18.9768
19.0615
19.2037
19.4233
19.7502
20.2276
20.9164
21.8965
23.255
18.9373
18.9768
19.0615
19.2037
19.4233
19.7501
20.2276
20.9164
21.8965
23.2549
18.9373
18.9767
19.0615
19.2037
19.4232
19.7501
20.2276
20.9164
21.8964
23.2549
18.9373
18.9767
19.0615
19.2037
19.4232
19.7501
20.2276
20.9164
21.8964
23.2549
18.9373
18.9767
19.0615
19.2037
19.4232
19.7501
20.2276
20.9164
21.8964
23.2549
18.9373
18.9767
19.0615
19.2037
19.4232
19.7501
20.2276
20.9164
21.8964
23.2549
18.9373
18.9768
19.0615
19.2037
19.4232
19.7501
20.2276
20.9164
21.8965
23.2549
18.9373
18.9768
19.0615
19.2037
19.4233
19.7502
20.2276
20.9165
21.8965
23.255
18.9374
18.9768
19.0616
19.2038
19.4233
19.7502
20.2277
20.9165
21.8966
23.255
16.508
16.5504
16.6409
16.7913
17.0211
17.3602
17.854
18.5728
19.6289
21.1972
16.508
16.5504
16.6409
16.7912
17.021
17.3602
17.854
18.5728
19.6288
21.1971
16.5079
16.5503
16.6408
16.7912
17.021
17.3601
17.854
18.5727
19.6288
21.1971
16.5079
16.5503
16.6408
16.7912
17.021
17.3601
17.8539
18.5727
19.6288
21.197
16.5079
16.5503
16.6408
16.7912
17.021
17.3601
17.8539
18.5727
19.6288
21.197
16.5079
16.5503
16.6408
16.7912
17.021
17.3601
17.8539
18.5727
19.6288
21.197
16.5079
16.5503
16.6408
16.7912
17.021
17.3601
17.8539
18.5727
19.6288
21.197
16.5079
16.5503
16.6408
16.7912
17.021
17.3602
17.854
18.5727
19.6288
21.1971
16.508
16.5504
16.6409
16.7912
17.0211
17.3602
17.854
18.5728
19.6288
21.1971
16.508
16.5504
16.6409
16.7913
17.0211
17.3602
17.8541
18.5728
19.6289
21.1972
14.3405
14.3827
14.472
14.6185
14.839
15.1585
15.6154
16.2733
17.2578
18.8954
14.3405
14.3826
14.4719
14.6185
14.839
15.1585
15.6154
16.2732
17.2578
18.8953
14.3404
14.3826
14.4719
14.6185
14.8389
15.1584
15.6154
16.2732
17.2577
18.8953
14.3404
14.3826
14.4719
14.6184
14.8389
15.1584
15.6153
16.2732
17.2577
18.8953
14.3404
14.3826
14.4719
14.6184
14.8389
15.1584
15.6153
16.2732
17.2577
18.8953
14.3404
14.3826
14.4719
14.6184
14.8389
15.1584
15.6153
16.2732
17.2577
18.8953
14.3404
14.3826
14.4719
14.6184
14.8389
15.1584
15.6153
16.2732
17.2577
18.8953
14.3404
14.3826
14.4719
14.6185
14.8389
15.1584
15.6154
16.2732
17.2577
18.8953
14.3404
14.3826
14.4719
14.6185
14.839
15.1585
15.6154
16.2732
17.2578
18.8954
14.3405
14.3827
14.472
14.6185
14.839
15.1585
15.6155
16.2733
17.2578
18.8954
39.5151
39.0841
40.2526
42.8154
46.7654
52.2272
59.4623
68.9344
81.4851
98.8039
39.515
39.084
40.2525
42.8153
46.7653
52.2271
59.4622
68.9342
81.485
98.8037
39.515
39.0839
40.2524
42.8152
46.7652
52.227
59.4621
68.9342
81.4849
98.8036
39.5149
39.0839
40.2524
42.8151
46.7652
52.227
59.4621
68.9341
81.4848
98.8036
39.5149
39.0838
40.2523
42.8151
46.7651
52.227
59.462
68.9341
81.4848
98.8035
39.5149
39.0838
40.2523
42.8151
46.7651
52.227
59.462
68.934
81.4848
98.8035
39.5149
39.0838
40.2523
42.8151
46.7651
52.227
59.4621
68.9341
81.4848
98.8035
39.5149
39.0839
40.2524
42.8152
46.7652
52.227
59.4621
68.9341
81.4849
98.8036
39.515
39.0839
40.2524
42.8152
46.7652
52.2271
59.4622
68.9342
81.4849
98.8037
39.515
39.084
40.2525
42.8153
46.7653
52.2271
59.4622
68.9343
81.485
98.8038
37.7768
38.0444
39.4648
42.0782
45.9445
51.1833
57.9901
66.652
77.5404
90.9576
37.7767
38.0443
39.4648
42.0781
45.9444
51.1832
57.9899
66.6518
77.5403
90.9575
37.7766
38.0443
39.4647
42.078
45.9443
51.1831
57.9899
66.6517
77.5402
90.9574
37.7766
38.0442
39.4646
42.0779
45.9443
51.183
57.9898
66.6517
77.5401
90.9573
37.7766
38.0442
39.4646
42.0779
45.9443
51.183
57.9898
66.6516
77.5401
90.9573
37.7766
38.0442
39.4646
42.0779
45.9443
51.183
57.9898
66.6516
77.5401
90.9573
37.7766
38.0442
39.4646
42.0779
45.9443
51.183
57.9898
66.6517
77.5401
90.9573
37.7766
38.0442
39.4647
42.078
45.9443
51.183
57.9898
66.6517
77.5401
90.9573
37.7767
38.0443
39.4647
42.078
45.9444
51.1831
57.9899
66.6518
77.5402
90.9574
37.7767
38.0444
39.4648
42.0781
45.9445
51.1832
57.99
66.6519
77.5403
90.9575
35.592
36.4149
38.0915
40.7376
44.4413
49.2992
55.4259
62.938
71.8895
82.0876
35.5919
36.4148
38.0914
40.7375
44.4412
49.2991
55.4258
62.9379
71.8893
82.0875
35.5919
36.4148
38.0913
40.7374
44.4411
49.299
55.4257
62.9378
71.8893
82.0874
35.5918
36.4147
38.0913
40.7374
44.441
49.2989
55.4256
62.9377
71.8892
82.0873
35.5918
36.4147
38.0913
40.7373
44.441
49.2989
55.4256
62.9377
71.8892
82.0873
35.5918
36.4147
38.0912
40.7373
44.441
49.2989
55.4256
62.9377
71.8892
82.0873
35.5918
36.4147
38.0913
40.7374
44.441
49.2989
55.4256
62.9377
71.8892
82.0873
35.5918
36.4147
38.0913
40.7374
44.4411
49.299
55.4257
62.9378
71.8892
82.0874
35.5919
36.4148
38.0914
40.7375
44.4411
49.2991
55.4257
62.9379
71.8893
82.0874
35.592
36.4149
38.0914
40.7375
44.4412
49.2992
55.4258
62.938
71.8894
82.0876
33.3029
34.4971
36.3558
38.9876
42.4714
46.8714
52.2362
58.5764
65.8117
73.6718
33.3028
34.497
36.3557
38.9875
42.4713
46.8713
52.236
58.5763
65.8116
73.6717
33.3028
34.497
36.3557
38.9874
42.4712
46.8712
52.236
58.5762
65.8115
73.6716
33.3027
34.4969
36.3556
38.9874
42.4712
46.8712
52.2359
58.5762
65.8114
73.6715
33.3027
34.4969
36.3556
38.9874
42.4711
46.8712
52.2359
58.5761
65.8114
73.6715
33.3027
34.4969
36.3556
38.9874
42.4711
46.8712
52.2359
58.5761
65.8114
73.6715
33.3027
34.4969
36.3556
38.9874
42.4712
46.8712
52.2359
58.5761
65.8114
73.6715
33.3027
34.497
36.3557
38.9874
42.4712
46.8712
52.2359
58.5762
65.8115
73.6716
33.3028
34.497
36.3557
38.9875
42.4713
46.8713
52.236
58.5763
65.8116
73.6716
33.3029
34.4971
36.3558
38.9876
42.4714
46.8714
52.2361
58.5764
65.8117
73.6718
31.0376
32.4805
34.4529
37.0311
40.2693
44.1996
48.8258
54.1061
59.9235
66.0492
31.0375
32.4805
34.4528
37.031
40.2692
44.1995
48.8257
54.106
59.9234
66.0491
31.0375
32.4804
34.4527
37.0309
40.2691
44.1994
48.8256
54.1059
59.9233
66.049
31.0374
32.4803
34.4526
37.0309
40.2691
44.1994
48.8256
54.1058
59.9232
66.0489
31.0374
32.4803
34.4526
37.0308
40.269
44.1994
48.8255
54.1058
59.9232
66.0489
31.0374
32.4803
34.4526
37.0308
40.269
44.1994
48.8255
54.1058
59.9232
66.0489
31.0374
32.4803
34.4526
37.0309
40.269
44.1994
48.8256
54.1058
59.9232
66.0489
31.0375
32.4804
34.4527
37.0309
40.2691
44.1994
48.8256
54.1059
59.9233
66.049
31.0375
32.4804
34.4527
37.031
40.2692
44.1995
48.8257
54.106
59.9234
66.0491
31.0376
32.4805
34.4528
37.0311
40.2693
44.1996
48.8258
54.1061
59.9235
66.0492
28.869
30.498
32.5465
35.0559
38.0541
41.5469
45.5099
49.8776
54.5334
59.306
28.8689
30.4979
32.5464
35.0558
38.054
41.5468
45.5098
49.8775
54.5333
59.3059
28.8688
30.4979
32.5463
35.0558
38.0539
41.5467
45.5097
49.8774
54.5332
59.3058
28.8688
30.4978
32.5463
35.0557
38.0539
41.5467
45.5096
49.8773
54.5331
59.3057
28.8688
30.4978
32.5462
35.0557
38.0538
41.5467
45.5096
49.8773
54.5331
59.3057
28.8688
30.4978
32.5462
35.0557
38.0538
41.5467
45.5096
49.8773
54.5331
59.3057
28.8688
30.4978
32.5463
35.0557
38.0539
41.5467
45.5096
49.8773
54.5331
59.3057
28.8688
30.4979
32.5463
35.0558
38.0539
41.5467
45.5097
49.8774
54.5332
59.3058
28.8689
30.4979
32.5464
35.0558
38.054
41.5468
45.5098
49.8775
54.5333
59.3059
28.869
30.498
32.5464
35.0559
38.0541
41.5469
45.5099
49.8776
54.5334
59.306
26.85
28.6549
30.7767
33.2281
36.0175
39.1325
42.5301
46.1312
49.8228
53.4759
26.85
28.6549
30.7766
33.2281
36.0174
39.1324
42.53
46.1311
49.8227
53.4758
26.8499
28.6548
30.7765
33.228
36.0173
39.1323
42.5299
46.131
49.8226
53.4757
26.8499
28.6548
30.7765
33.2279
36.0173
39.1323
42.5299
46.1309
49.8226
53.4756
26.8499
28.6547
30.7765
33.2279
36.0173
39.1323
42.5299
46.1309
49.8226
53.4756
26.8499
28.6547
30.7765
33.2279
36.0173
39.1323
42.5299
46.1309
49.8226
53.4756
26.8499
28.6548
30.7765
33.2279
36.0173
39.1323
42.5299
46.1309
49.8226
53.4757
26.8499
28.6548
30.7765
33.228
36.0173
39.1323
42.53
46.131
49.8227
53.4757
26.85
28.6549
30.7766
33.2281
36.0174
39.1324
42.53
46.1311
49.8227
53.4758
26.85
28.6549
30.7767
33.2281
36.0175
39.1325
42.5301
46.1312
49.8229
53.4759
25.0258
27.0472
29.2688
31.6927
34.3224
37.1371
40.08
43.0551
45.9358
48.5981
25.0257
27.0471
29.2687
31.6926
34.3223
37.137
40.0799
43.055
45.9357
48.598
25.0257
27.0471
29.2686
31.6925
34.3223
37.1369
40.0798
43.055
45.9356
48.5979
25.0256
27.047
29.2686
31.6925
34.3222
37.1369
40.0797
43.0549
45.9356
48.5979
25.0256
27.047
29.2686
31.6925
34.3222
37.1369
40.0797
43.0549
45.9356
48.5979
25.0256
27.047
29.2686
31.6925
34.3222
37.1369
40.0797
43.0549
45.9356
48.5979
25.0256
27.047
29.2686
31.6925
34.3222
37.1369
40.0798
43.0549
45.9356
48.5979
25.0257
27.0471
29.2686
31.6925
34.3223
37.1369
40.0798
43.055
45.9357
48.598
25.0257
27.0471
29.2687
31.6926
34.3223
37.137
40.0799
43.0551
45.9357
48.598
25.0258
27.0472
29.2688
31.6927
34.3224
37.1371
40.08
43.0552
45.9359
48.5982
23.4537
25.7836
28.1436
30.5759
33.1037
35.7088
38.3232
40.8255
43.0408
44.7673
23.4536
25.7835
28.1435
30.5758
33.1037
35.7087
38.3231
40.8254
43.0407
44.7672
23.4536
25.7834
28.1435
30.5757
33.1036
35.7086
38.323
40.8253
43.0406
44.7671
23.4536
25.7834
28.1435
30.5757
33.1036
35.7086
38.323
40.8252
43.0405
44.767
23.4535
25.7834
28.1434
30.5757
33.1035
35.7085
38.323
40.8252
43.0405
44.767
23.4535
25.7834
28.1434
30.5757
33.1035
35.7085
38.323
40.8252
43.0405
44.767
23.4536
25.7834
28.1435
30.5757
33.1036
35.7086
38.323
40.8253
43.0405
44.767
23.4536
25.7834
28.1435
30.5758
33.1036
35.7086
38.3231
40.8253
43.0406
44.7671
23.4536
25.7835
28.1436
30.5758
33.1037
35.7087
38.3231
40.8254
43.0407
44.7672
23.4537
25.7836
28.1437
30.5759
33.1038
35.7088
38.3232
40.8255
43.0408
44.7673
22.2988
25.0259
27.5257
29.9831
32.4647
34.9614
37.3985
39.6273
41.3979
42.2825
22.2988
25.0259
27.5256
29.9831
32.4646
34.9614
37.3984
39.6272
41.3978
42.2824
22.2987
25.0258
27.5256
29.983
32.4646
34.9613
37.3983
39.6271
41.3977
42.2824
22.2987
25.0258
27.5255
29.983
32.4645
34.9613
37.3983
39.6271
41.3977
42.2823
22.2987
25.0258
27.5255
29.983
32.4645
34.9612
37.3983
39.627
41.3977
42.2823
22.2987
25.0258
27.5255
29.983
32.4645
34.9613
37.3983
39.627
41.3977
42.2823
22.2987
25.0258
27.5255
29.983
32.4646
34.9613
37.3983
39.6271
41.3977
42.2823
22.2987
25.0259
27.5256
29.983
32.4646
34.9613
37.3983
39.6271
41.3978
42.2824
22.2988
25.0259
27.5256
29.9831
32.4647
34.9614
37.3984
39.6272
41.3979
42.2825
22.2988
25.026
27.5257
29.9832
32.4648
34.9615
37.3985
39.6273
41.398
42.2826
124.812
137.24
144.902
150.294
154.304
157.327
159.576
161.177
162.207
162.711
124.812
137.24
144.902
150.294
154.304
157.327
159.576
161.177
162.207
162.711
124.812
137.24
144.901
150.294
154.304
157.327
159.576
161.177
162.207
162.711
124.812
137.24
144.901
150.294
154.304
157.327
159.576
161.177
162.207
162.711
124.812
137.24
144.901
150.294
154.304
157.327
159.576
161.177
162.207
162.711
124.812
137.24
144.901
150.294
154.304
157.327
159.576
161.177
162.207
162.711
124.812
137.24
144.901
150.294
154.304
157.327
159.576
161.177
162.207
162.711
124.812
137.24
144.901
150.294
154.304
157.327
159.576
161.177
162.207
162.711
124.812
137.24
144.901
150.294
154.304
157.327
159.576
161.177
162.207
162.711
124.812
137.24
144.902
150.294
154.304
157.327
159.576
161.177
162.207
162.711
106.244
117.392
125.305
131.073
135.374
138.6
140.986
142.676
143.76
144.29
106.244
117.392
125.305
131.073
135.374
138.599
140.985
142.676
143.76
144.29
106.244
117.392
125.305
131.073
135.373
138.599
140.985
142.676
143.76
144.29
106.244
117.392
125.305
131.073
135.373
138.599
140.985
142.676
143.76
144.29
106.243
117.392
125.305
131.073
135.373
138.599
140.985
142.676
143.76
144.29
106.243
117.392
125.305
131.073
135.373
138.599
140.985
142.676
143.76
144.29
106.244
117.392
125.305
131.073
135.373
138.599
140.985
142.676
143.76
144.29
106.244
117.392
125.305
131.073
135.373
138.599
140.985
142.676
143.76
144.29
106.244
117.392
125.305
131.073
135.374
138.599
140.985
142.676
143.76
144.29
106.244
117.392
125.305
131.073
135.374
138.6
140.986
142.676
143.76
144.29
92.6755
101.657
108.745
114.223
118.431
121.634
124.02
125.717
126.807
127.34
92.6753
101.657
108.745
114.223
118.431
121.634
124.02
125.717
126.806
127.34
92.6752
101.657
108.744
114.223
118.431
121.634
124.02
125.717
126.806
127.34
92.6752
101.657
108.744
114.223
118.431
121.634
124.02
125.717
126.806
127.34
92.6751
101.657
108.744
114.223
118.431
121.634
124.02
125.717
126.806
127.339
92.6751
101.657
108.744
114.223
118.431
121.634
124.02
125.717
126.806
127.339
92.6752
101.657
108.744
114.223
118.431
121.634
124.02
125.717
126.806
127.34
92.6752
101.657
108.744
114.223
118.431
121.634
124.02
125.717
126.806
127.34
92.6753
101.657
108.745
114.223
118.431
121.634
124.02
125.717
126.807
127.34
92.6754
101.657
108.745
114.223
118.431
121.634
124.02
125.717
126.807
127.34
81.5776
88.6974
94.6899
99.5537
103.415
106.417
108.684
110.31
111.359
111.874
81.5775
88.6973
94.6898
99.5536
103.415
106.417
108.684
110.31
111.359
111.874
81.5774
88.6972
94.6897
99.5535
103.415
106.417
108.684
110.31
111.359
111.874
81.5773
88.6971
94.6896
99.5534
103.414
106.417
108.684
110.31
111.359
111.874
81.5773
88.6971
94.6896
99.5534
103.414
106.417
108.684
110.31
111.359
111.874
81.5773
88.6971
94.6896
99.5534
103.414
106.417
108.684
110.31
111.359
111.874
81.5773
88.6971
94.6896
99.5534
103.414
106.417
108.684
110.31
111.359
111.874
81.5774
88.6972
94.6897
99.5535
103.415
106.417
108.684
110.31
111.359
111.874
81.5774
88.6973
94.6898
99.5536
103.415
106.417
108.684
110.31
111.359
111.874
81.5776
88.6974
94.6899
99.5537
103.415
106.417
108.684
110.31
111.36
111.874
72.1259
77.7435
82.6584
86.7954
90.1775
92.8662
94.9288
96.4239
97.3961
97.8749
72.1257
77.7434
82.6582
86.7953
90.1774
92.866
94.9286
96.4237
97.3959
97.8748
72.1256
77.7433
82.6581
86.7952
90.1773
92.8659
94.9285
96.4236
97.3959
97.8748
72.1256
77.7432
82.6581
86.7951
90.1772
92.8659
94.9285
96.4236
97.3958
97.8747
72.1255
77.7432
82.658
86.7951
90.1772
92.8658
94.9284
96.4235
97.3958
97.8747
72.1255
77.7432
82.658
86.7951
90.1772
92.8658
94.9284
96.4236
97.3958
97.8747
72.1256
77.7433
82.6581
86.7951
90.1772
92.8659
94.9285
96.4236
97.3958
97.8747
72.1256
77.7433
82.6581
86.7952
90.1773
92.866
94.9286
96.4237
97.3959
97.8748
72.1257
77.7434
82.6582
86.7953
90.1774
92.8661
94.9287
96.4238
97.396
97.8749
72.1258
77.7435
82.6584
86.7954
90.1775
92.8662
94.9288
96.4239
97.3962
97.8751
63.9843
68.3619
72.2898
75.6909
78.5443
80.8617
82.6693
83.9954
84.8649
85.2952
63.9842
68.3618
72.2897
75.6908
78.5442
80.8616
82.6691
83.9953
84.8648
85.2951
63.9841
68.3617
72.2896
75.6907
78.5441
80.8615
82.6691
83.9952
84.8647
85.295
63.9841
68.3616
72.2895
75.6906
78.544
80.8615
82.669
83.9952
84.8646
85.295
63.984
68.3616
72.2895
75.6906
78.544
80.8614
82.669
83.9951
84.8646
85.2949
63.984
68.3616
72.2895
75.6906
78.544
80.8614
82.669
83.9952
84.8646
85.2949
63.9841
68.3616
72.2895
75.6906
78.544
80.8615
82.669
83.9952
84.8647
85.295
63.9841
68.3617
72.2896
75.6907
78.5441
80.8616
82.6691
83.9953
84.8647
85.2951
63.9842
68.3618
72.2897
75.6908
78.5442
80.8617
82.6692
83.9954
84.8649
85.2952
63.9843
68.3619
72.2898
75.6909
78.5443
80.8618
82.6693
83.9955
84.865
85.2953
56.9818
60.2851
63.3177
66.0167
68.3407
70.2702
71.8017
72.9402
73.6932
74.0679
56.9817
60.285
63.3176
66.0166
68.3406
70.2701
71.8016
72.94
73.6931
74.0678
56.9816
60.2849
63.3175
66.0165
68.3405
70.27
71.8015
72.9399
73.693
74.0677
56.9815
60.2848
63.3174
66.0165
68.3404
70.27
71.8015
72.9399
73.693
74.0676
56.9815
60.2848
63.3174
66.0164
68.3404
70.2699
71.8014
72.9399
73.693
74.0676
56.9815
60.2848
63.3174
66.0164
68.3404
70.2699
71.8015
72.9399
73.693
74.0676
56.9816
60.2848
63.3174
66.0165
68.3404
70.27
71.8015
72.9399
73.693
74.0677
56.9816
60.2849
63.3175
66.0165
68.3405
70.27
71.8016
72.94
73.6931
74.0678
56.9817
60.285
63.3176
66.0166
68.3406
70.2701
71.8017
72.9401
73.6932
74.0679
56.9818
60.2851
63.3177
66.0168
68.3407
70.2703
71.8018
72.9402
73.6933
74.068
51.0039
53.3154
55.5283
57.5781
59.4019
60.9556
62.2131
63.1613
63.7947
64.1116
51.0038
53.3153
55.5282
57.5779
59.4018
60.9554
62.213
63.1612
63.7946