/*--------------------------------*- C++ -*----------------------------------*\
  =========                 |
  \\      /  F ield         | OpenFOAM: The Open Source CFD Toolbox
   \\    /   O peration     | Website:  https://openfoam.org
    \\  /    A nd           | Version:  6
     \\/     M anipulation  |
\*---------------------------------------------------------------------------*/
FoamFile
{
    version     2.0;
    format      ascii;
    class       volScalarField;
    location    "1300";
    object      p;
}
// * * * * * * * * * * * * * * * * * * * * * * * * * * * * * * * * * * * * * //

dimensions      [0 2 -2 0 0 0 0];

internalField   nonuniform List<scalar> 
7000
(
0.0443803
0.0421784
0.0416886
0.0415029
0.0414459
0.0415231
0.0417273
0.0420387
0.0426288
0.0449647
0.0421188
0.0399156
0.0394273
0.0392425
0.0391865
0.0392652
0.0394715
0.0397848
0.0403756
0.0427155
0.0415807
0.0393786
0.0388905
0.0387062
0.038651
0.0387307
0.0389382
0.0392528
0.0398449
0.0421848
0.0413306
0.0391285
0.0386404
0.0384565
0.038402
0.0384824
0.0386907
0.0390061
0.0395988
0.0419391
0.0411941
0.0389914
0.0385032
0.0383192
0.0382647
0.0383453
0.0385538
0.0388692
0.0394619
0.0418015
0.0411836
0.03898
0.0384913
0.0383069
0.0382518
0.0383318
0.0385397
0.0388545
0.0394463
0.0417839
0.0413004
0.0390958
0.0386064
0.0384211
0.0383649
0.0384437
0.0386503
0.0389639
0.0395543
0.0418891
0.0415343
0.0393284
0.0388382
0.0386518
0.0385943
0.0386718
0.0388769
0.039189
0.039778
0.04211
0.04206
0.0398519
0.039361
0.0391736
0.0391149
0.0391908
0.0393943
0.039705
0.0402924
0.0426227
0.0443065
0.0420985
0.0416052
0.041416
0.0413552
0.0414286
0.0416293
0.0419375
0.0425235
0.0448478
0.0414316
0.0400621
0.0401138
0.0399353
0.0398808
0.0399633
0.0401769
0.0404936
0.0405375
0.0420593
0.0399965
0.0386263
0.0386816
0.0385031
0.0384496
0.0385338
0.0387498
0.0390696
0.0391128
0.0406384
0.0400032
0.0386361
0.0386909
0.0385132
0.0384606
0.0385462
0.038764
0.0390856
0.0391315
0.0406554
0.0397556
0.0383874
0.0384425
0.0382653
0.0382134
0.0382998
0.0385186
0.0388411
0.038888
0.0404126
0.0396162
0.038247
0.0383019
0.0381245
0.0380724
0.0381588
0.0383775
0.0386999
0.038747
0.0402697
0.0396051
0.0382346
0.038289
0.0381109
0.0380578
0.0381431
0.0383606
0.0386817
0.0387277
0.0402466
0.0397237
0.0383517
0.0384054
0.038226
0.0381714
0.0382548
0.0384702
0.0387892
0.0388333
0.040347
0.0399543
0.0385813
0.038634
0.038453
0.0383966
0.038478
0.038691
0.0390078
0.0390499
0.0405579
0.039936
0.0385585
0.0386115
0.0384294
0.0383716
0.0384512
0.0386623
0.0389773
0.0390167
0.040524
0.0413529
0.0399742
0.0400225
0.0398386
0.0397779
0.0398538
0.0400608
0.0403712
0.0404105
0.0419112
0.0389613
0.0381952
0.0385714
0.0384155
0.0384256
0.038519
0.0386897
0.0390055
0.0387277
0.0396839
0.038117
0.0373539
0.0377361
0.0375796
0.0375918
0.0376881
0.0378628
0.0381853
0.0379071
0.0388679
0.0384491
0.0376911
0.0380721
0.037917
0.0379306
0.0380291
0.0382067
0.0385321
0.0382593
0.039218
0.0382158
0.0374556
0.0378373
0.0376829
0.0376973
0.0377971
0.0379763
0.0383035
0.0380324
0.0389935
0.0381309
0.0373695
0.037751
0.0375962
0.0376102
0.0377097
0.0378889
0.0382159
0.0379451
0.0389027
0.0381186
0.0373553
0.0377361
0.0375801
0.0375925
0.0376902
0.0378671
0.0381918
0.0379192
0.0388696
0.0381804
0.0374145
0.0377943
0.0376365
0.0376465
0.0377411
0.0379143
0.0382351
0.0379592
0.0389004
0.0383949
0.0376284
0.0380067
0.0378466
0.0378539
0.0379452
0.0381145
0.0384313
0.0381523
0.0390827
0.0380513
0.0372776
0.0376571
0.0374953
0.0375006
0.0375894
0.0377558
0.03807
0.0377865
0.0387155
0.0388708
0.0380912
0.0384631
0.0382994
0.0383
0.0383833
0.0385437
0.0388501
0.0385666
0.0394892
0.0376668
0.0371393
0.0375406
0.0373816
0.0374744
0.0375853
0.0377071
0.0380607
0.0377722
0.038545
0.0370453
0.0365239
0.0369323
0.0367728
0.0368702
0.0369868
0.0371163
0.0374836
0.0372005
0.0379859
0.0373993
0.0368839
0.0372905
0.0371334
0.0372332
0.0373538
0.0374887
0.0378616
0.0375887
0.0383763
0.0371499
0.0366309
0.0370389
0.0368827
0.0369838
0.0371066
0.0372448
0.0376217
0.0373527
0.0381462
0.0371317
0.0366116
0.0370192
0.0368623
0.0369627
0.0370851
0.0372232
0.0376
0.0373318
0.0381186
0.0371173
0.0365944
0.0370009
0.036842
0.0369397
0.0370588
0.0371929
0.0375653
0.0372933
0.0380664
0.0371081
0.0365807
0.0369858
0.0368239
0.0369175
0.0370313
0.0371587
0.0375237
0.037245
0.038001
0.0373358
0.0368076
0.0372101
0.0370448
0.037134
0.0372421
0.0373626
0.0377199
0.0374352
0.038171
0.0369696
0.0364326
0.0368369
0.0366685
0.0367547
0.0368588
0.0369742
0.0373271
0.0370345
0.0377644
0.0375574
0.0370102
0.0374052
0.0372342
0.0373124
0.0374079
0.0375144
0.0378543
0.0375595
0.0382786
0.0367488
0.0363409
0.0366924
0.0365312
0.0366878
0.0368218
0.0369247
0.0373263
0.0371104
0.0378357
0.0362297
0.0358304
0.0361899
0.0360291
0.0361945
0.0363401
0.0364585
0.0368869
0.0366906
0.0374524
0.0365283
0.036135
0.0364923
0.0363354
0.0365049
0.0366575
0.0367862
0.0372263
0.037049
0.0378261
0.0362592
0.0358613
0.0362207
0.036065
0.0362368
0.0363935
0.0365288
0.0369776
0.0368097
0.0376008
0.0362836
0.0358846
0.0362432
0.0360865
0.0362571
0.0364133
0.0365485
0.0369978
0.0368319
0.037612
0.0362665
0.0358633
0.0362202
0.0360601
0.0362262
0.0363767
0.0365049
0.036946
0.0367722
0.0375253
0.0362088
0.0357986
0.0361534
0.0359884
0.0361475
0.0362889
0.0364053
0.0368325
0.0366448
0.037364
0.0364516
0.0360398
0.0363905
0.0362203
0.0363722
0.036504
0.0366081
0.037021
0.0368207
0.0375031
0.0361393
0.035718
0.0360707
0.0358957
0.0360429
0.0361681
0.0362634
0.0366679
0.036455
0.0371203
0.0366159
0.0361802
0.0365223
0.036343
0.0364779
0.03659
0.0366718
0.0370568
0.0368353
0.0374827
0.0357225
0.0354356
0.0357671
0.0356288
0.035833
0.0359941
0.0361012
0.0365335
0.0363639
0.0370591
0.0353064
0.0350315
0.035372
0.035237
0.0354566
0.0356395
0.0357778
0.0362613
0.0361411
0.0369288
0.0355784
0.0353093
0.0356481
0.0355189
0.0357453
0.0359404
0.0360978
0.0366055
0.0365224
0.0373581
0.0353125
0.0350382
0.0353798
0.0352524
0.0354829
0.0356858
0.035856
0.0363826
0.0363216
0.037193
0.0353601
0.0350844
0.0354247
0.0352957
0.0355247
0.0357269
0.0358976
0.036426
0.0363694
0.0372234
0.0353399
0.0350582
0.0353959
0.0352618
0.0354834
0.0356761
0.0358344
0.0363471
0.0362732
0.0370707
0.035252
0.0349606
0.035295
0.035153
0.0353635
0.035541
0.0356787
0.0361652
0.0360619
0.0367882
0.0354859
0.0351913
0.0355198
0.0353701
0.035569
0.0357306
0.0358472
0.0363071
0.0361788
0.0368352
0.035199
0.0348936
0.0352238
0.035067
0.0352588
0.0354099
0.0355118
0.0359569
0.0358072
0.0364298
0.0355636
0.0352391
0.0355573
0.0353935
0.0355677
0.0356997
0.0357816
0.0361979
0.0360333
0.036625
0.0346043
0.0344312
0.034756
0.0346561
0.0348991
0.0350884
0.0352099
0.0356589
0.0355151
0.0361969
0.0342839
0.0341271
0.0344629
0.0343713
0.0346398
0.0348679
0.0350482
0.0355913
0.0355546
0.0364475
0.0345428
0.0343919
0.034727
0.0346441
0.0349237
0.0351723
0.0353866
0.0359778
0.0360152
0.0370371
0.0342947
0.0341383
0.0344774
0.0343973
0.0346841
0.0349465
0.0351849
0.035815
0.0359058
0.0370214
0.0343558
0.0341972
0.0345344
0.0344521
0.0347366
0.0349983
0.0352384
0.0358734
0.0359742
0.0370635
0.0343323
0.0341656
0.0344989
0.0344087
0.0346817
0.0349277
0.0351458
0.0357512
0.035814
0.0367818
0.0342236
0.0340438
0.0343722
0.0342701
0.0345256
0.0347465
0.0349288
0.0354855
0.0354873
0.0363012
0.0344337
0.0342482
0.0345684
0.0344549
0.0346924
0.0348881
0.035035
0.0355446
0.0354943
0.0361759
0.0341583
0.0339609
0.0342819
0.0341586
0.0343855
0.034565
0.034689
0.0351721
0.0350892
0.0357051
0.0344189
0.0341965
0.0345036
0.0343691
0.0345721
0.0347251
0.0348201
0.0352658
0.0351589
0.0357349
0.0334888
0.0334027
0.0337103
0.0336476
0.0339185
0.0341316
0.0342682
0.0347245
0.0345919
0.0352628
0.0332383
0.033173
0.0334944
0.0334477
0.0337588
0.0340369
0.0342768
0.0349002
0.034977
0.0361037
0.0334755
0.0334161
0.0337384
0.033704
0.0340326
0.0343439
0.0346422
0.0353586
0.0355971
0.0370787
0.033246
0.0331813
0.0335088
0.033479
0.0338194
0.0341543
0.0344964
0.0352921
0.0356581
0.0373981
0.033313
0.0332447
0.0335698
0.0335369
0.0338741
0.034208
0.0345533
0.0353597
0.0357464
0.0374418
0.0332863
0.0332072
0.0335267
0.0334822
0.0338016
0.0341095
0.0344164
0.035165
0.0354657
0.0368722
0.0331646
0.0330687
0.033381
0.033319
0.0336117
0.0338796
0.0341254
0.0347833
0.0349532
0.0360089
0.03335
0.0332449
0.0335463
0.033468
0.033734
0.0339628
0.0341512
0.0347248
0.0347919
0.0355834
0.0330958
0.0329772
0.033278
0.0331866
0.0334374
0.0336428
0.0337961
0.0343276
0.0343425
0.0350266
0.0332778
0.033129
0.0334141
0.0333067
0.0335266
0.0336968
0.0338121
0.0342976
0.0342926
0.0349333
0.032375
0.0323514
0.0326323
0.0326004
0.0328851
0.0331111
0.033251
0.0336884
0.0335103
0.0340887
0.0321728
0.0321749
0.0324733
0.0324679
0.0328126
0.0331401
0.0334479
0.0341577
0.0343418
0.0357412
0.032382
0.03239
0.0326915
0.0327029
0.0330736
0.0334523
0.0338552
0.0347351
0.0352585
0.0376054
0.0321694
0.0321725
0.0324806
0.0324992
0.0328884
0.0333052
0.0337837
0.0348134
0.0356226
0.0386407
0.0322356
0.0322335
0.0325385
0.0325528
0.0329371
0.0333514
0.0338337
0.0348827
0.035739
0.0386788
0.0322062
0.0321899
0.0324872
0.0324847
0.032842
0.0332144
0.0336295
0.0345735
0.0352517
0.0375305
0.0320785
0.0320413
0.0323283
0.0323012
0.0326193
0.0329294
0.0332433
0.0340262
0.0344414
0.0359402
0.032242
0.0321913
0.0324643
0.0324147
0.0326947
0.0329467
0.0331702
0.0338127
0.0340288
0.0350021
0.0320157
0.0319505
0.0322216
0.0321553
0.0324146
0.032634
0.0328084
0.0333865
0.0335237
0.034335
0.0321431
0.0320415
0.0322949
0.0322068
0.0324281
0.0326042
0.0327331
0.0332676
0.0334114
0.0342556
0.0312203
0.0312444
0.0314963
0.0314883
0.0317692
0.0319869
0.0320978
0.0324643
0.0321797
0.0322717
0.0310557
0.0311104
0.0313841
0.0314153
0.0317797
0.0321437
0.0325027
0.0332687
0.0335311
0.0350242
0.0312392
0.0312998
0.0315791
0.0316316
0.0320321
0.0324703
0.0329781
0.0340343
0.0350342
0.0391572
0.0310445
0.0311008
0.0313883
0.0314512
0.0318784
0.0323744
0.0330033
0.0343205
0.0359229
0.0416642
0.0311066
0.0311554
0.031439
0.0314959
0.0319154
0.032405
0.0330332
0.0343755
0.0360545
0.0416514
0.0310752
0.0311062
0.0313795
0.0314131
0.0317936
0.0322178
0.0327333
0.0338912
0.0351893
0.0391881
0.0309466
0.0309521
0.0312117
0.0312122
0.0315379
0.03187
0.0322267
0.033114
0.0338824
0.0360827
0.031088
0.0310756
0.0313178
0.0312886
0.0315628
0.0318132
0.0320368
0.0327033
0.0330908
0.034237
0.0308893
0.0308604
0.0310991
0.0310498
0.0312977
0.0315064
0.0316662
0.0322448
0.0325244
0.0334954
0.0309731
0.0309033
0.0311227
0.0310462
0.03125
0.0314106
0.031525
0.0320802
0.0324752
0.0337265
0.0299992
0.03006
0.0302826
0.0302907
0.0305491
0.03073
0.0307676
0.0309627
0.0303534
0.0291377
0.0298663
0.0299629
0.0302119
0.0302722
0.0306376
0.0310088
0.0313724
0.0320615
0.0320022
0.0326559
0.030029
0.0301314
0.0303884
0.0304742
0.0308854
0.0313561
0.0319382
0.0330791
0.0341621
0.0402185
0.0298539
0.0299526
0.0302194
0.0303189
0.0307658
0.0313164
0.0320754
0.0335938
0.0355842
0.0446985
0.0299107
0.0299995
0.0302614
0.0303525
0.0307875
0.0313246
0.0320667
0.033601
0.0357338
0.0445862
0.0298785
0.0299457
0.0301945
0.0302551
0.0306371
0.0310802
0.0316439
0.0328865
0.0345064
0.0405094
0.0297524
0.0297895
0.0300211
0.0300396
0.03035
0.0306672
0.0309983
0.0318399
0.0326839
0.0354806
0.0298728
0.0298872
0.0300983
0.0300799
0.0303252
0.0305354
0.0306849
0.0312209
0.031503
0.032517
0.0296979
0.0296953
0.0299019
0.0298607
0.0300754
0.0302369
0.0303124
0.0307499
0.0309055
0.0318591
0.0297482
0.0296993
0.0298851
0.0298121
0.0299789
0.0300924
0.0301363
0.0305905
0.0310907
0.0331373
0.0287087
0.0287975
0.0289909
0.0290085
0.0292302
0.0293476
0.029268
0.0292204
0.0280622
0.0250789
0.0286036
0.0287324
0.0289557
0.0290358
0.029381
0.0297131
0.0299865
0.0304086
0.0294047
0.0276366
0.0287489
0.0288832
0.0291159
0.0292235
0.0296196
0.030064
0.0306018
0.031559
0.0314246
0.0353449
0.028594
0.0287253
0.0289689
0.0290926
0.0295307
0.0300686
0.03081
0.0321614
0.0327109
0.0394408
0.0286459
0.0287647
0.0290026
0.0291148
0.0295353
0.0300491
0.0307416
0.032048
0.0327799
0.0387058
0.028615
0.0287087
0.0289311
0.0290062
0.029361
0.0297571
0.0302141
0.0311491
0.0316025
0.0347577
0.0284947
0.0285544
0.0287568
0.0287823
0.0290517
0.0292969
0.0294678
0.0299277
0.0297768
0.0298455
0.0285958
0.0286288
0.0288085
0.0287911
0.0289849
0.0291054
0.0290616
0.0291924
0.0285869
0.0272026
0.0284441
0.0284589
0.0286335
0.028592
0.0287534
0.028823
0.0287071
0.0287604
0.0281102
0.0272334
0.0284661
0.0284318
0.0285852
0.0285088
0.028621
0.0286487
0.0285336
0.0286689
0.0285461
0.0300051
0.0273469
0.0274564
0.0276222
0.0276482
0.0278356
0.027891
0.02769
0.027456
0.0259483
0.0209998
0.0272653
0.0274182
0.0276155
0.0277095
0.0280247
0.0282906
0.0284149
0.0285597
0.0269946
0.0230994
0.0273958
0.0275533
0.0277601
0.0278803
0.0282434
0.0286147
0.029001
0.0297348
0.028749
0.0308144
0.027261
0.027416
0.0276342
0.0277708
0.0281763
0.0286388
0.0292124
0.0302689
0.0295756
0.0331814
0.0273092
0.0274496
0.0276614
0.0277831
0.0281644
0.0285926
0.0290835
0.0299986
0.0294461
0.0318768
0.0272822
0.027395
0.0275902
0.0276701
0.0279778
0.0282797
0.0285134
0.0289972
0.0283289
0.0282292
0.0271713
0.0272475
0.0274214
0.027447
0.0276625
0.0278064
0.0277372
0.0277065
0.0265524
0.023484
0.027258
0.0273045
0.0274545
0.0274336
0.0275682
0.0275807
0.0272822
0.0269067
0.0253912
0.0211809
0.0271289
0.0271582
0.027304
0.0272598
0.0273633
0.0273271
0.0269593
0.0265203
0.024955
0.021567
0.027133
0.0271099
0.0272348
0.0271545
0.0272102
0.0271374
0.0268031
0.0265021
0.0253459
0.0244375
0.0259153
0.0260428
0.0261872
0.0262316
0.0264153
0.0264778
0.026283
0.0261364
0.0251434
0.0201846
0.0258551
0.0260276
0.0262027
0.0263159
0.026623
0.0268817
0.0269835
0.0272106
0.0262267
0.022929
0.0259731
0.0261488
0.0263325
0.0264681
0.0268169
0.027171
0.0275356
0.0284712
0.0281212
0.0315476
0.0258582
0.0260322
0.0262273
0.0263785
0.0267665
0.0272029
0.0277235
0.0289034
0.0286341
0.0323357
0.0259051
0.0260629
0.026252
0.0263856
0.0267433
0.0271361
0.0275406
0.0284436
0.0281247
0.0299877
0.0258853
0.0260146
0.0261878
0.026278
0.0265587
0.0268233
0.0269531
0.0273033
0.0266826
0.0256265
0.0257876
0.0258798
0.0260325
0.0260674
0.0262539
0.0263602
0.0261742
0.0259116
0.0246825
0.0203468
0.0258635
0.0259248
0.0260543
0.0260412
0.026144
0.0261148
0.0256809
0.0250049
0.0233343
0.0179805
0.0257584
0.0258034
0.0259299
0.0258953
0.0259683
0.0258879
0.0253664
0.0245986
0.0227106
0.0179668
0.025749
0.0257415
0.0258484
0.025777
0.0258021
0.0256783
0.025185
0.0245653
0.0228028
0.0198923
0.0244079
0.0245514
0.0246822
0.0247606
0.0249846
0.0251567
0.025146
0.0252901
0.0252598
0.0214975
0.0243668
0.0245562
0.0247156
0.0248612
0.0252011
0.0255521
0.0258151
0.0264149
0.0265943
0.0258863
0.0244747
0.0246659
0.0248328
0.0249971
0.025374
0.0258173
0.0263673
0.0278582
0.0291201
0.036505
0.0243801
0.0245704
0.0247491
0.0249282
0.0253404
0.0258595
0.0265514
0.0282723
0.0298108
0.0371203
0.0244286
0.0246025
0.0247765
0.0249365
0.025312
0.0257796
0.026334
0.0276481
0.0287959
0.033338
0.0244196
0.0245661
0.0247268
0.0248437
0.0251397
0.0254762
0.0257356
0.0263289
0.0266879
0.0271805
0.0243389
0.0244499
0.0245928
0.0246559
0.0248577
0.0250363
0.0249646
0.0248061
0.0243162
0.0211281
0.0244101
0.0244906
0.024612
0.0246275
0.0247443
0.0247841
0.0244489
0.0237866
0.0226356
0.0184379
0.0243289
0.0243969
0.0245178
0.0245147
0.0246046
0.0245908
0.0241381
0.0233271
0.021704
0.0171341
0.024316
0.0243311
0.0244346
0.0243952
0.024439
0.024371
0.0239066
0.0232304
0.0215268
0.0177138
0.0228267
0.0229831
0.0231038
0.0232229
0.0235071
0.0238389
0.0240988
0.0245488
0.0253374
0.0228993
0.0228042
0.0230058
0.0231518
0.0233339
0.0237228
0.0242085
0.0246995
0.0256617
0.0266062
0.0282016
0.0229043
0.0231062
0.0232589
0.0234567
0.0238806
0.0244606
0.0252674
0.0272589
0.0299375
0.0412464
0.0228302
0.0230328
0.0231983
0.0234117
0.0238701
0.0245292
0.0254972
0.0277885
0.0313743
0.0436186
0.0228833
0.0230709
0.0232347
0.0234305
0.0238498
0.0244556
0.025295
0.0271218
0.0299431
0.0385488
0.0228886
0.0230522
0.0232072
0.0233641
0.0237056
0.0241824
0.0247304
0.0257184
0.0271595
0.0302901
0.0228286
0.0229607
0.0231029
0.0232119
0.0234656
0.0237959
0.0240381
0.0242113
0.0246289
0.0243268
0.0228985
0.0230031
0.023128
0.0231936
0.0233675
0.0235682
0.0235591
0.0232131
0.022764
0.0212134
0.0228431
0.0229392
0.0230677
0.0231203
0.0232756
0.0234309
0.0232809
0.0227459
0.0216828
0.0182196
0.0228304
0.0228774
0.0229934
0.0230135
0.0231294
0.0232319
0.0230298
0.0226311
0.0215577
0.0178051
0.0211648
0.0213219
0.0214248
0.0215694
0.02189
0.0223516
0.022864
0.0235482
0.0250922
0.0243295
0.0211595
0.0213603
0.0214837
0.0216825
0.0220883
0.0226562
0.0232855
0.0243474
0.0253013
0.0270791
0.0212534
0.0214536
0.0215826
0.0217942
0.0222327
0.0228883
0.0238115
0.0258306
0.0287776
0.040795
0.0212
0.0214033
0.0215469
0.0217776
0.0222538
0.0229943
0.0241125
0.0265354
0.0312563
0.0463904
0.0212611
0.0214525
0.0215995
0.0218184
0.0222597
0.022952
0.0239827
0.0260386
0.0298158
0.0413445
0.0212842
0.0214576
0.0216028
0.0217926
0.0221665
0.0227451
0.0235467
0.0248357
0.0267703
0.0320519
0.0212482
0.0213973
0.0215381
0.0216924
0.021997
0.0224654
0.0230718
0.0237008
0.0245686
0.0273312
0.0213231
0.02145
0.0215805
0.0217013
0.0219427
0.0223154
0.0227425
0.0229842
0.0230334
0.02426
0.0212935
0.0214196
0.0215607
0.0216786
0.0219174
0.0222751
0.0225771
0.0226395
0.0223428
0.0204099
0.0212909
0.0213724
0.021509
0.0216039
0.0218237
0.022167
0.0224361
0.0226796
0.0228817
0.0202058
0.0194291
0.019566
0.0196325
0.0197659
0.0200617
0.0205679
0.0212644
0.0221788
0.0250854
0.028842
0.0194403
0.0196176
0.0196964
0.0198668
0.02021
0.0207303
0.0213205
0.0221879
0.0229781
0.0243629
0.0195287
0.0197043
0.0197867
0.0199634
0.020328
0.0209006
0.0216602
0.0230361
0.0248336
0.0337625
0.0194953
0.0196772
0.019776
0.019976
0.0203831
0.0210398
0.0220027
0.0238126
0.0280177
0.0422208
0.0195666
0.019742
0.0198505
0.0200497
0.0204375
0.0210621
0.0220136
0.0237548
0.027287
0.0392461
0.0196097
0.0197756
0.0198922
0.0200798
0.0204273
0.0209792
0.0218389
0.0231937
0.0248592
0.030705
0.0196002
0.0197519
0.0198765
0.0200504
0.0203669
0.0208797
0.0217394
0.0228718
0.0236828
0.0282112
0.0196824
0.0198205
0.0199458
0.0201043
0.0203906
0.020878
0.0217079
0.0227715
0.0233872
0.0272863
0.0196804
0.0198259
0.0199714
0.0201429
0.0204526
0.0209865
0.0217797
0.0227348
0.0238356
0.0248226
0.0196906
0.0198026
0.0199572
0.0201257
0.0204547
0.0210597
0.0219251
0.0231451
0.0256248
0.0268298
0.0176222
0.0177092
0.0177136
0.0177858
0.0179723
0.0183932
0.0192144
0.0202781
0.0247905
0.0416535
0.0176471
0.0177699
0.0177754
0.0178567
0.0180319
0.0183357
0.0187358
0.0191375
0.0199903
0.0273641
0.0177298
0.01785
0.0178551
0.0179311
0.0181057
0.0184002
0.0187409
0.0188783
0.0185988
0.0266692
0.0177155
0.0178459
0.0178692
0.017973
0.0181974
0.0185727
0.0190635
0.0194574
0.0213036
0.0345162
0.0177988
0.0179307
0.0179719
0.0180916
0.0183292
0.0187081
0.019262
0.0200313
0.0221196
0.0352999
0.0178636
0.0179978
0.0180601
0.0181945
0.01844
0.0188116
0.0194305
0.0205081
0.0216496
0.0299822
0.0178826
0.0180159
0.0181026
0.0182552
0.0185265
0.0189491
0.0197869
0.0213057
0.0222017
0.0307707
0.0179769
0.0181073
0.0182093
0.0183723
0.0186599
0.0191495
0.0201705
0.0220725
0.0237124
0.0342043
0.0180007
0.0181504
0.018284
0.0184799
0.0188189
0.0194251
0.0205647
0.0224431
0.0255459
0.0359313
0.0180327
0.0181598
0.0183189
0.0185384
0.0189427
0.0197255
0.0211387
0.0233274
0.0285093
0.0413368
0.0157725
0.0157817
0.0157029
0.0156673
0.0156697
0.0158396
0.016673
0.0179396
0.0212498
0.0511655
0.0158091
0.0158475
0.0157559
0.0156946
0.0156123
0.0155195
0.0155957
0.0156523
0.0145801
0.0306372
0.0158845
0.0159188
0.0158214
0.0157391
0.0156227
0.0154436
0.0151936
0.0140629
0.00949727
0.018112
0.0158864
0.0159357
0.0158578
0.0158048
0.0157431
0.015639
0.0154213
0.0140686
0.0102038
0.0210653
0.0159813
0.0160419
0.0159905
0.0159715
0.0159666
0.0159322
0.0158331
0.0152598
0.0133085
0.0270496
0.0160666
0.0161431
0.0161263
0.0161515
0.0162174
0.0162705
0.0163818
0.0169896
0.0167362
0.0308701
0.0161132
0.016204
0.0162286
0.0163066
0.0164638
0.0166623
0.0171691
0.0189876
0.019714
0.0357686
0.0162183
0.0163183
0.0163731
0.0164905
0.016713
0.0170641
0.0179704
0.0206524
0.0226457
0.0421875
0.0162668
0.0163954
0.0164911
0.0166602
0.0169548
0.0174646
0.0186713
0.0213895
0.0251247
0.0486777
0.016319
0.0164412
0.0165806
0.0168036
0.0172057
0.0179765
0.0196586
0.0225603
0.0275987
0.0532042
0.0293542
0.0326234
0.0309601
0.0271925
0.0247547
0.024268
0.024818
0.0255074
0.0265856
0.0264522
0.0331297
0.0352915
0.0325571
0.0279741
0.024732
0.0238737
0.0247171
0.0262155
0.0280977
0.0289185
0.0418667
0.0388244
0.0325505
0.0272662
0.0239984
0.0231776
0.0243716
0.0266559
0.0292492
0.0304652
0.0461173
0.0406429
0.0319719
0.0260105
0.0230553
0.0227625
0.0244669
0.026832
0.0292661
0.0304629
0.0463268
0.039825
0.0310175
0.026187
0.0242391
0.0240831
0.0253585
0.0269544
0.0285758
0.0291617
0.0420321
0.0375923
0.0312781
0.028015
0.0264699
0.0256943
0.0259784
0.0265649
0.0273707
0.0273692
0.0363519
0.035728
0.0324131
0.0298439
0.0280225
0.0266003
0.0259039
0.0256626
0.0261204
0.0261271
0.0326624
0.0330444
0.0307425
0.0290009
0.0274742
0.0259294
0.0248876
0.0245072
0.0251763
0.0253642
0.0317439
0.0316868
0.0291578
0.027109
0.0255145
0.0242429
0.0236559
0.0237349
0.0246056
0.0246424
0.0329726
0.0328378
0.0300513
0.0273841
0.0255774
0.02452
0.0241606
0.0241372
0.0244972
0.023181
0.0247366
0.0249156
0.0229042
0.0208048
0.0202449
0.021156
0.0229521
0.024607
0.0261874
0.0276017
0.0263216
0.0252863
0.023539
0.0213034
0.0200282
0.0201035
0.0212649
0.023471
0.0265748
0.0287026
0.0338851
0.0277045
0.0251135
0.0229079
0.0216184
0.021338
0.0217593
0.0235248
0.0268088
0.0290655
0.03822
0.0287873
0.024823
0.0225542
0.0211195
0.0208695
0.0216654
0.0234413
0.0263543
0.0284523
0.0368025
0.0285487
0.0243097
0.0222572
0.0209226
0.0208784
0.0219623
0.0235719
0.0258318
0.0274574
0.032519
0.0279786
0.024852
0.023232
0.0221235
0.0218773
0.0226397
0.0239734
0.0256247
0.0268944
0.0277638
0.0272951
0.0255531
0.0243049
0.0234509
0.0230523
0.0233749
0.0241
0.0251547
0.026164
0.0249776
0.0251002
0.0239534
0.0235292
0.0230403
0.022389
0.0223963
0.0231211
0.0244392
0.0255152
0.0259218
0.024433
0.0231833
0.0223969
0.0214494
0.0208809
0.0212444
0.0223819
0.0241193
0.0253312
0.0299326
0.0276574
0.0254243
0.0237427
0.0225416
0.0221837
0.0227524
0.02373
0.024833
0.025603
0.018879
0.0194888
0.0187844
0.018321
0.0186648
0.0195409
0.0208916
0.0227839
0.0243943
0.0250199
0.0193566
0.0189502
0.0186448
0.0180391
0.0179595
0.0184762
0.0195602
0.0215794
0.0243231
0.0253946
0.0245702
0.0221201
0.0213243
0.0203478
0.0201877
0.0204677
0.0208976
0.0222248
0.0245456
0.0254998
0.0272294
0.0227026
0.021703
0.0206903
0.0202565
0.0207267
0.0213144
0.022192
0.0238394
0.0245078
0.0259045
0.0224061
0.0213732
0.0203327
0.0192936
0.0195243
0.0203533
0.0214968
0.0230656
0.0234207
0.0229631
0.0220938
0.0215344
0.020637
0.0193118
0.0191619
0.0199577
0.0214789
0.0232359
0.0236208
0.0194452
0.0210548
0.0209907
0.0202889
0.0196103
0.0194809
0.0201873
0.0217484
0.0233768
0.0239935
0.0172968
0.0188451
0.0185475
0.0186901
0.0188911
0.0189299
0.0197614
0.0213428
0.0231472
0.0239851
0.0191456
0.0189054
0.0182184
0.0178416
0.0176837
0.0182031
0.0195685
0.0213263
0.0231881
0.023758
0.0243587
0.0222968
0.0207857
0.0198035
0.019469
0.0200996
0.0214546
0.0229548
0.0242568
0.0245729
0.0166217
0.0171859
0.0170829
0.0172042
0.0178917
0.0186281
0.0192632
0.0205107
0.0216011
0.0209374
0.0171139
0.01602
0.0159308
0.0158658
0.0161105
0.0167812
0.0176824
0.0194349
0.0215316
0.0212458
0.0214049
0.0195669
0.0181961
0.0171278
0.0171021
0.0176199
0.0184518
0.0200178
0.0218875
0.0215196
0.0227295
0.0202208
0.0188367
0.0174088
0.0175123
0.0185081
0.0193859
0.020116
0.0212315
0.0204979
0.0210813
0.0194697
0.0188982
0.0174176
0.0164574
0.0171149
0.0179143
0.0187509
0.0201807
0.0193919
0.0188618
0.0184607
0.0188657
0.0177076
0.0160661
0.0159645
0.0166338
0.0180173
0.0201863
0.0200858
0.0153751
0.0159737
0.0169956
0.0167804
0.0162188
0.0161359
0.0167065
0.0183883
0.0207794
0.0212564
0.0129649
0.0141235
0.0143395
0.0152692
0.0161737
0.0167363
0.0176959
0.0194686
0.0215203
0.0220166
0.0147136
0.0149722
0.0146013
0.0149475
0.0157448
0.0172107
0.019068
0.0207237
0.0221961
0.0219815
0.0196251
0.0182945
0.0174647
0.0174575
0.0184858
0.0201244
0.0216145
0.0225335
0.0231286
0.0222868
0.016672
0.0166806
0.0165493
0.0164239
0.0170695
0.0174842
0.0175854
0.0185827
0.0194409
0.0182911
0.0180699
0.015329
0.0149902
0.0148141
0.0148133
0.0151408
0.0159646
0.0176021
0.019315
0.0183372
0.022966
0.0188624
0.0165109
0.015414
0.0150603
0.0153379
0.016356
0.0178841
0.0195465
0.0185614
0.0245595
0.0201186
0.0171497
0.0151273
0.0152535
0.0162445
0.0171812
0.017734
0.0188427
0.0175773
0.022195
0.0193027
0.0176945
0.0152978
0.0144775
0.0151151
0.0156613
0.0159138
0.0174658
0.0166368
0.0192855
0.0176751
0.0174799
0.0156847
0.0140909
0.013702
0.0138402
0.0144723
0.0168299
0.0173293
0.0153187
0.0145797
0.0153804
0.0151574
0.0145267
0.0137987
0.0136069
0.0144449
0.0173416
0.0186063
0.0127028
0.0130367
0.0130657
0.0144859
0.0158863
0.0157918
0.01548
0.0165385
0.0191141
0.0200374
0.013395
0.0135537
0.0134047
0.0145679
0.016261
0.0183183
0.0197302
0.0203511
0.0212417
0.0208682
0.017231
0.0166243
0.0165341
0.0173901
0.0191689
0.0210637
0.0224834
0.022868
0.0224906
0.020876
0.0166794
0.0165197
0.0165276
0.0160255
0.0163513
0.0162312
0.0161252
0.0175437
0.0186774
0.0172956
0.0185464
0.0149756
0.0144909
0.0142308
0.014017
0.0141839
0.0151009
0.0169077
0.0185186
0.0168868
0.025555
0.0194649
0.0162187
0.0151878
0.0145627
0.0146471
0.0155546
0.0170099
0.0184876
0.0169704
0.029123
0.0219973
0.0170529
0.0147389
0.0146258
0.0153486
0.0161378
0.016396
0.0174001
0.0158704
0.0262026
0.0212522
0.0175498
0.0145576
0.0138693
0.0143481
0.0145388
0.0142697
0.0155331
0.0147868
0.0216236
0.0188983
0.0171907
0.0150242
0.0136976
0.0129636
0.0124617
0.0125555
0.014173
0.0147221
0.0175533
0.0158531
0.0155481
0.0152118
0.0144517
0.0129596
0.0119889
0.0118881
0.0139857
0.0153396
0.0150577
0.0143184
0.0137945
0.0153131
0.0166851
0.0153488
0.0132692
0.0129308
0.0153971
0.0168105
0.0141851
0.0143525
0.0143892
0.0156384
0.0172173
0.018314
0.0180258
0.0176317
0.01869
0.0184789
0.0170133
0.0170781
0.0173507
0.0181147
0.0192082
0.0204119
0.0217261
0.0222328
0.021652
0.0194238
0.0162525
0.0165406
0.0171088
0.0164141
0.0170442
0.016779
0.016385
0.0180154
0.0193855
0.0177993
0.0163425
0.014179
0.0144562
0.0145325
0.0147483
0.0149975
0.0157527
0.0175491
0.01901
0.016832
0.0251546
0.0197329
0.0167119
0.015671
0.0151684
0.0153751
0.0161939
0.0174957
0.018553
0.0166871
0.0318093
0.0242159
0.0182846
0.0154824
0.0151425
0.0156462
0.0161792
0.0163777
0.0169519
0.0152591
0.0287086
0.0233635
0.0184648
0.0152524
0.0145693
0.0147011
0.0145513
0.0141575
0.0147751
0.0135681
0.0227957
0.0203045
0.0178248
0.0156616
0.0146094
0.0137263
0.0126451
0.0121383
0.0129729
0.0120299
0.0189775
0.0173334
0.0161164
0.0160328
0.0158788
0.0138456
0.0121146
0.0112911
0.0120597
0.0112942
0.0172232
0.0161331
0.0150508
0.0159635
0.0177406
0.0164511
0.0130322
0.0111523
0.0119602
0.0118681
0.0156561
0.0161257
0.0161702
0.0163956
0.0174622
0.018079
0.0156167
0.0130544
0.0135566
0.0129866
0.0182838
0.0185237
0.0188477
0.0186026
0.0184928
0.0188718
0.0184752
0.0174987
0.0169954
0.0147879
0.0201483
0.0192388
0.0198936
0.0195044
0.0206497
0.019395
0.0181221
0.0198375
0.0218787
0.0204114
0.0135682
0.0150025
0.0170681
0.0176662
0.0175775
0.0175136
0.0177426
0.0194963
0.0212308
0.0187672
0.0202699
0.0191843
0.0194335
0.0182611
0.017526
0.0176099
0.0182675
0.0192092
0.0201806
0.0179941
0.0295233
0.025546
0.0216178
0.0179744
0.0171866
0.0172991
0.0177323
0.0180183
0.018381
0.0161107
0.0273617
0.0246061
0.0212019
0.0178376
0.0167378
0.0165437
0.0163871
0.0161041
0.0160385
0.013643
0.021533
0.0205508
0.0201682
0.0184424
0.0169335
0.0159222
0.0149373
0.0140037
0.0132971
0.010162
0.0186411
0.0176846
0.0174876
0.0184488
0.0193833
0.0170571
0.0141112
0.0121252
0.0111493
0.00789125
0.0190553
0.0176243
0.0165787
0.0173292
0.02007
0.0198662
0.0148431
0.0110406
0.0102735
0.00765517
0.0189653
0.0184657
0.0181363
0.0174906
0.0192479
0.0201063
0.0157634
0.0111713
0.0101774
0.00757597
0.0229489
0.0212685
0.0201779
0.0191216
0.0191545
0.0199466
0.0179487
0.013816
0.0116706
0.00873592
0.0420676
0.0310434
0.02854
0.0291548
0.0282061
0.0223377
0.0175532
0.0167086
0.0230558
0.0345256
0.0208092
0.0231251
0.0272052
0.027696
0.0234275
0.0192367
0.0162449
0.0154268
0.0207438
0.0281008
0.0207471
0.0236693
0.0288898
0.0270512
0.0228475
0.0198679
0.0171896
0.015365
0.0196787
0.0257491
0.0279777
0.0286588
0.0297327
0.0255262
0.0214329
0.0188892
0.0168799
0.0151406
0.0179484
0.0235298
0.0272299
0.0280839
0.0286949
0.0249936
0.0206354
0.0179034
0.0156593
0.0137326
0.0156081
0.021786
0.0223581
0.0241763
0.027716
0.0266749
0.0221602
0.0182933
0.0148156
0.011408
0.0122272
0.0174226
0.0223598
0.0212669
0.0237296
0.02629
0.0265299
0.0226108
0.0156922
0.0099017
0.00996707
0.0128894
0.0290097
0.0225965
0.0217963
0.0243436
0.0272846
0.0261866
0.018018
0.0100379
0.00948838
0.0110659
0.0341607
0.0258249
0.0228935
0.0240991
0.0276005
0.0268825
0.0187791
0.00995852
0.00906141
0.0107753
0.0408949
0.0297268
0.0238357
0.0243721
0.0271056
0.0273049
0.0215162
0.013098
0.0109845
0.0144787
0.0896009
0.0563342
0.0430995
0.0414751
0.0389477
0.0318047
0.0194745
0.00957365
0.0395537
0.121752
0.057202
0.044519
0.0429376
0.0414762
0.0368505
0.0301858
0.0187052
0.00804951
0.0359628
0.109638
0.0383454
0.0390122
0.040576
0.0385777
0.0346359
0.0303015
0.0198601
0.00914645
0.0343979
0.101845
0.036757
0.0370422
0.0378222
0.0360662
0.0332852
0.0300992
0.0210552
0.0106235
0.0333343
0.103018
0.0377482
0.0361603
0.037042
0.0362653
0.0340967
0.0307264
0.0216464
0.0110149
0.0328234
0.108283
0.0388684
0.0356374
0.0367805
0.0373766
0.0359347
0.0322203
0.021878
0.0103742
0.0310416
0.10444
0.0476349
0.0373902
0.0360203