/*--------------------------------*- C++ -*----------------------------------*\
  =========                 |
  \\      /  F ield         | OpenFOAM: The Open Source CFD Toolbox
   \\    /   O peration     | Website:  https://openfoam.org
    \\  /    A nd           | Version:  6
     \\/     M anipulation  |
\*---------------------------------------------------------------------------*/
FoamFile
{
    version     2.0;
    format      ascii;
    class       volVectorField;
    location    "1300";
    object      U;
}
// * * * * * * * * * * * * * * * * * * * * * * * * * * * * * * * * * * * * * //

dimensions      [0 1 -1 0 0 0 0];

internalField   nonuniform List<vector> 
7000
(
(0.000590119 0.000605733 0.997868)
(0.000739357 0.00060681 0.999399)
(0.000194168 0.000606453 0.99894)
(5.71486e-05 0.000606457 0.998939)
(-9.27885e-06 0.000606429 0.998941)
(-7.36043e-05 0.00060632 0.99894)
(-0.000132179 0.000606124 0.998935)
(-0.00025706 0.0006059 0.998933)
(-0.000800974 0.000606078 0.999409)
(-0.000623442 0.000604655 0.997843)
(0.00059117 0.000769243 0.999417)
(0.000739742 0.000769796 1.00095)
(0.000193912 0.000769871 1.00049)
(5.69514e-05 0.000769846 1.00049)
(-9.5286e-06 0.000769847 1.00049)
(-7.40052e-05 0.000769773 1.00049)
(-0.000132617 0.000769622 1.00049)
(-0.000257373 0.000769514 1.00049)
(-0.000801929 0.000769322 1.00096)
(-0.000624808 0.000768495 0.999394)
(0.000590876 0.000227023 0.998948)
(0.000739879 0.000227157 1.00048)
(0.000194068 0.000227416 1.00002)
(5.70531e-05 0.000227617 1.00002)
(-9.46685e-06 0.00022784 1.00002)
(-7.39881e-05 0.000228074 1.00002)
(-0.000132623 0.000228312 1.00002)
(-0.000257414 0.000228572 1.00002)
(-0.000801931 0.000228743 1.00049)
(-0.00062445 0.000228997 0.998925)
(0.000591069 9.86862e-05 0.998948)
(0.000740126 9.91685e-05 1.00048)
(0.000194353 9.95752e-05 1.00002)
(5.73807e-05 0.000100013 1.00002)
(-9.0841e-06 0.000100549 1.00002)
(-7.35652e-05 0.000101168 1.00002)
(-0.000132166 0.00010184 1.00002)
(-0.000256947 0.000102545 1.00002)
(-0.000801393 0.000103201 1.00049)
(-0.000624234 0.000103822 0.998927)
(0.000591369 3.90523e-05 0.998951)
(0.000740649 3.97947e-05 1.00049)
(0.000194877 4.03815e-05 1.00003)
(5.80231e-05 4.10877e-05 1.00003)
(-8.31334e-06 4.19691e-05 1.00003)
(-7.26983e-05 4.29945e-05 1.00003)
(-0.000131245 4.41109e-05 1.00002)
(-0.000256011 4.52494e-05 1.00002)
(-0.000800376 4.63643e-05 1.0005)
(-0.000623711 4.74905e-05 0.998932)
(0.000591732 -2.28535e-05 0.998951)
(0.000741348 -2.1997e-05 1.00049)
(0.000195626 -2.1286e-05 1.00003)
(5.8964e-05 -2.0374e-05 1.00003)
(-7.17888e-06 -1.92312e-05 1.00003)
(-7.14224e-05 -1.79011e-05 1.00003)
(-0.000129908 -1.64601e-05 1.00002)
(-0.000254665 -1.50167e-05 1.00002)
(-0.000798866 -1.35845e-05 1.0005)
(-0.000622881 -1.2003e-05 0.998935)
(0.000592118 -8.4178e-05 0.998948)
(0.000742138 -8.32369e-05 1.00048)
(0.000196501 -8.24976e-05 1.00002)
(6.00751e-05 -8.15115e-05 1.00002)
(-5.84124e-06 -8.02777e-05 1.00003)
(-6.99253e-05 -7.88485e-05 1.00003)
(-0.000128358 -7.73133e-05 1.00002)
(-0.000253126 -7.58083e-05 1.00002)
(-0.000797104 -7.42779e-05 1.0005)
(-0.000621872 -7.26512e-05 0.998935)
(0.000592494 -0.000215119 0.998947)
(0.00074298 -0.000214087 1.00048)
(0.000197369 -0.00021342 1.00002)
(6.11814e-05 -0.000212478 1.00002)
(-4.51648e-06 -0.000211296 1.00003)
(-6.84554e-05 -0.000209927 1.00003)
(-0.000126864 -0.000208478 1.00002)
(-0.000251639 -0.000207046 1.00002)
(-0.000795498 -0.000205642 1.0005)
(-0.000620939 -0.000204245 0.998937)
(0.00059324 -0.000758566 0.999411)
(0.000743701 -0.000758115 1.00095)
(0.00019811 -0.000757347 1.00049)
(6.21808e-05 -0.000756286 1.00049)
(-3.28991e-06 -0.000755026 1.00049)
(-6.70838e-05 -0.000753556 1.00049)
(-0.000125436 -0.000751978 1.00048)
(-0.000250267 -0.000750557 1.00048)
(-0.000794022 -0.000749158 1.00096)
(-0.000620444 -0.000746956 0.999398)
(0.000592595 -0.000600358 0.997872)
(0.000744117 -0.000600954 0.999408)
(0.000199243 -0.000600167 0.998947)
(6.3444e-05 -0.000599644 0.998947)
(-1.8291e-06 -0.000598973 0.998951)
(-6.54273e-05 -0.000598166 0.998952)
(-0.000123867 -0.000597264 0.99895)
(-0.000248924 -0.000596458 0.99895)
(-0.000791797 -0.000596043 0.999423)
(-0.000618346 -0.000593948 0.997869)
(0.00143911 0.00147494 0.994368)
(0.0016795 0.00148003 0.999153)
(0.000388047 0.00147607 0.997314)
(0.000210259 0.00147497 0.997301)
(1.91245e-05 0.00147281 0.997288)
(-0.000179607 0.00146998 0.997285)
(-0.000354574 0.00146658 0.997291)
(-0.000502343 0.00146258 0.997297)
(-0.00181666 0.00146258 0.999232)
(-0.00152829 0.00145281 0.994251)
(0.00144442 0.00173497 0.999236)
(0.00168029 0.00173578 1.00403)
(0.000385124 0.0017327 1.00219)
(0.000206949 0.00172959 1.00217)
(1.45408e-05 0.00172545 1.00216)
(-0.000185462 0.00172018 1.00215)
(-0.000361166 0.00171404 1.00215)
(-0.000507965 0.00170779 1.00215)
(-0.00182576 0.00170339 1.00408)
(-0.00153803 0.0016946 0.999085)
(0.0014408 0.000436638 0.997356)
(0.00167762 0.000434505 1.00215)
(0.00038294 0.000432566 1.0003)
(0.000203654 0.000429292 1.00029)
(1.02699e-05 0.000425042 1.00028)
(-0.000190577 0.000419821 1.00027)
(-0.00036667 0.000413973 1.00027)
(-0.000513358 0.000408112 1.00027)
(-0.00183009 0.000402779 1.00221)
(-0.00153799 0.000398046 0.99721)
(0.00144061 0.000274208 0.997346)
(0.00167575 0.000272803 1.00214)
(0.00038 0.000270563 1.0003)
(0.000199568 0.000267039 1.00028)
(5.16269e-06 0.00026243 1.00027)
(-0.000196506 0.000256783 1.00026)
(-0.000372907 0.000250506 1.00026)
(-0.000519241 0.000244246 1.00026)
(-0.00183579 0.000238817 1.0022)
(-0.00154138 0.000234161 0.997193)
(0.00144006 9.24844e-05 0.997336)
(0.00167406 9.12273e-05 1.00213)
(0.000377161 8.91047e-05 1.00029)
(0.00019554 8.58829e-05 1.00027)
(2.23912e-08 8.15604e-05 1.00026)
(-0.000202506 7.62257e-05 1.00025)
(-0.000379218 7.03094e-05 1.00025)
(-0.000525132 6.44246e-05 1.00025)
(-0.00184089 5.95183e-05 1.00218)
(-0.0015437 5.66753e-05 0.997178)
(0.00143966 -0.000104068 0.997336)
(0.00167266 -0.000105112 1.00213)
(0.000374697 -0.000106947 1.00029)
(0.000192039 -0.000109548 1.00027)
(-4.49082e-06 -0.00011311 1.00025)
(-0.000207768 -0.000117522 1.00025)
(-0.000384725 -0.000122391 1.00025)
(-0.000530195 -0.00012723 1.00024)
(-0.00184455 -0.00013103 1.00218)
(-0.00154499 -0.000131781 0.997177)
(0.00143941 -0.000285162 0.997345)
(0.00167165 -0.000285918 1.00214)
(0.000372827 -0.000287314 1.0003)
(0.000189388 -0.000289133 1.00028)
(-7.95468e-06 -0.000291739 1.00026)
(-0.000211804 -0.000294999 1.00026)
(-0.000388951 -0.000298589 1.00026)
(-0.000534006 -0.00030219 1.00025)
(-0.00184664 -0.000304973 1.00219)
(-0.00154531 -0.000304091 0.997188)
(0.00143886 -0.000446428 0.997354)
(0.0016711 -0.000446175 1.00215)
(0.00037163 -0.000447276 1.0003)
(0.000187622 -0.000448452 1.00029)
(-1.03617e-05 -0.000450181 1.00027)
(-0.000214633 -0.000452313 1.00027)
(-0.000391939 -0.000454585 1.00027)
(-0.000536845 -0.000457096 1.00026)
(-0.00184771 -0.000458745 1.00219)
(-0.00154449 -0.000457678 0.997202)
(0.00144188 -0.00173998 0.999226)
(0.00167187 -0.00174191 1.00402)
(0.000370631 -0.00174112 1.00218)
(0.000186444 -0.00174138 1.00216)
(-1.18048e-05 -0.00174178 1.00215)
(-0.000216137 -0.00174211 1.00214)
(-0.000393614 -0.00174238 1.00214)
(-0.00053826 -0.00174283 1.00213)
(-0.00184876 -0.00174388 1.00406)
(-0.00154675 -0.00173776 0.999065)
(0.0014366 -0.00147521 0.994373)
(0.0016703 -0.00148056 0.999166)
(0.000371533 -0.00147752 0.997324)
(0.000186837 -0.0014778 0.997311)
(-1.10221e-05 -0.00147752 0.997296)
(-0.000214974 -0.00147703 0.997291)
(-0.000392232 -0.00147646 0.997293)
(-0.000537491 -0.00147534 0.997294)
(-0.001843 -0.00147771 0.99922)
(-0.0015381 -0.00146881 0.994249)
(0.00193977 0.0020107 0.990201)
(0.0020668 0.00202185 0.99871)
(0.000353551 0.00201287 0.995503)
(0.00030736 0.00201195 0.995474)
(-5.79761e-06 0.00200821 0.995406)
(-0.000306341 0.00200336 0.9954)
(-0.000590818 0.00199755 0.995454)
(-0.000570745 0.00198952 0.99547)
(-0.00232756 0.00199145 0.998903)
(-0.0021147 0.00197173 0.98993)
(0.00195133 0.00217462 0.9989)
(0.00206975 0.00217784 1.00743)
(0.000349326 0.00217074 1.00421)
(0.000302612 0.00216624 1.00417)
(-1.369e-05 0.00215944 1.0041)
(-0.000316984 0.00215052 1.00408)
(-0.000603788 0.00213988 1.00411)
(-0.000582271 0.00212832 1.00411)
(-0.00234565 0.00212224 1.00754)
(-0.00213404 0.00210509 0.998517)
(0.00194297 0.000450395 0.995602)
(0.0020634 0.00044812 1.00412)
(0.000345805 0.000445111 1.0009)
(0.000297168 0.000439882 1.00087)
(-2.07674e-05 0.000433175 1.00079)
(-0.000325621 0.000424681 1.00078)
(-0.000613131 0.000414844 1.00082)
(-0.000591694 0.000405065 1.00082)
(-0.00235115 0.000395758 1.00426)
(-0.00213163 0.000386971 0.99523)
(0.00194384 0.000439524 0.995581)
(0.00206128 0.000439043 1.0041)
(0.000341198 0.000435681 1.00088)
(0.000290832 0.000430476 1.00085)
(-2.88006e-05 0.000423622 1.00077)
(-0.000335254 0.00041494 1.00075)
(-0.000623405 0.000404937 1.00079)
(-0.000601559 0.000394942 1.00079)
(-0.00236117 0.000385866 1.00423)
(-0.00213798 0.000377996 0.995184)
(0.00194329 0.00014584 0.995521)
(0.00205929 0.000145156 1.00404)
(0.000337255 0.000142301 1.00082)
(0.000285135 0.000138025 1.00079)
(-3.63108e-05 0.000132135 1.00071)
(-0.000344335 0.000124591 1.00069)
(-0.000633163 0.00011597 1.00072)
(-0.000611032 0.000107243 1.00072)
(-0.00236876 9.95125e-05 1.00416)
(-0.0021408 9.67872e-05 0.995107)
(0.00194325 -0.000148762 0.995521)
(0.00205797 -0.000149205 1.00404)
(0.000334161 -0.000151422 1.00082)
(0.000280701 -0.000154413 1.00079)
(-4.22324e-05 -0.000158687 1.00071)
(-0.000351446 -0.000164165 1.00069)
(-0.000640787 -0.000170323 1.00072)
(-0.000618365 -0.000176622 1.00071)
(-0.00237294 -0.000182013 1.00415)
(-0.00214139 -0.0001797 0.9951)
(0.00194369 -0.000442965 0.99558)
(0.0020574 -0.000443671 1.0041)
(0.000332161 -0.000445014 1.00088)
(0.000277895 -0.000446551 1.00085)
(-4.6062e-05 -0.000449093 1.00077)
(-0.000355999 -0.000452407 1.00075)
(-0.000645649 -0.000456059 1.00078)
(-0.000623072 -0.000460044 1.00077)
(-0.00237371 -0.000463245 1.0042)
(-0.00213994 -0.000456973 0.995165)
(0.00194259 -0.00045554 0.995602)
(0.00205709 -0.000454592 1.00412)
(0.000331448 -0.000455667 1.0009)
(0.000276647 -0.000456286 1.00087)
(-4.80845e-05 -0.000457666 1.00079)
(-0.000358439 -0.000459404 1.00077)
(-0.000648451 -0.000461307 1.00081)
(-0.000625911 -0.000463542 1.0008)
(-0.00237202 -0.000465172 1.00422)
(-0.00213576 -0.000459764 0.995199)
(0.00195058 -0.00217117 0.998888)
(0.00206128 -0.00217445 1.00742)
(0.00033062 -0.00217018 1.00419)
(0.000275933 -0.00216971 1.00416)
(-4.9085e-05 -0.00216862 1.00408)
(-0.000359534 -0.00216715 1.00406)
(-0.000649617 -0.00216532 1.00409)
(-0.000627031 -0.00216324 1.00408)
(-0.00237456 -0.00216627 1.0075)
(-0.00214086 -0.00215084 0.998467)
(0.00194009 -0.00200376 0.990216)
(0.0020586 -0.00201423 0.998733)
(0.000332976 -0.00200618 0.995521)
(0.000277861 -0.00200657 0.995489)
(-4.53514e-05 -0.0020048 0.995416)
(-0.000354387 -0.00200272 0.9954)
(-0.000643325 -0.00200031 0.995441)
(-0.00062283 -0.0019963 0.99544)
(-0.00235999 -0.00200211 0.998853)
(-0.00212131 -0.00198196 0.989878)
(0.0022534 0.00236865 0.985064)
(0.00220585 0.00238651 0.997701)
(0.000251816 0.00237136 0.993273)
(0.000361722 0.00237091 0.993238)
(-7.76226e-05 0.00236461 0.993106)
(-0.000416204 0.00235681 0.993093)
(-0.000812627 0.00234757 0.993201)
(-0.000589637 0.00233298 0.993214)
(-0.00261452 0.00233659 0.998069)
(-0.0025346 0.00230035 0.984536)
(0.00227212 0.00237739 0.998067)
(0.00221121 0.00238334 1.01073)
(0.000246245 0.00237095 1.00627)
(0.000355293 0.0023649 1.00623)
(-9.02815e-05 0.00235426 1.00608)
(-0.000434027 0.00234019 1.00604)
(-0.000835892 0.00232302 1.00612)
(-0.000610886 0.00230281 1.00608)
(-0.00264861 0.0022934 1.01094)
(-0.00256949 0.00225947 0.99729)
(0.00225791 0.000407134 0.993469)
(0.0022 0.000405357 1.00611)
(0.000241113 0.000401166 1.00167)
(0.000346853 0.000393574 1.00162)
(-0.000101221 0.000383925 1.00148)
(-0.00044757 0.000371113 1.00144)
(-0.000850791 0.000355669 1.00152)
(-0.0006269 0.000339823 1.0015)
(-0.00265798 0.000323776 1.00636)
(-0.00256598 0.000306431 0.992711)
(0.0022606 0.000579035 0.993448)
(0.00219806 0.000580643 1.00609)
(0.000234562 0.000575854 1.00165)
(0.000338085 0.000569095 1.0016)
(-0.000112785 0.000559892 1.00145)
(-0.000462068 0.000547557 1.00141)
(-0.000866999 0.000532655 1.00149)
(-0.000643083 0.000516856 1.00146)
(-0.00267561 0.000502063 1.00632)
(-0.00257749 0.000488145 0.992635)
(0.00225998 0.000171369 0.99333)
(0.00219587 0.000172173 1.00597)
(0.000229709 0.000168659 1.00153)
(0.000330914 0.000163799 1.00148)
(-0.000122806 0.000156686 1.00133)
(-0.00047486 0.000146979 1.00129)
(-0.000881532 0.000135202 1.00136)
(-0.000658076 0.000122571 1.00132)
(-0.00268701 0.000110441 1.00618)
(-0.00258093 0.000108408 0.992479)
(0.0022608 -0.000156297 0.99333)
(0.00219526 -0.000155059 1.00598)
(0.000226435 -0.000157226 1.00153)
(0.000326174 -0.000159832 1.00148)
(-0.000129603 -0.000163991 1.00133)
(-0.00048358 -0.000169733 1.00129)
(-0.000891426 -0.000176687 1.00135)
(-0.000668474 -0.000184198 1.00131)
(-0.00269119 -0.000191764 1.00616)
(-0.00257972 -0.000183081 0.992468)
(0.0022629 -0.000566253 0.993448)
(0.00219618 -0.000566295 1.0061)
(0.000224948 -0.00056684 1.00165)
(0.000324189 -0.00056712 1.00161)
(-0.000132689 -0.000568464 1.00145)
(-0.000487566 -0.000570525 1.00141)
(-0.000895976 -0.000573002 1.00147)
(-0.000673436 -0.000575954 1.00143)
(-0.00268873 -0.000579732 1.00627)
(-0.00257497 -0.000562491 0.992602)
(0.00226127 -0.000401667 0.993469)
(0.00219664 -0.000399399 1.00612)
(0.00022568 -0.000400171 1.00167)
(0.000324598 -0.000399239 1.00163)
(-0.000132972 -0.000399332 1.00148)
(-0.000488131 -0.000399549 1.00143)
(-0.000896841 -0.000399587 1.0015)
(-0.000675428 -0.000400749 1.00146)
(-0.00268116 -0.00040146 1.00629)
(-0.00256403 -0.000386048 0.992654)
(0.00227569 -0.00235721 0.998039)
(0.00220578 -0.00236101 1.01071)
(0.000225342 -0.00235172 1.00625)
(0.000325283 -0.0023497 1.0062)
(-0.000132668 -0.00234539 1.00605)
(-0.000487737 -0.00234028 1.006)
(-0.000897 -0.00233467 1.00606)
(-0.000675251 -0.00232788 1.00601)
(-0.002683 -0.00233158 1.01085)
(-0.00257068 -0.00230209 0.997189)
(0.00225986 -0.00234807 0.985096)
(0.00220276 -0.00236367 0.997757)
(0.000230059 -0.00234913 0.993316)
(0.000330086 -0.00234937 0.993276)
(-0.000123455 -0.00234461 0.993134)
(-0.000475893 -0.00233947 0.993103)
(-0.000882116 -0.00233443 0.993183)
(-0.000663657 -0.00232503 0.993161)
(-0.00265595 -0.00233388 0.997968)
(-0.00253782 -0.00229953 0.984431)
(0.00247584 0.00264365 0.979469)
(0.00226304 0.00266815 0.996425)
(0.000159856 0.00264602 0.990827)
(0.000384343 0.00264563 0.990778)
(-0.000191908 0.00263484 0.990595)
(-0.000516655 0.00262177 0.990574)
(-0.00103428 0.0026063 0.990718)
(-0.0006365 0.00258055 0.990738)
(-0.00284792 0.00258142 0.997049)
(-0.00289005 0.00252014 0.978581)
(0.00250192 0.00250852 0.997041)
(0.00227012 0.00251662 1.01405)
(0.000151759 0.00249808 1.00839)
(0.000374361 0.00248929 1.00833)
(-0.000213065 0.00247211 1.00811)
(-0.000547045 0.00244927 1.00804)
(-0.00107534 0.00242081 1.00812)
(-0.000676623 0.00238535 1.00806)
(-0.0029098 0.00236533 1.01437)
(-0.00294758 0.00230232 0.995656)
(0.00248129 0.000383252 0.991163)
(0.00225342 0.000381991 1.00812)
(0.000144381 0.000376258 1.0025)
(0.000361177 0.000365175 1.00244)
(-0.000230173 0.000350992 1.00223)
(-0.00056867 0.000331324 1.00216)
(-0.00109977 0.000306237 1.00226)
(-0.000704519 0.000279705 1.00221)
(-0.00292988 0.000250975 1.00852)
(-0.00294743 0.000215122 0.989809)
(0.0024863 0.000702809 0.991136)
(0.00225162 0.000707155 1.0081)
(0.000135025 0.000700235 1.00247)
(0.00034886 0.000691408 1.00241)
(-0.000247244 0.000678711 1.00219)
(-0.000591329 0.000660703 1.00213)
(-0.00112649 0.000637347 1.0022)
(-0.000732492 0.000611489 1.00214)
(-0.00296362 0.000585124 1.00846)
(-0.00296971 0.000557777 0.98967)
(0.0024854 0.000172942 0.990977)
(0.00224899 0.000175909 1.00794)
(0.000128998 0.000171517 1.00231)
(0.00033965 0.00016607 1.00225)
(-0.000260992 0.000157435 1.00203)
(-0.000610134 0.000144609 1.00195)
(-0.00114905 0.000127756 1.00202)
(-0.000758039 0.000108565 1.00194)
(-0.00298325 8.7509e-05 1.00826)
(-0.00297494 8.58168e-05 0.989438)
(0.00248752 -0.000134591 0.990976)
(0.00224954 -0.000130551 1.00795)
(0.000125707 -0.000132447 1.00232)
(0.000334862 -0.000134071 1.00225)
(-0.000268706 -0.000137468 1.00203)
(-0.000621038 -0.000143087 1.00195)
(-0.00116252 -0.000150696 1.00202)
(-0.000773934 -0.000159925 1.00193)
(-0.00298798 -0.00017161 1.00823)
(-0.00297075 -0.000151389 0.989428)
(0.00249236 -0.000668878 0.991135)
(0.00225306 -0.000667378 1.00812)
(0.00012527 -0.000666456 1.00248)
(0.000334674 -0.000664511 1.00242)
(-0.000269969 -0.000663326 1.0022)
(-0.000623344 -0.000662628 1.00212)
(-0.00116579 -0.000662116 1.00219)
(-0.00077908 -0.00066261 1.0021)
(-0.00297937 -0.00066631 1.00838)
(-0.00295908 -0.000629413 0.989635)
(0.00249035 -0.000364425 0.991162)
(0.00225496 -0.000359919 1.00815)
(0.000128454 -0.000360309 1.00251)
(0.000338074 -0.000356692 1.00245)
(-0.000266726 -0.000354233 1.00223)
(-0.000619801 -0.000351205 1.00216)
(-0.00116243 -0.00034755 1.00223)
(-0.000778057 -0.000345064 1.00215)
(-0.0029603 -0.000342992 1.00841)
(-0.00293672 -0.000310705 0.989739)
(0.00251202 -0.00246629 0.996981)
(0.00226967 -0.0024691 1.01401)
(0.000128856 -0.00245402 1.00834)
(0.000341397 -0.00244926 1.00828)
(-0.000263698 -0.00243949 1.00805)
(-0.000616594 -0.00242846 1.00797)
(-0.00115943 -0.00241652 1.00803)
(-0.000774151 -0.0024011 1.00794)
(-0.00295883 -0.00240478 1.0142)
(-0.00294293 -0.00235286 0.995497)
(0.00249142 -0.00260457 0.979531)
(0.00226792 -0.00262459 0.996545)
(0.000137423 -0.00260259 0.99092)
(0.000351034 -0.0026021 0.990867)
(-0.000246156 -0.00259249 0.990671)
(-0.000594336 -0.00258275 0.990623)
(-0.00113148 -0.00257314 0.990721)
(-0.000752562 -0.00255592 0.990678)
(-0.00291356 -0.00256767 0.996892)
(-0.00289149 -0.00251256 0.97842)
(0.00262921 0.00285757 0.97381)
(0.00226436 0.00288818 0.995124)
(7.25207e-05 0.00285822 0.988363)
(0.000373832 0.00285668 0.988279)
(-0.000342931 0.0028385 0.988062)
(-0.0006216 0.00281621 0.988034)
(-0.00125984 0.00278914 0.9882)
(-0.000710516 0.00274439 0.98826)
(-0.0030571 0.00273578 0.99613)
(-0.00320219 0.0026268 0.972502)
(0.00266256 0.00259453 0.996072)
(0.00227207 0.00260394 1.01747)
(5.99699e-05 0.00257817 1.01061)
(0.000356854 0.00256454 1.01051)
(-0.000378796 0.00253684 1.01023)
(-0.000673816 0.00249928 1.01011)
(-0.00133178 0.00245104 1.01016)
(-0.000784069 0.00238878 1.01006)
(-0.00317406 0.00234568 1.01794)
(-0.0033031 0.00221886 0.993802)
(0.00263503 0.000375688 0.988886)
(0.00224924 0.000374889 1.0102)
(4.92932e-05 0.000366995 1.0034)
(0.000336635 0.000350997 1.0033)
(-0.000405483 0.000329967 1.00303)
(-0.000708787 0.000299176 1.00293)
(-0.00137274 0.000258084 1.003)
(-0.000833803 0.000211841 1.00293)
(-0.00322307 0.000157602 1.01083)
(-0.00331744 8.11467e-05 0.986674)
(0.00264257 0.000812342 0.98883)
(0.00224729 0.00081995 1.01016)
(3.6105e-05 0.000810197 1.00335)
(0.000319127 0.000798634 1.00324)
(-0.000431405 0.000780704 1.00297)
(-0.000744973 0.000753545 1.00285)
(-0.00141828 0.000716315 1.00291)
(-0.000885674 0.000670666 1.00281)
(-0.00328887 0.000621485 1.01071)
(-0.00336027 0.000564321 0.986393)
(0.00264131 0.000159971 0.988646)
(0.0022441 0.000165888 1.00997)
(2.86506e-05 0.000160591 1.00316)
(0.000307088 0.000154677 1.00305)
(-0.000450788 0.000144158 1.00277)
(-0.000773374 0.000126872 1.00265)
(-0.00145572 0.000101876 1.00269)
(-0.000931259 6.99036e-05 1.00257)
(-0.00332737 3.30966e-05 1.01044)
(-0.00337279 2.65508e-05 0.986073)
(0.00264531 -9.31999e-05 0.988643)
(0.00224651 -8.49268e-05 1.00999)
(2.57791e-05 -8.61304e-05 1.00317)
(0.000302792 -8.56704e-05 1.00306)
(-0.000459217 -8.71299e-05 1.00278)
(-0.000787292 -9.14931e-05 1.00266)
(-0.00147521 -9.96514e-05 1.00268)
(-0.000956866 -0.000111299 1.00255)
(-0.00333289 -0.000128382 1.0104)
(-0.00336349 -8.78376e-05 0.986066)
(0.00265405 -0.000752334 0.988825)
(0.00225399 -0.000747981 1.01019)
(2.73823e-05 -0.000744645 1.00337)
(0.000306114 -0.000738926 1.00326)
(-0.000456549 -0.000733001 1.00299)
(-0.000785839 -0.000726735 1.00287)
(-0.00147535 -0.000720363 1.0029)
(-0.000960373 -0.00071446 1.00277)
(-0.00330989 -0.000715422 1.01058)
(-0.00333835 -0.000641323 0.986365)
(0.00265224 -0.000341077 0.988879)
(0.00225846 -0.000333079 1.01025)
(3.44274e-05 -0.000332637 1.00343)
(0.000314561 -0.00032481 1.00333)
(-0.000446836 -0.000317863 1.00306)
(-0.000774552 -0.000308894 1.00294)
(-0.00146276 -0.000297395 1.00299)
(-0.000951663 -0.000287137 1.00287)
(-0.0032673 -0.000277697 1.01064)
(-0.00329461 -0.000209969 0.986591)
(0.00268197 -0.00252589 0.995959)
(0.00227954 -0.00252611 1.01741)
(3.61966e-05 -0.00250452 1.01052)
(0.000322148 -0.00249526 1.01042)
(-0.000439139 -0.00247715 1.01013)
(-0.000765194 -0.00245643 1.01)
(-0.00145317 -0.00243351 1.01003)
(-0.000939801 -0.00240424 1.00989)
(-0.00325105 -0.00240054 1.01766)
(-0.00329136 -0.00231271 0.993582)
(0.00265729 -0.00279569 0.973914)
(0.00228054 -0.0028193 0.995345)
(5.02618e-05 -0.00278909 0.988535)
(0.0003393 -0.0027868 0.98845)
(-0.000408867 -0.00277007 0.988219)
(-0.000727405 -0.00275297 0.988154)
(-0.00140572 -0.00273633 0.98825)
(-0.000899675 -0.0027071 0.988206)
(-0.0031786 -0.00271716 0.995904)
(-0.00321692 -0.00263549 0.972219)
(0.00271977 0.00301685 0.968177)
(0.0022099 0.00305242 0.993823)
(-2.56109e-05 0.00301343 0.985931)
(0.000326318 0.00300849 0.985799)
(-0.000527171 0.00297857 0.985564)
(-0.000740871 0.0029405 0.985536)
(-0.0014913 0.00289258 0.985724)
(-0.000792361 0.00281543 0.985864)
(-0.00323327 0.0027828 0.995404)
(-0.00348469 0.00258821 0.96647)
(0.00275979 0.00263568 0.995189)
(0.00221646 0.00264501 1.02095)
(-4.55757e-05 0.00261026 1.01291)
(0.000296699 0.00258833 1.01275)
(-0.000587844 0.00254396 1.0124)
(-0.000830239 0.00248213 1.01222)
(-0.00161618 0.0024001 1.01221)
(-0.000927608 0.00229037 1.01207)
(-0.00344987 0.00220142 1.02161)
(-0.00365787 0.00194961 0.991675)
(0.00272481 0.000369383 0.986691)
(0.00218641 0.000368916 1.01233)
(-6.14058e-05 0.000357658 1.00438)
(0.000265971 0.000334602 1.00422)
(-0.000629325 0.000302945 1.0039)
(-0.000886797 0.000254791 1.00375)
(-0.00168631 0.000186874 1.00377)
(-0.00101607 0.000103848 1.00369)
(-0.00355976 3.92623e-06 1.01328)
(-0.00371311 -0.000170801 0.983267)
(0.00273485 0.000904958 0.986588)
(0.00218361 0.000916312 1.01225)
(-7.99825e-05 0.000902791 1.00429)
(0.000240554 0.000887346 1.00412)
(-0.000669126 0.00086156 1.00379)
(-0.000945493 0.000820463 1.00362)
(-0.00176597 0.00075945 1.00361)
(-0.0011133 0.000678934 1.00347)
(-0.00369966 0.000583621 1.01308)
(-0.00380381 0.00045467 0.982716)
(0.00273328 0.000138563 0.98639)
(0.00217984 0.000148474 1.01206)
(-8.92956e-05 0.000142296 1.00409)
(0.000224599 0.000136124 1.00392)
(-0.000696578 0.000123611 1.00358)
(-0.000989302 0.000100458 1.0034)
(-0.00182802 6.28763e-05 1.00336)
(-0.0011969 1.04167e-05 1.00318)
(-0.00377958 -6.03529e-05 1.01275)
(-0.00383671 -7.69689e-05 0.982227)
(0.00273994 -3.81498e-05 0.986384)
(0.00218504 -2.37457e-05 1.01208)
(-9.1036e-05 -2.35976e-05 1.0041)
(0.000221972 -1.92841e-05 1.00393)
(-0.000704809 -1.63985e-05 1.00359)
(-0.00100628 -1.70813e-05 1.00341)
(-0.00185587 -2.31164e-05 1.00337)
(-0.00124026 -3.61549e-05 1.00317)
(-0.00379027 -6.36536e-05 1.01268)
(-0.00382033 2.04684e-05 0.982218)
(0.00275398 -0.000813928 0.986575)
(0.00219827 -0.000804794 1.01231)
(-8.5763e-05 -0.000797654 1.00432)
(0.000231791 -0.000785622 1.00416)
(-0.000694301 -0.000770952 1.00383)
(-0.000995933 -0.000753817 1.00366)
(-0.0018468 -0.000734004 1.00363)
(-0.0012374 -0.000712807 1.00344)
(-0.00373634 -0.000703625 1.01288)
(-0.0037646 -0.000550778 0.982673)
(0.00275346 -0.000316267 0.986671)
(0.00220718 -0.000303352 1.01242)
(-7.26777e-05 -0.000301022 1.00443)
(0.000248849 -0.000286507 1.00427)
(-0.000672689 -0.000271407 1.00396)
(-0.000969066 -0.0002509 1.0038)
(-0.00181447 -0.000223843 1.00379)
(-0.0012082 -0.000194563 1.00364)
(-0.00364409 -0.000165319 1.013)
(-0.00367786 -2.73004e-05 0.983145)
(0.00279198 -0.00253634 0.995)
(0.00223566 -0.00253155 1.02087)
(-6.81024e-05 -0.00250196 1.01278)
(0.000263547 -0.00248523 1.01261)
(-0.00065622 -0.00245436 1.01227)
(-0.000947797 -0.00241819 1.01208)
(-0.0017895 -0.0023766 1.01205)
(-0.0011762 -0.00232206 1.01186)
(-0.00359614 -0.00230391 1.02122)
(-0.00365339 -0.00215453 0.99137)
(0.00276493 -0.00292827 0.968335)
(0.00224221 -0.00295362 0.994186)
(-4.5935e-05 -0.00291398 0.986215)
(0.000292277 -0.002908 0.986087)
(-0.000607541 -0.00288111 0.985839)
(-0.000886907 -0.00285323 0.985764)
(-0.00171243 -0.00282486 0.985849)
(-0.00111039 -0.00277757 0.985819)
(-0.00348583 -0.00278475 0.995073)
(-0.00354653 -0.00266299 0.965865)
(0.00275916 0.0031334 0.962568)
(0.00211295 0.0031725 0.992486)
(-0.000136022 0.00312313 0.983526)
(0.000241886 0.00311138 0.983349)
(-0.000742769 0.0030637 0.983117)
(-0.000881446 0.00300022 0.983107)
(-0.00173072 0.00291638 0.983331)
(-0.000866499 0.00278693 0.983593)
(-0.0033481 0.00270881 0.994913)
(-0.00368352 0.0023796 0.960676)
(0.00280505 0.00264592 0.994365)
(0.00211609 0.00265361 1.02443)
(-0.000167674 0.00260783 1.01527)
(0.000191347 0.00257288 1.01503)
(-0.000842888 0.00250371 1.01462)
(-0.00103169 0.00240396 1.01436)
(-0.0019422 0.00226587 1.01423)
(-0.00110225 0.00207973 1.01401)
(-0.00373995 0.00190663 1.02534)
(-0.00398665 0.00144332 0.989211)
(0.00276226 0.000364269 0.984575)
(0.00207778 0.000364015 1.01447)
(-0.000190872 0.000348066 1.00543)
(0.000146091 0.000315559 1.00521)
(-0.000905977 0.000268761 1.00484)
(-0.00112205 0.000194138 1.00463)
(-0.00205894 8.31185e-05 1.00457)
(-0.00125644 -6.26147e-05 1.00445)
(-0.00396469 -0.000258748 1.01593)
(-0.00412129 -0.00061997 0.979517)
(0.00277463 0.000983398 0.984418)
(0.00207335 0.000999168 1.01435)
(-0.000216468 0.000981152 1.00529)
(0.000109545 0.000960849 1.00505)
(-0.000966774 0.000924379 1.00467)
(-0.00121682 0.000862367 1.00443)
(-0.00219761 0.000764056 1.00432)
(-0.0014479 0.000618864 1.00411)
(-0.00426507 0.00042293 1.01567)
(-0.00432781 0.000105985 0.978432)
(0.00277317 0.000114106 0.984214)
(0.00206946 0.000129666 1.01416)
(-0.000227647 0.000123165 1.00509)
(8.90242e-05 0.000117848 1.00485)
(-0.00100506 0.00010421 1.00446)
(-0.00128312 7.45478e-05 1.0042)
(-0.00230277 1.9456e-05 1.00405)
(-0.00160741 -7.15919e-05 1.00377)
(-0.0044624 -0.000209061 1.01527)
(-0.00441877 -0.000318861 0.977676)
(0.00278364 2.69633e-05 0.984203)
(0.00207914 5.01695e-05 1.01419)
(-0.000226557 5.30666e-05 1.00511)
(9.06489e-05 6.45088e-05 1.00487)
(-0.00101012 7.62079e-05 1.00449)
(-0.00130166 8.52331e-05 1.00423)
(-0.00234353 8.65242e-05 1.00408)
(-0.00168588 7.33469e-05 1.00378)
(-0.00450291 3.15358e-05 1.01512)
(-0.00440144 0.000155705 0.977595)
(0.00280471 -0.000854526 0.984391)
(0.00210064 -0.000837832 1.01445)
(-0.00021469 -0.000824759 1.00534)
(0.000112055 -0.000802257 1.00512)
(-0.000984315 -0.000772304 1.00475)
(-0.00127272 -0.000734565 1.00452)
(-0.00231442 -0.000688396 1.0044)
(-0.00166716 -0.000634159 1.00412)
(-0.00438768 -0.000592945 1.01532)
(-0.00429081 -0.000302915 0.978328)
(0.00280712 -0.000289033 0.984532)
(0.00211672 -0.000268803 1.01462)
(-0.000192307 -0.000262882 1.00551)
(0.000143334 -0.00023815 1.0053)
(-0.000941915 -0.000209346 1.00495)
(-0.00121714 -0.000168637 1.00475)
(-0.00224245 -0.000112015 1.00467)
(-0.00159051 -4.23724e-05 1.00445)
(-0.00418546 3.24494e-05 1.01552)
(-0.00412329 0.000310607 0.979266)
(0.00285555 -0.00251084 0.994068)
(0.00215427 -0.00249856 1.02432)
(-0.000182873 -0.00245948 1.01507)
(0.000168882 -0.00243154 1.01484)
(-0.000911048 -0.00238242 1.01445)
(-0.00117394 -0.00232263 1.0142)
(-0.00218623 -0.00224999 1.01408)
(-0.00151982 -0.00215521 1.01382)
(-0.00406043 -0.00210251 1.02486)
(-0.00404604 -0.00185943 0.988765)
(0.00282742 -0.00301341 0.962789)
(0.00216861 -0.00303911 0.99304)
(-0.000149753 -0.00298909 0.983957)
(0.000214193 -0.00297701 0.983793)
(-0.000836339 -0.00293641 0.983551)
(-0.00107971 -0.00289282 0.98348)
(-0.0020686 -0.00284648 0.983559)
(-0.00141378 -0.00277513 0.983559)
(-0.00389829 -0.00276876 0.994469)
(-0.00390097 -0.00260382 0.959311)
(0.00276082 0.00321981 0.957011)
(0.00199147 0.00326041 0.991111)
(-0.000251928 0.00319903 0.981158)
(0.000129145 0.00317587 0.980948)
(-0.000980471 0.0031023 0.980748)
(-0.00104561 0.00299935 0.980787)
(-0.00198707 0.00285783 0.98108)
(-0.000939968 0.0026436 0.981525)
(-0.00336675 0.00250152 0.99468)
(-0.00391282 0.00189813 0.955465)
(0.00281125 0.00264131 0.993604)
(0.00198788 0.00264514 1.02789)
(-0.000301163 0.00258581 1.01766)
(4.60778e-05 0.00253164 1.01735)
(-0.00114104 0.00242635 1.01686)
(-0.00129097 0.00226846 1.01648)
(-0.0023372 0.00204193 1.0162)
(-0.00133399 0.00172636 1.01584)
(-0.00405644 0.00142515 1.02903)
(-0.00445858 0.000469136 0.98655)
(0.00276041 0.000364553 0.982552)
(0.00194022 0.000364171 1.01662)
(-0.000334437 0.000341871 1.00655)
(-1.92871e-05 0.000296658 1.00626)
(-0.00123605 0.000227743 1.00585)
(-0.00143364 0.000113351 1.00558)
(-0.0025342 -6.53868e-05 1.00541)
(-0.00160542 -0.000318784 1.00523)
(-0.00457632 -0.000659652 1.01877)
(-0.00483997 -0.00153847 0.975548)
(0.00277482 0.0010521 0.982335)
(0.00193311 0.00107299 1.01645)
(-0.000369319 0.00104963 1.00636)
(-7.20454e-05 0.00102291 1.00605)
(-0.00132816 0.000971496 1.00562)
(-0.00158458 0.000879585 1.0053)
(-0.00276855 0.000723645 1.00505)
(-0.00194219 0.000475112 1.00473)
(-0.00519713 0.000113528 1.0184)
(-0.00522927 -0.000613783 0.97346)
(0.00277415 9.06751e-05 0.982131)
(0.00192978 0.000114015 1.01626)
(-0.000382464 0.000107931 1.00616)
(-9.79812e-05 0.000104991 1.00585)
(-0.0013803 9.20114e-05 1.00541)
(-0.00168289 5.65709e-05 1.00507)
(-0.00293941 -2.02807e-05 1.00477)
(-0.00223694 -0.000170807 1.00435)
(-0.00561479 -0.000462937 1.01795)
(-0.00547605 -0.000716054 0.971746)
(0.00278991 9.84758e-05 0.982111)
(0.00194607 0.000133864 1.01631)
(-0.000376229 0.00014142 1.00619)
(-8.79823e-05 0.000164553 1.00589)