/*--------------------------------*- C++ -*----------------------------------*\
  =========                 |
  \\      /  F ield         | OpenFOAM: The Open Source CFD Toolbox
   \\    /   O peration     | Website:  https://openfoam.org
    \\  /    A nd           | Version:  6
     \\/     M anipulation  |
\*---------------------------------------------------------------------------*/
FoamFile
{
    version     2.0;
    format      ascii;
    class       volScalarField;
    location    "0.125";
    object      T;
}
// * * * * * * * * * * * * * * * * * * * * * * * * * * * * * * * * * * * * * //

dimensions      [0 0 0 1 0 0 0];

internalField   nonuniform List<scalar> 
7000
(
101.176
101.176
101.176
101.176
101.176
101.176
101.175
101.175
101.175
101.175
101.176
101.176
101.176
101.176
101.175
101.175
101.175
101.175
101.175
101.175
101.176
101.176
101.176
101.175
101.175
101.175
101.175
101.175
101.175
101.175
101.176
101.176
101.175
101.175
101.175
101.175
101.175
101.175
101.175
101.175
101.176
101.176
101.175
101.175
101.175
101.175
101.175
101.175
101.175
101.175
101.176
101.176
101.175
101.175
101.175
101.175
101.175
101.175
101.175
101.175
101.176
101.176
101.175
101.175
101.175
101.175
101.175
101.175
101.175
101.175
101.176
101.176
101.176
101.175
101.175
101.175
101.175
101.175
101.175
101.175
101.176
101.176
101.176
101.175
101.175
101.175
101.175
101.175
101.175
101.175
101.176
101.176
101.176
101.176
101.176
101.175
101.175
101.175
101.175
101.175
83.8844
83.8842
83.884
83.8839
83.8837
83.8836
83.8834
83.8833
83.8832
83.8832
83.8842
83.884
83.8838
83.8837
83.8835
83.8834
83.8833
83.8831
83.883
83.883
83.8841
83.8839
83.8837
83.8836
83.8834
83.8833
83.8831
83.883
83.8829
83.883
83.884
83.8838
83.8836
83.8835
83.8834
83.8832
83.8831
83.8829
83.8829
83.8829
83.8839
83.8837
83.8836
83.8834
83.8833
83.8832
83.883
83.8829
83.8828
83.8829
83.8839
83.8837
83.8836
83.8834
83.8833
83.8832
83.883
83.8829
83.8829
83.8829
83.884
83.8838
83.8836
83.8835
83.8834
83.8832
83.8831
83.883
83.8829
83.8829
83.884
83.8838
83.8837
83.8836
83.8834
83.8833
83.8832
83.883
83.883
83.883
83.8841
83.8839
83.8838
83.8836
83.8835
83.8834
83.8833
83.8831
83.8831
83.8831
83.8842
83.884
83.8839
83.8838
83.8836
83.8835
83.8834
83.8833
83.8832
83.8832
67.6207
67.6204
67.6202
67.6199
67.6196
67.6193
67.6189
67.6185
67.6182
67.6181
67.6204
67.6202
67.6199
67.6196
67.6194
67.619
67.6187
67.6183
67.618
67.6179
67.6203
67.62
67.6197
67.6195
67.6192
67.6189
67.6185
67.6181
67.6178
67.6178
67.6202
67.6199
67.6196
67.6194
67.6191
67.6187
67.6184
67.618
67.6177
67.6177
67.6201
67.6198
67.6196
67.6193
67.619
67.6187
67.6183
67.618
67.6177
67.6176
67.6201
67.6198
67.6196
67.6193
67.619
67.6187
67.6183
67.618
67.6177
67.6177
67.6201
67.6199
67.6196
67.6194
67.6191
67.6188
67.6184
67.6181
67.6178
67.6177
67.6202
67.6199
67.6197
67.6195
67.6192
67.6189
67.6185
67.6182
67.6179
67.6179
67.6203
67.6201
67.6199
67.6196
67.6194
67.619
67.6187
67.6183
67.6181
67.618
67.6205
67.6203
67.62
67.6198
67.6196
67.6192
67.6189
67.6185
67.6183
67.6182
52.9342
52.9338
52.9335
52.933
52.9325
52.9318
52.9309
52.9299
52.9291
52.9286
52.9339
52.9335
52.9332
52.9327
52.9322
52.9315
52.9306
52.9296
52.9288
52.9284
52.9337
52.9333
52.9329
52.9325
52.932
52.9313
52.9304
52.9295
52.9286
52.9283
52.9335
52.9332
52.9328
52.9324
52.9319
52.9312
52.9303
52.9293
52.9285
52.9282
52.9335
52.9331
52.9327
52.9323
52.9318
52.9311
52.9302
52.9293
52.9285
52.9281
52.9335
52.9331
52.9328
52.9323
52.9318
52.9311
52.9303
52.9293
52.9285
52.9282
52.9335
52.9332
52.9328
52.9324
52.9319
52.9312
52.9303
52.9294
52.9286
52.9282
52.9337
52.9333
52.933
52.9325
52.932
52.9313
52.9305
52.9296
52.9288
52.9284
52.9338
52.9335
52.9331
52.9327
52.9322
52.9315
52.9307
52.9298
52.929
52.9286
52.934
52.9337
52.9334
52.933
52.9325
52.9318
52.931
52.93
52.9292
52.9289
40.1988
40.1983
40.1978
40.1971
40.1961
40.1946
40.1927
40.1904
40.1883
40.187
40.1984
40.198
40.1975
40.1968
40.1958
40.1943
40.1924
40.1901
40.188
40.1867
40.1982
40.1978
40.1973
40.1966
40.1956
40.1941
40.1922
40.1899
40.1878
40.1866
40.1981
40.1976
40.1971
40.1964
40.1954
40.194
40.1921
40.1898
40.1877
40.1865
40.198
40.1976
40.1971
40.1964
40.1954
40.1939
40.192
40.1898
40.1876
40.1864
40.198
40.1976
40.1971
40.1964
40.1954
40.194
40.192
40.1898
40.1877
40.1865
40.1981
40.1977
40.1971
40.1965
40.1955
40.194
40.1921
40.1899
40.1878
40.1866
40.1982
40.1978
40.1973
40.1966
40.1956
40.1942
40.1923
40.1901
40.188
40.1867
40.1984
40.198
40.1975
40.1968
40.1959
40.1944
40.1925
40.1903
40.1882
40.187
40.1986
40.1983
40.1978
40.1971
40.1962
40.1948
40.1929
40.1906
40.1885
40.1873
29.5911
29.5906
29.5899
29.5887
29.5869
29.5841
29.58
29.5749
29.5697
29.5663
29.5908
29.5903
29.5896
29.5884
29.5866
29.5838
29.5797
29.5746
29.5695
29.5661
29.5906
29.5901
29.5894
29.5882
29.5864
29.5836
29.5795
29.5745
29.5693
29.5659
29.5905
29.59
29.5892
29.5881
29.5863
29.5835
29.5794
29.5743
29.5692
29.5658
29.5904
29.5899
29.5892
29.588
29.5862
29.5834
29.5794
29.5743
29.5691
29.5658
29.5904
29.5899
29.5892
29.588
29.5862
29.5834
29.5794
29.5743
29.5692
29.5658
29.5905
29.59
29.5893
29.5881
29.5863
29.5835
29.5795
29.5744
29.5693
29.5659
29.5906
29.5901
29.5894
29.5883
29.5865
29.5837
29.5797
29.5746
29.5695
29.5661
29.5908
29.5904
29.5897
29.5885
29.5867
29.5839
29.5799
29.5749
29.5697
29.5664
29.5911
29.5906
29.59
29.5889
29.5871
29.5843
29.5802
29.5752
29.57
29.5667
21.1018
21.1012
21.1001
21.0983
21.0951
21.0899
21.0818
21.0709
21.0588
21.05
21.1016
21.1009
21.0999
21.098
21.0948
21.0896
21.0816
21.0707
21.0586
21.0498
21.1014
21.1007
21.0997
21.0978
21.0947
21.0894
21.0814
21.0705
21.0584
21.0497
21.1012
21.1006
21.0996
21.0977
21.0945
21.0893
21.0813
21.0704
21.0583
21.0496
21.1012
21.1006
21.0995
21.0977
21.0945
21.0893
21.0812
21.0703
21.0583
21.0496
21.1012
21.1006
21.0995
21.0977
21.0945
21.0893
21.0813
21.0704
21.0583
21.0496
21.1013
21.1007
21.0996
21.0978
21.0946
21.0894
21.0814
21.0705
21.0584
21.0497
21.1014
21.1008
21.0998
21.0979
21.0948
21.0895
21.0815
21.0707
21.0586
21.0499
21.1016
21.101
21.1
21.0982
21.095
21.0898
21.0818
21.0709
21.0588
21.0501
21.1018
21.1013
21.1003
21.0985
21.0953
21.0901
21.0821
21.0712
21.0592
21.0504
14.5713
14.5705
14.569
14.5662
14.561
14.5519
14.5368
14.5145
14.487
14.4644
14.5711
14.5703
14.5688
14.566
14.5608
14.5516
14.5366
14.5143
14.4869
14.4642
14.5709
14.5702
14.5687
14.5658
14.5606
14.5515
14.5364
14.5142
14.4867
14.4641
14.5708
14.5701
14.5686
14.5657
14.5606
14.5514
14.5363
14.5141
14.4867
14.464
14.5708
14.57
14.5685
14.5657
14.5605
14.5514
14.5363
14.514
14.4866
14.464
14.5708
14.57
14.5685
14.5657
14.5605
14.5514
14.5363
14.5141
14.4867
14.4641
14.5709
14.5701
14.5686
14.5658
14.5606
14.5515
14.5364
14.5142
14.4868
14.4642
14.571
14.5702
14.5688
14.566
14.5608
14.5516
14.5366
14.5143
14.4869
14.4643
14.5711
14.5704
14.569
14.5662
14.561
14.5518
14.5368
14.5145
14.4871
14.4645
14.5713
14.5707
14.5692
14.5664
14.5613
14.5521
14.5371
14.5148
14.4874
14.4648
9.74033
9.73942
9.73742
9.7334
9.72556
9.71087
9.68474
9.64189
9.58111
9.52029
9.74015
9.73924
9.73724
9.73322
9.72539
9.7107
9.68457
9.64173
9.58097
9.52018
9.74002
9.73911
9.73711
9.73309
9.72526
9.71058
9.68446
9.64162
9.58087
9.52009
9.73994
9.73903
9.73704
9.73302
9.72519
9.7105
9.68439
9.64156
9.58081
9.52004
9.73991
9.739
9.73701
9.73299
9.72516
9.71048
9.68437
9.64154
9.5808
9.52003
9.73993
9.73902
9.73703
9.73301
9.72519
9.71051
9.6844
9.64157
9.58083
9.52006
9.73999
9.73908
9.73709
9.73308
9.72526
9.71058
9.68447
9.64165
9.58091
9.52014
9.74009
9.73919
9.73721
9.7332
9.72538
9.71071
9.6846
9.64177
9.58103
9.52027
9.74024
9.73935
9.73738
9.73338
9.72556
9.71089
9.68478
9.64195
9.58121
9.52044
9.74041
9.73956
9.7376
9.73361
9.72579
9.71112
9.68501
9.64218
9.58144
9.52067
6.30202
6.30097
6.2985
6.29331
6.28273
6.26173
6.22129
6.14653
6.01863
5.84425
6.30189
6.30083
6.29837
6.29318
6.2826
6.2616
6.22116
6.14641
6.01853
5.84418
6.30179
6.30074
6.29827
6.29308
6.2825
6.26151
6.22108
6.14633
6.01846
5.84412
6.30173
6.30068
6.29822
6.29303
6.28245
6.26146
6.22103
6.14628
6.01842
5.84408
6.30171
6.30066
6.2982
6.29301
6.28243
6.26144
6.22101
6.14627
6.01841
5.84407
6.30172
6.30067
6.29821
6.29303
6.28245
6.26147
6.22104
6.1463
6.01843
5.8441
6.30177
6.30073
6.29827
6.29308
6.28251
6.26153
6.2211
6.14636
6.0185
5.84416
6.30186
6.30082
6.29836
6.29318
6.28261
6.26163
6.2212
6.14646
6.01859
5.84425
6.30198
6.30094
6.2985
6.29332
6.28275
6.26177
6.22134
6.1466
6.01873
5.84439
6.30212
6.30111
6.29868
6.2935
6.28294
6.26196
6.22153
6.14678
6.01891
5.84456
3.9464
3.94528
3.94254
3.93661
3.9242
3.89863
3.84628
3.73818
3.50615
2.96076
3.9463
3.94518
3.94244
3.93651
3.92411
3.89854
3.8462
3.7381
3.50607
2.96071
3.94623
3.94511
3.94237
3.93645
3.92404
3.89847
3.84613
3.73805
3.50603
2.96067
3.94619
3.94507
3.94233
3.93641
3.924
3.89843
3.8461
3.73801
3.506
2.96065
3.94618
3.94506
3.94232
3.93639
3.92399
3.89843
3.84609
3.73801
3.506
2.96065
3.94619
3.94507
3.94233
3.93641
3.92401
3.89844
3.84611
3.73803
3.50601
2.96067
3.94623
3.94511
3.94238
3.93645
3.92405
3.89849
3.84616
3.73807
3.50606
2.96071
3.9463
3.94518
3.94245
3.93653
3.92413
3.89857
3.84623
3.73815
3.50613
2.96077
3.94639
3.94528
3.94255
3.93664
3.92424
3.89868
3.84634
3.73825
3.50623
2.96085
3.94649
3.94541
3.94269
3.93678
3.92438
3.89882
3.84648
3.73839
3.50636
2.96096
2.39203
2.39094
2.38824
2.38235
2.37004
2.3448
2.2939
2.19269
1.99463
1.62087
2.39196
2.39088
2.38817
2.38229
2.36997
2.34473
2.29384
2.19264
1.99458
1.62084
2.39192
2.39083
2.38812
2.38224
2.36993
2.34469
2.2938
2.1926
1.99455
1.62081
2.39189
2.3908
2.3881
2.38221
2.3699
2.34467
2.29378
2.19258
1.99453
1.6208
2.39188
2.39079
2.38809
2.38221
2.3699
2.34466
2.29377
2.19258
1.99453
1.6208
2.39189
2.3908
2.3881
2.38222
2.36991
2.34467
2.29379
2.19259
1.99454
1.62081
2.39192
2.39083
2.38813
2.38225
2.36994
2.34471
2.29382
2.19263
1.99457
1.62084
2.39197
2.39088
2.38818
2.38231
2.37
2.34476
2.29388
2.19268
1.99462
1.62088
2.39203
2.39096
2.38826
2.38238
2.37008
2.34484
2.29395
2.19275
1.99469
1.62094
2.39211
2.39105
2.38836
2.38249
2.37018
2.34494
2.29405
2.19285
1.99478
1.62101
1.40361
1.40265
1.40028
1.39515
1.38463
1.36366
1.32317
1.2479
1.11528
0.902115
1.40356
1.40261
1.40023
1.39511
1.38459
1.36362
1.32313
1.24786
1.11525
0.902092
1.40353
1.40258
1.4002
1.39508
1.38456
1.36359
1.32311
1.24784
1.11523
0.902076
1.40351
1.40256
1.40018
1.39506
1.38454
1.36357
1.32309
1.24783
1.11522
0.902068
1.40351
1.40255
1.40018
1.39506
1.38454
1.36357
1.32309
1.24783
1.11522
0.902068
1.40351
1.40256
1.40019
1.39507
1.38455
1.36358
1.3231
1.24784
1.11523
0.902077
1.40353
1.40258
1.40021
1.39509
1.38457
1.36361
1.32312
1.24786
1.11525
0.902094
1.40357
1.40262
1.40025
1.39513
1.38461
1.36364
1.32316
1.24789
1.11529
0.902121
1.40361
1.40267
1.4003
1.39518
1.38466
1.3637
1.32321
1.24794
1.11533
0.902159
1.40367
1.40274
1.40037
1.39525
1.38473
1.36377
1.32328
1.24801
1.11539
0.902209
0.797517
0.79676
0.794878
0.790899
0.782936
0.767638
0.739513
0.690548
0.611421
0.497137
0.797488
0.796732
0.79485
0.790871
0.782909
0.767612
0.739488
0.690526
0.611403
0.497122
0.797469
0.796712
0.794831
0.790852
0.78289
0.767594
0.739472
0.690511
0.611391
0.497112
0.797457
0.796701
0.79482
0.790841
0.78288
0.767585
0.739463
0.690504
0.611384
0.497107
0.797454
0.796698
0.794817
0.790839
0.782878
0.767583
0.739462
0.690503
0.611384
0.497108
0.79746
0.796704
0.794823
0.790846
0.782885
0.76759
0.73947
0.69051
0.611391
0.497113
0.797474
0.796719
0.794839
0.790862
0.782901
0.767606
0.739485
0.690525
0.611404
0.497125
0.797497
0.796743
0.794864
0.790887
0.782927
0.767632
0.73951
0.690549
0.611425
0.497143
0.797528
0.796776
0.794898
0.790923
0.782963
0.767667
0.739545
0.690581
0.611455
0.497167
0.797565
0.79682
0.794944
0.790969
0.783009
0.767713
0.739589
0.690623
0.611493
0.497199
0.438919
0.438367
0.437009
0.434198
0.428737
0.41863
0.400891
0.371713
0.327618
0.268352
0.438901
0.43835
0.436992
0.434182
0.428721
0.418614
0.400876
0.3717
0.327607
0.268343
0.438889
0.438338
0.43698
0.43417
0.42871
0.418604
0.400867
0.371691
0.3276
0.268337
0.438883
0.438331
0.436974
0.434164
0.428704
0.418598
0.400862
0.371687
0.327596
0.268335
0.438881
0.43833
0.436973
0.434163
0.428703
0.418598
0.400861
0.371687
0.327596
0.268335
0.438885
0.438334
0.436977
0.434167
0.428708
0.418602
0.400866
0.371692
0.3276
0.268339
0.438894
0.438343
0.436987
0.434178
0.428718
0.418613
0.400876
0.371701
0.327609
0.268346
0.438909
0.438359
0.437003
0.434194
0.428734
0.418629
0.400892
0.371716
0.327622
0.268357
0.438929
0.43838
0.437025
0.434217
0.428757
0.418651
0.400914
0.371736
0.327641
0.268373
0.438953
0.438408
0.437054
0.434246
0.428787
0.41868
0.400942
0.371762
0.327664
0.268393
0.234065
0.233692
0.232788
0.230956
0.2275
0.221325
0.210926
0.194612
0.171198
0.141262
0.234054
0.233682
0.232778
0.230947
0.227491
0.221316
0.210917
0.194605
0.171192
0.141257
0.234047
0.233675
0.232771
0.23094
0.227484
0.22131
0.210912
0.1946
0.171188
0.141254
0.234043
0.233671
0.232767
0.230936
0.227481
0.221307
0.210909
0.194597
0.171186
0.141252
0.234043
0.233671
0.232767
0.230936
0.227481
0.221307
0.210909
0.194597
0.171186
0.141252
0.234045
0.233673
0.232769
0.230939
0.227484
0.22131
0.210912
0.1946
0.171188
0.141255
0.234051
0.233679
0.232775
0.230945
0.22749
0.221316
0.210918
0.194606
0.171194
0.141259
0.23406
0.233689
0.232785
0.230955
0.2275
0.221326
0.210928
0.194615
0.171202
0.141266
0.234073
0.233702
0.232799
0.230969
0.227514
0.221339
0.210941
0.194627
0.171213
0.141275
0.234087
0.233719
0.232817
0.230987
0.227532
0.221357
0.210958
0.194643
0.171227
0.141287
0.120996
0.120762
0.120199
0.119086
0.117042
0.113504
0.107756
0.0990882
0.0871394
0.0724096
0.12099
0.120756
0.120194
0.119081
0.117036
0.113499
0.107752
0.099084
0.0871358
0.0724066
0.120986
0.120752
0.12019
0.119077
0.117033
0.113495
0.107749
0.0990813
0.0871335
0.0724047
0.120984
0.12075
0.120188
0.119075
0.117031
0.113493
0.107747
0.09908
0.0871324
0.0724039
0.120984
0.12075
0.120188
0.119075
0.117031
0.113493
0.107747
0.0990801
0.0871326
0.0724041
0.120985
0.120751
0.12019
0.119077
0.117033
0.113495
0.107749
0.0990819
0.0871342
0.0724055
0.120989
0.120755
0.120193
0.11908
0.117037
0.113499
0.107753
0.0990853
0.0871373
0.0724081
0.120994
0.120761
0.120199
0.119086
0.117042
0.113505
0.107758
0.0990905
0.0871419
0.0724122
0.121002
0.120768
0.120207
0.119095
0.117051
0.113513
0.107766
0.0990977
0.0871484
0.0724177
0.12101
0.120778
0.120218
0.119105
0.117061
0.113523
0.107776
0.0991068
0.0871566
0.0724247
0.0606572
0.0605185
0.0601901
0.059553
0.0584121
0.0564938
0.0534749
0.0490723
0.0432057
0.0361928
0.0606541
0.0605154
0.0601871
0.05955
0.0584092
0.0564911
0.0534724
0.04907
0.0432038
0.0361911
0.0606519
0.0605133
0.060185
0.059548
0.0584073
0.0564893
0.0534708
0.0490686
0.0432025
0.0361901
0.0606508
0.0605122
0.060184
0.059547
0.0584064
0.0564884
0.05347
0.0490679
0.043202
0.0361897
0.0606507
0.0605121
0.0601839
0.059547
0.0584064
0.0564885
0.0534701
0.049068
0.0432021
0.0361898
0.0606517
0.0605131
0.0601849
0.059548
0.0584075
0.0564896
0.0534712
0.049069
0.043203
0.0361906
0.0606537
0.0605152
0.060187
0.0595502
0.0584097
0.0564917
0.0534732
0.049071
0.0432048
0.0361921
0.0606568
0.0605184
0.0601903
0.0595536
0.058413
0.056495
0.0534764
0.0490739
0.0432074
0.0361944
0.060661
0.0605228
0.0601949
0.0595582
0.0584176
0.0564995
0.0534807
0.0490779
0.043211
0.0361975
0.0606659
0.0605285
0.0602009
0.0595643
0.0584236
0.0565053
0.0534863
0.0490831
0.0432157
0.0362015
0.0295035
0.0294259
0.0292444
0.0288989
0.0282946
0.0273052
0.0257932
0.0236591
0.0209207
0.0177991
0.0295018
0.0294242
0.0292428
0.0288974
0.0282931
0.0273038
0.0257919
0.0236579
0.0209196
0.0177983
0.0295007
0.0294232
0.0292417
0.0288963
0.0282922
0.0273029
0.0257911
0.0236572
0.020919
0.0177977
0.0295002
0.0294226
0.0292412
0.0288958
0.0282917
0.0273024
0.0257907
0.0236568
0.0209187
0.0177975
0.0295002
0.0294226
0.0292412
0.0288958
0.0282917
0.0273025
0.0257907
0.0236569
0.0209188
0.0177976
0.0295007
0.0294231
0.0292417
0.0288964
0.0282923
0.0273031
0.0257913
0.0236575
0.0209193
0.017798
0.0295018
0.0294243
0.0292429
0.0288976
0.0282935
0.0273043
0.0257925
0.0236585
0.0209203
0.0177989
0.0295035
0.0294261
0.0292447
0.0288995
0.0282954
0.0273061
0.0257942
0.0236601
0.0209217
0.0178002
0.0295058
0.0294285
0.0292473
0.028902
0.0282979
0.0273085
0.0257966
0.0236623
0.0209237
0.0178019
0.0295085
0.0294316
0.0292505
0.0289053
0.0283011
0.0273117
0.0257996
0.0236651
0.0209262
0.0178041
0.0139302
0.0138889
0.0137935
0.0136152
0.0133102
0.0128235
0.0121022
0.0111247
0.00995501
0.00885158
0.0139293
0.0138881
0.0137927
0.0136145
0.0133095
0.0128228
0.0121016
0.0111241
0.00995449
0.00885112
0.0139288
0.0138875
0.0137922
0.0136139
0.013309
0.0128223
0.0121011
0.0111237
0.00995416
0.00885083
0.0139285
0.0138872
0.0137919
0.0136137
0.0133088
0.0128221
0.0121009
0.0111236
0.00995402
0.00885072
0.0139285
0.0138873
0.0137919
0.0136137
0.0133088
0.0128222
0.012101
0.0111236
0.00995408
0.00885078
0.0139288
0.0138876
0.0137922
0.013614
0.0133091
0.0128225
0.0121013
0.0111239
0.00995437
0.00885105
0.0139294
0.0138882
0.0137929
0.0136147
0.0133098
0.0128231
0.0121019
0.0111245
0.00995489
0.00885153
0.0139303
0.0138891
0.0137938
0.0136157
0.0133107
0.0128241
0.0121028
0.0111253
0.00995567
0.00885224
0.0139315
0.0138904
0.0137952
0.013617
0.0133121
0.0128254
0.0121041
0.0111265
0.00995671
0.00885319
0.013933
0.0138921
0.0137969
0.0136187
0.0133138
0.012827
0.0121057
0.011128
0.00995805
0.00885439
1.45662
0.74406
0.403197
0.262301
0.257136
0.388623
0.720737
1.40961
2.78244
5.53639
1.45659
0.744041
0.403183
0.262288
0.257119
0.388596
0.720692
1.40954
2.78231
5.53617
1.45657
0.744028
0.403174
0.262279
0.257108
0.388578
0.720662
1.40949
2.78223
5.53603
1.45656
0.744021
0.403169
0.262275
0.257101
0.388567
0.720643
1.40945
2.78218
5.53595
1.45656
0.744021
0.403169
0.262273
0.257099
0.388562
0.720636
1.40944
2.78216
5.53592
1.45657
0.744028
0.403173
0.262276
0.2571
0.388564
0.720637
1.40945
2.78217
5.53594
1.45659
0.744042
0.403182
0.262282
0.257105
0.38857
0.720647
1.40946
2.7822
5.53599
1.45663
0.744063
0.403195
0.262291
0.257113
0.38858
0.720664
1.40949
2.78225
5.53609
1.45668
0.744092
0.403213
0.262303
0.257124
0.388593
0.720685
1.40953
2.78232
5.53621
1.45674
0.744126
0.403233
0.262317
0.257136
0.388608
0.720707
1.40957
2.78239
5.53634
1.00329
0.575206
0.333469
0.226701
0.226429
0.339189
0.613907
1.15574
2.1428
3.80716
1.00327
0.575189
0.333457
0.226689
0.226414
0.339166
0.613869
1.15568
2.1427
3.80701
1.00325
0.575179
0.333449
0.226681
0.226404
0.33915
0.613842
1.15564
2.14263
3.80691
1.00324
0.575173
0.333445
0.226677
0.226398
0.33914
0.613826
1.15561
2.14259
3.80685
1.00324
0.575173
0.333445
0.226676
0.226395
0.339137
0.61382
1.1556
2.14258
3.80682
1.00325
0.575179
0.333449
0.226678
0.226397
0.339138
0.613822
1.1556
2.14258
3.80684
1.00327
0.575191
0.333456
0.226684
0.226402
0.339144
0.613831
1.15562
2.14261
3.80688
1.0033
0.57521
0.333468
0.226692
0.226409
0.339153
0.613846
1.15565
2.14266
3.80696
1.00334
0.575235
0.333485
0.226704
0.22642
0.339167
0.613867
1.15568
2.14272
3.80706
1.00339
0.575268
0.333506
0.226719
0.226434
0.339184
0.613894
1.15573
2.1428
3.80719
0.618604
0.388035
0.241826
0.174015
0.178272
0.263388
0.460536
0.826637
1.437
2.34193
0.618587
0.388023
0.241817
0.174006
0.17826
0.26337
0.460507
0.826591
1.43693
2.34183
0.618576
0.388015
0.241811
0.174
0.178252
0.263357
0.460487
0.826559
1.43688
2.34176
0.61857
0.388012
0.241807
0.173996
0.178247
0.26335
0.460474
0.82654
1.43685
2.34172
0.618571
0.388012
0.241807
0.173995
0.178246
0.263347
0.460469
0.826532
1.43684
2.3417
0.618577
0.388016
0.24181
0.173997
0.178247
0.263348
0.460471
0.826535
1.43685
2.34171
0.61859
0.388025
0.241817
0.174002
0.178251
0.263353
0.460479
0.826547
1.43687
2.34174
0.61861
0.38804
0.241826
0.174009
0.178258
0.263361
0.460492
0.826569
1.4369
2.3418
0.618639
0.388059
0.24184
0.174019
0.178267
0.263373
0.46051
0.8266
1.43695
2.34188
0.618676
0.388085
0.241857
0.174032
0.178279
0.263389
0.460535
0.826639
1.43702
2.34198
0.360101
0.240923
0.159934
0.121642
0.127743
0.185818
0.313449
0.537648
0.885662
1.35932
0.36009
0.240915
0.159928
0.121635
0.127734
0.185805
0.313429
0.537617
0.885617
1.35926
0.360083
0.24091
0.159923
0.12163
0.127728
0.185796
0.313414
0.537595
0.885585
1.35922
0.360079
0.240907
0.159921
0.121628
0.127725
0.18579
0.313406
0.537582
0.885565
1.35919
0.360079
0.240907
0.159921
0.121627
0.127724
0.185788
0.313402
0.537576
0.885558
1.35918
0.360084
0.24091
0.159923
0.121629
0.127725
0.185789
0.313404
0.537579
0.885562
1.35919
0.360093
0.240917
0.159928
0.121632
0.127728
0.185793
0.31341
0.537588
0.885577
1.35921
0.360106
0.240927
0.159935
0.121638
0.127733
0.1858
0.31342
0.537605
0.885603
1.35925
0.360126
0.240941
0.159945
0.121646
0.127741
0.18581
0.313434
0.537628
0.885639
1.3593
0.36015
0.240959
0.159958
0.121656
0.127751
0.185822
0.313454
0.537658
0.885687
1.35937
0.201114
0.141054
0.0987047
0.0788526
0.0845964
0.121159
0.197653
0.325821
0.514205
0.756599
0.201107
0.141049
0.0987003
0.078848
0.0845904
0.12115
0.197639
0.325801
0.514177
0.756562
0.201103
0.141045
0.0986973
0.0788448
0.0845862
0.121144
0.19763
0.325787
0.514157
0.756536
0.2011
0.141044
0.0986958
0.0788431
0.0845838
0.121141
0.197624
0.325779
0.514145
0.75652
0.201101
0.141044
0.0986958
0.0788428
0.084583
0.121139
0.197622
0.325775
0.514141
0.756514
0.201104
0.141046
0.0986974
0.0788439
0.0845838
0.12114
0.197623
0.325777
0.514144
0.756519
0.20111
0.141051
0.0987007
0.0788464
0.0845862
0.121143
0.197627
0.325784
0.514154
0.756533
0.201118
0.141057
0.0987057
0.0788505
0.0845902
0.121148
0.197635
0.325795
0.514171
0.756558
0.201131
0.141067
0.0987126
0.0788561
0.0845958
0.121155
0.197645
0.325812
0.514196
0.756594
0.201147
0.141078
0.0987215
0.0788634
0.0846031
0.121164
0.197659
0.325833
0.514229
0.756641
0.10842
0.0788325
0.0576345
0.0480193
0.0524238
0.0739876
0.117149
0.186693
0.284777
0.406328
0.108416
0.0788292
0.0576317
0.0480163
0.0524199
0.073982
0.117141
0.186681
0.28476
0.406307
0.108413
0.0788271
0.0576298
0.0480143
0.0524173
0.0739781
0.117135
0.186673
0.284748
0.406291
0.108412
0.0788261
0.0576289
0.0480132
0.0524157
0.0739757
0.117131
0.186667
0.284741
0.406282
0.108412
0.0788263
0.0576289
0.048013
0.0524152
0.0739749
0.11713
0.186666
0.284739
0.406279
0.108414
0.0788278
0.05763
0.0480138
0.0524158
0.0739755
0.117131
0.186667
0.284741
0.406282
0.108418
0.0788306
0.0576321
0.0480155
0.0524175
0.0739775
0.117134
0.186671
0.284747
0.406291
0.108423
0.0788348
0.0576354
0.0480182
0.0524203
0.073981
0.117139
0.186679
0.284758
0.406307
0.108431
0.0788407
0.0576399
0.048022
0.0524241
0.0739859
0.117146
0.18669
0.284774
0.406329
0.108441
0.0788482
0.0576457
0.0480269
0.0524291
0.0739923
0.117155
0.186704
0.284795
0.406358
0.056621
0.042391
0.0321669
0.0277791
0.0307549
0.0428173
0.0660265
0.10222
0.151656
0.211306
0.0566186
0.042389
0.0321652
0.0277772
0.0307525
0.0428139
0.0660215
0.102213
0.151647
0.211294
0.0566171
0.0423878
0.0321641
0.027776
0.0307509
0.0428115
0.066018
0.102208
0.15164
0.211286
0.0566164
0.0423872
0.0321635
0.0277753
0.0307499
0.0428101
0.0660159
0.102205
0.151636
0.21128
0.0566166
0.0423874
0.0321636
0.0277752
0.0307497
0.0428096
0.0660152
0.102204
0.151635
0.211279
0.0566178
0.0423883
0.0321642
0.0277757
0.0307501
0.0428101
0.0660158
0.102205
0.151636
0.211281
0.0566199
0.04239
0.0321656
0.0277768
0.0307512
0.0428114
0.0660177
0.102208
0.15164
0.211286
0.0566232
0.0423926
0.0321676
0.0277786
0.030753
0.0428137
0.0660209
0.102213
0.151647
0.211296
0.0566277
0.0423961
0.0321704
0.027781
0.0307555
0.0428169
0.0660255
0.102219
0.151657
0.211309
0.0566335
0.0424007
0.032174
0.0277841
0.0307588
0.042821
0.0660314
0.102228
0.15167
0.211327
0.0288304
0.0221827
0.0174165
0.015529
0.0173929
0.0239026
0.0359764
0.054258
0.0785237
0.107078
0.0288291
0.0221816
0.0174155
0.0155279
0.0173915
0.0239006
0.0359736
0.054254
0.0785183
0.107071
0.0288282
0.0221809
0.0174148
0.0155272
0.0173905
0.0238992
0.0359715
0.0542512
0.0785146
0.107066
0.0288279
0.0221806
0.0174145
0.0155268
0.0173899
0.0238984
0.0359704
0.0542495
0.0785124
0.107063
0.028828
0.0221807
0.0174145
0.0155267
0.0173898
0.0238981
0.03597
0.054249
0.0785118
0.107063
0.0288287
0.0221813
0.0174149
0.0155271
0.0173901
0.0238984
0.0359704
0.0542496
0.0785126
0.107064
0.0288299
0.0221823
0.0174157
0.0155278
0.0173908
0.0238993
0.0359716
0.0542513
0.0785151
0.107067
0.0288318
0.0221838
0.017417
0.0155288
0.0173919
0.0239007
0.0359736
0.0542542
0.0785191
0.107073
0.0288344
0.0221859
0.0174187
0.0155303
0.0173935
0.0239027
0.0359764
0.0542583
0.0785249
0.10708
0.0288377
0.0221885
0.0174208
0.0155323
0.0173955
0.0239053
0.03598
0.0542636
0.0785323
0.107091
0.0147112
0.0117461
0.00957453
0.00881059
0.00997174
0.0135283
0.0198794
0.0291846
0.0410631
0.0543084
0.0147104
0.0117454
0.00957391
0.00880991
0.00997087
0.0135271
0.0198777
0.0291823
0.0410601
0.0543048
0.01471
0.011745
0.00957352
0.00880946
0.00997028
0.0135263
0.0198765
0.0291807
0.041058
0.0543022
0.0147098
0.0117449
0.00957334
0.00880923
0.00996995
0.0135258
0.0198759
0.0291798
0.0410568
0.0543007
0.0147099
0.0117449
0.00957337
0.00880921
0.00996988
0.0135257
0.0198756
0.0291795
0.0410565
0.0543004
0.0147103
0.0117452
0.00957363
0.00880942
0.00997007
0.0135259
0.0198759
0.0291799
0.041057
0.0543011
0.014711
0.0117459
0.00957413
0.00880987
0.00997053
0.0135264
0.0198767
0.029181
0.0410585
0.0543031
0.0147121
0.0117468
0.00957489
0.00881055
0.00997125
0.0135273
0.0198779
0.0291828
0.0410609
0.0543062
0.0147136
0.011748
0.00957592
0.00881149
0.00997225
0.0135286
0.0198797
0.0291852
0.0410643
0.0543107
0.0147154
0.0117495
0.00957721
0.00881267
0.00997352
0.0135302
0.0198819
0.0291884
0.0410687
0.0543164
0.0085744
0.00731354
0.0062159
0.00588509
0.00671809
0.00901639
0.0129769
0.0185641
0.0252357
0.0314218
0.00857398
0.00731317
0.00621554
0.00588467
0.00671755
0.00901564
0.0129759
0.0185627
0.025234
0.0314198
0.00857371
0.00731291
0.00621528
0.00588437
0.00671716
0.00901509
0.0129751
0.0185617
0.0252327
0.0314183
0.00857359
0.00731281
0.00621516
0.00588421
0.00671694
0.00901477
0.0129747
0.0185611
0.025232
0.0314174
0.00857366
0.00731286
0.00621519
0.00588421
0.00671689
0.00901469
0.0129746
0.0185609
0.0252318
0.0314172
0.00857393
0.00731309
0.00621538
0.00588437
0.00671704
0.00901485
0.0129748
0.0185612
0.0252322
0.0314177
0.0085744
0.00731351
0.00621574
0.00588469
0.00671738
0.00901526
0.0129753
0.018562
0.0252332
0.031419
0.00857511
0.00731413
0.00621628
0.00588519
0.00671791
0.00901592
0.0129762
0.0185632
0.0252349
0.0314211
0.00857605
0.00731496
0.00621699
0.00588586
0.00671863
0.00901683
0.0129775
0.0185649
0.0252372
0.0314239
0.0085772
0.00731597
0.00621788
0.00588668
0.00671952
0.00901795
0.012979
0.0185671
0.02524
0.0314275
11.2956
13.3834
14.2714
14.685
14.8852
14.983
15.0305
15.0532
15.0637
15.0679
11.2952
13.383
14.271
14.6845
14.8847
14.9825
15.03
15.0528
15.0633
15.0676
11.295
13.3827
14.2707
14.6842
14.8844
14.9823
15.0298
15.0525
15.0631
15.0674
11.2949
13.3826
14.2705
14.6841
14.8843
14.9821
15.0296
15.0524
15.0629
15.0673
11.2948
13.3825
14.2705
14.684
14.8842
14.9821
15.0296
15.0523
15.0629
15.0673
11.2948
13.3826
14.2705
14.6841
14.8843
14.9821
15.0296
15.0524
15.063
15.0673
11.2949
13.3827
14.2707
14.6842
14.8844
14.9823
15.0298
15.0526
15.0632
15.0675
11.2951
13.3829
14.2709
14.6845
14.8847
14.9826
15.0301
15.0529
15.0635
15.0678
11.2954
13.3832
14.2712
14.6848
14.8851
14.9829
15.0305
15.0533
15.0639
15.0682
11.2956
13.3835
14.2716
14.6853
14.8855
14.9834
15.0309
15.0537
15.0643
15.0687
6.17882
7.61154
8.37009
8.75744
8.95216
9.04871
9.09584
9.11838
9.12876
9.13292
6.17861
7.6113
8.36982
8.75716
8.95187
9.04843
9.09556
9.11811
9.12851
9.13273
6.17846
7.61113
8.36964
8.75697
8.95168
9.04824
9.09537
9.11793
9.12834
9.13258
6.17838
7.61103
8.36953
8.75686
8.95157
9.04813
9.09527
9.11783
9.12825
9.1325
6.17835
7.61099
8.36949
8.75682
8.95153
9.0481
9.09524
9.1178
9.12824
9.13248
6.17836
7.61102
8.36952
8.75686
8.95158
9.04814
9.09529
9.11786
9.12829
9.13254
6.17843
7.6111
8.36962
8.75697
8.95169
9.04827
9.09542
9.11799
9.12843
9.13268
6.17855
7.61125
8.36979
8.75716
8.95189
9.04847
9.09562
9.1182
9.12864
9.13289
6.17871
7.61146
8.37003
8.75741
8.95216
9.04874
9.0959
9.11848
9.12892
9.13318
6.17892
7.61173
8.37034
8.75774
8.9525
9.0491
9.09626
9.11884
9.12929
9.13354
3.43567
4.25451
4.76293
5.0512
5.20616
5.28639
5.32667
5.34629
5.35542
5.35908
3.43554
4.25436
4.76277
5.05103
5.20598
5.28622
5.3265
5.34612
5.35526
5.35896
3.43545
4.25425
4.76265
5.05091
5.20586
5.28609
5.32637
5.346
5.35515
5.35887
3.4354
4.25419
4.76258
5.05083
5.20579
5.28602
5.32631
5.34594
5.35509
5.35881
3.43538
4.25417
4.76256
5.05081
5.20576
5.286
5.32629
5.34592
5.35509
5.35881
3.43539
4.25419
4.76258
5.05084
5.20579
5.28603
5.32633
5.34596
5.35513
5.35885
3.43544
4.25425
4.76265
5.05091
5.20588
5.28612
5.32641
5.34605
5.35522
5.35894
3.43552
4.25434
4.76277
5.05104
5.20601
5.28626
5.32656
5.3462
5.35537
5.35909
3.43563
4.25449
4.76293
5.05122
5.2062
5.28645
5.32675
5.3464
5.35557
5.35929
3.43578
4.25467
4.76315
5.05145
5.20644
5.28671
5.32701
5.34666
5.35583
5.35956
1.89119
2.33142
2.63522
2.82289
2.93059
2.98914
3.01961
3.03486
3.04208
3.045
1.89111
2.33133
2.63512
2.82279
2.93048
2.98903
3.01951
3.03475
3.04199
3.04493
1.89106
2.33127
2.63505
2.82271
2.9304
2.98895
3.01943
3.03468
3.04192
3.04487
1.89103
2.33123
2.63501
2.82267
2.93036
2.98891
3.01939
3.03464
3.04188
3.04484
1.89101
2.33122
2.635
2.82266
2.93034
2.98889
3.01938
3.03463
3.04188
3.04484
1.89102
2.33123
2.63501
2.82267
2.93036
2.98892
3.0194
3.03466
3.04191
3.04487
1.89105
2.33127
2.63506
2.82272
2.93042
2.98897
3.01946
3.03472
3.04197
3.04493
1.89111
2.33133
2.63513
2.82281
2.93051
2.98907
3.01956
3.03482
3.04207
3.04503
1.89118
2.33143
2.63524
2.82293
2.93063
2.9892
3.01969
3.03495
3.0422
3.04517
1.89128
2.33155
2.63538
2.82308
2.9308
2.98937
3.01987
3.03513
3.04238
3.04534
1.0195