/*--------------------------------*- C++ -*----------------------------------*\
  =========                 |
  \\      /  F ield         | OpenFOAM: The Open Source CFD Toolbox
   \\    /   O peration     | Website:  https://openfoam.org
    \\  /    A nd           | Version:  6
     \\/     M anipulation  |
\*---------------------------------------------------------------------------*/
FoamFile
{
    version     2.0;
    format      ascii;
    class       volScalarField;
    location    "0.245";
    object      T;
}
// * * * * * * * * * * * * * * * * * * * * * * * * * * * * * * * * * * * * * //

dimensions      [0 0 0 1 0 0 0];

internalField   nonuniform List<scalar> 
7000
(
103.711
103.711
103.71
103.709
103.707
103.706
103.704
103.702
103.701
103.7
103.711
103.711
103.71
103.709
103.707
103.706
103.704
103.702
103.701
103.7
103.711
103.711
103.71
103.709
103.707
103.706
103.704
103.702
103.701
103.7
103.711
103.711
103.71
103.709
103.707
103.706
103.704
103.702
103.701
103.7
103.711
103.711
103.71
103.709
103.707
103.706
103.704
103.702
103.701
103.7
103.711
103.711
103.71
103.709
103.707
103.706
103.704
103.702
103.701
103.7
103.711
103.711
103.71
103.709
103.707
103.706
103.704
103.702
103.701
103.7
103.711
103.711
103.71
103.709
103.707
103.706
103.704
103.702
103.701
103.7
103.711
103.711
103.71
103.709
103.707
103.706
103.704
103.702
103.701
103.7
103.711
103.711
103.71
103.709
103.707
103.706
103.704
103.702
103.701
103.7
91.2623
91.2611
91.2587
91.2551
91.2505
91.2451
91.2393
91.2339
91.2296
91.2272
91.2623
91.261
91.2586
91.255
91.2504
91.245
91.2392
91.2338
91.2295
91.2272
91.2622
91.261
91.2585
91.255
91.2504
91.2449
91.2392
91.2338
91.2295
91.2271
91.2622
91.2609
91.2585
91.2549
91.2503
91.2449
91.2392
91.2337
91.2295
91.2271
91.2622
91.2609
91.2585
91.2549
91.2503
91.2449
91.2391
91.2337
91.2294
91.2271
91.2622
91.2609
91.2585
91.2549
91.2503
91.2449
91.2391
91.2337
91.2294
91.2271
91.2622
91.2609
91.2585
91.2549
91.2503
91.2449
91.2392
91.2337
91.2295
91.2271
91.2622
91.2609
91.2585
91.255
91.2503
91.2449
91.2392
91.2338
91.2295
91.2271
91.2622
91.261
91.2585
91.255
91.2504
91.245
91.2392
91.2338
91.2295
91.2272
91.2622
91.261
91.2586
91.255
91.2504
91.245
91.2393
91.2338
91.2296
91.2272
79.1918
79.1895
79.185
79.1784
79.1696
79.1592
79.1479
79.1371
79.1285
79.1237
79.1917
79.1894
79.1849
79.1783
79.1695
79.1591
79.1478
79.1371
79.1284
79.1236
79.1916
79.1893
79.1849
79.1782
79.1694
79.159
79.1478
79.137
79.1284
79.1236
79.1916
79.1893
79.1848
79.1781
79.1694
79.159
79.1477
79.1369
79.1283
79.1235
79.1916
79.1893
79.1848
79.1781
79.1694
79.1589
79.1477
79.1369
79.1283
79.1235
79.1916
79.1893
79.1848
79.1781
79.1693
79.1589
79.1477
79.1369
79.1283
79.1235
79.1916
79.1893
79.1848
79.1781
79.1694
79.159
79.1477
79.1369
79.1283
79.1236
79.1916
79.1893
79.1848
79.1782
79.1694
79.159
79.1478
79.137
79.1284
79.1236
79.1916
79.1894
79.1849
79.1782
79.1695
79.1591
79.1478
79.1371
79.1284
79.1237
79.1917
79.1894
79.185
79.1783
79.1695
79.1591
79.1479
79.1371
79.1285
79.1237
67.7263
67.7227
67.7154
67.7045
67.6899
67.6721
67.6525
67.6334
67.6177
67.6088
67.7262
67.7225
67.7153
67.7043
67.6897
67.672
67.6524
67.6332
67.6176
67.6087
67.7261
67.7225
67.7152
67.7043
67.6896
67.6719
67.6523
67.6332
67.6175
67.6086
67.726
67.7224
67.7151
67.7042
67.6896
67.6719
67.6523
67.6331
67.6174
67.6085
67.726
67.7224
67.7151
67.7042
67.6896
67.6718
67.6523
67.6331
67.6174
67.6085
67.726
67.7224
67.7151
67.7042
67.6896
67.6718
67.6523
67.6331
67.6174
67.6085
67.726
67.7224
67.7151
67.7042
67.6896
67.6719
67.6523
67.6331
67.6174
67.6086
67.7261
67.7224
67.7152
67.7042
67.6896
67.6719
67.6523
67.6332
67.6175
67.6086
67.7261
67.7225
67.7153
67.7043
67.6897
67.672
67.6524
67.6333
67.6176
67.6087
67.7262
67.7226
67.7154
67.7044
67.6898
67.6721
67.6525
67.6334
67.6177
67.6088
57.0569
57.0515
57.0405
57.0236
57.0006
56.9719
56.9393
56.9063
56.8784
56.8622
57.0568
57.0513
57.0403
57.0234
57.0004
56.9718
56.9391
56.9061
56.8783
56.8621
57.0567
57.0512
57.0402
57.0233
57.0003
56.9717
56.939
56.9061
56.8782
56.862
57.0566
57.0511
57.0401
57.0233
57.0003
56.9716
56.939
56.906
56.8782
56.862
57.0565
57.0511
57.0401
57.0232
57.0002
56.9716
56.9389
56.906
56.8782
56.8619
57.0565
57.0511
57.0401
57.0232
57.0002
56.9716
56.939
56.906
56.8782
56.862
57.0566
57.0511
57.0401
57.0233
57.0003
56.9716
56.939
56.906
56.8782
56.862
57.0566
57.0512
57.0402
57.0233
57.0003
56.9717
56.9391
56.9061
56.8783
56.8621
57.0567
57.0513
57.0403
57.0234
57.0004
56.9718
56.9392
56.9062
56.8784
56.8622
57.0568
57.0514
57.0404
57.0235
57.0005
56.9719
56.9393
56.9063
56.8785
56.8623
47.3298
47.322
47.3061
47.2812
47.2463
47.2015
47.1485
47.0926
47.0433
47.0134
47.3297
47.3219
47.306
47.281
47.2462
47.2013
47.1483
47.0925
47.0432
47.0133
47.3295
47.3218
47.3059
47.2809
47.2461
47.2012
47.1482
47.0924
47.0431
47.0132
47.3295
47.3217
47.3058
47.2808
47.246
47.2011
47.1482
47.0923
47.043
47.0132
47.3294
47.3217
47.3058
47.2808
47.2459
47.2011
47.1481
47.0923
47.043
47.0131
47.3294
47.3217
47.3058
47.2808
47.246
47.2011
47.1482
47.0923
47.043
47.0132
47.3295
47.3217
47.3058
47.2808
47.246
47.2012
47.1482
47.0923
47.0431
47.0132
47.3295
47.3217
47.3059
47.2809
47.2461
47.2012
47.1483
47.0924
47.0431
47.0133
47.3296
47.3218
47.306
47.281
47.2462
47.2013
47.1484
47.0925
47.0433
47.0134
47.3297
47.322
47.3061
47.2812
47.2463
47.2015
47.1485
47.0927
47.0434
47.0135
38.6417
38.631
38.609
38.5736
38.5227
38.4547
38.3706
38.2769
38.1889
38.1321
38.6415
38.6309
38.6088
38.5734
38.5225
38.4546
38.3705
38.2768
38.1888
38.132
38.6414
38.6308
38.6087
38.5733
38.5224
38.4545
38.3704
38.2767
38.1887
38.1319
38.6413
38.6307
38.6086
38.5732
38.5223
38.4544
38.3703
38.2766
38.1887
38.1319
38.6413
38.6306
38.6086
38.5732
38.5223
38.4544
38.3703
38.2766
38.1886
38.1319
38.6413
38.6306
38.6086
38.5732
38.5223
38.4544
38.3703
38.2766
38.1886
38.1319
38.6413
38.6307
38.6086
38.5732
38.5224
38.4544
38.3704
38.2766
38.1887
38.1319
38.6414
38.6307
38.6087
38.5733
38.5224
38.4545
38.3704
38.2767
38.1888
38.132
38.6415
38.6309
38.6088
38.5734
38.5226
38.4546
38.3706
38.2768
38.1889
38.1321
38.6416
38.631
38.6089
38.5736
38.5227
38.4548
38.3707
38.277
38.1891
38.1323
31.0388
31.0249
30.9956
30.9477
30.8766
30.7774
30.6478
30.4927
30.3337
30.22
31.0386
31.0247
30.9955
30.9476
30.8764
30.7773
30.6477
30.4926
30.3335
30.2199
31.0385
31.0246
30.9954
30.9475
30.8763
30.7772
30.6476
30.4925
30.3335
30.2198
31.0384
31.0246
30.9953
30.9474
30.8762
30.7771
30.6475
30.4924
30.3334
30.2198
31.0384
31.0245
30.9953
30.9473
30.8762
30.7771
30.6475
30.4924
30.3334
30.2198
31.0384
31.0245
30.9953
30.9474
30.8762
30.7771
30.6475
30.4924
30.3334
30.2198
31.0384
31.0246
30.9953
30.9474
30.8763
30.7771
30.6476
30.4925
30.3334
30.2198
31.0385
31.0246
30.9954
30.9475
30.8763
30.7772
30.6477
30.4925
30.3335
30.2199
31.0386
31.0247
30.9955
30.9476
30.8765
30.7773
30.6478
30.4927
30.3337
30.22
31.0387
31.0249
30.9957
30.9478
30.8766
30.7775
30.6479
30.4928
30.3338
30.2202
24.5206
24.5034
24.4666
24.4051
24.3108
24.1735
23.9822
23.7321
23.4416
23.1956
24.5204
24.5032
24.4665
24.405
24.3107
24.1733
23.9821
23.7319
23.4415
23.1955
24.5203
24.5031
24.4664
24.4049
24.3106
24.1733
23.982
23.7319
23.4415
23.1954
24.5202
24.5031
24.4663
24.4048
24.3105
24.1732
23.982
23.7318
23.4414
23.1954
24.5202
24.503
24.4663
24.4048
24.3105
24.1732
23.9819
23.7318
23.4414
23.1954
24.5202
24.503
24.4663
24.4048
24.3105
24.1732
23.9819
23.7318
23.4414
23.1954
24.5202
24.5031
24.4663
24.4048
24.3106
24.1732
23.982
23.7319
23.4415
23.1954
24.5203
24.5031
24.4664
24.4049
24.3106
24.1733
23.9821
23.7319
23.4415
23.1955
24.5204
24.5032
24.4665
24.405
24.3108
24.1734
23.9822
23.7321
23.4417
23.1956
24.5205
24.5034
24.4667
24.4052
24.3109
24.1736
23.9823
23.7322
23.4418
23.1958
19.0459
19.0259
18.9825
18.9085
18.7918
18.6147
18.3516
17.9703
17.4463
16.8529
19.0458
19.0257
18.9823
18.9083
18.7917
18.6145
18.3514
17.9702
17.4462
16.8529
19.0457
19.0256
18.9822
18.9082
18.7916
18.6145
18.3514
17.9701
17.4462
16.8528
19.0456
19.0256
18.9822
18.9082
18.7916
18.6144
18.3513
17.9701
17.4461
16.8528
19.0456
19.0255
18.9822
18.9082
18.7916
18.6144
18.3513
17.9701
17.4461
16.8527
19.0456
19.0255
18.9822
18.9082
18.7916
18.6144
18.3513
17.9701
17.4461
16.8528
19.0456
19.0256
18.9822
18.9082
18.7916
18.6144
18.3514
17.9701
17.4462
16.8528
19.0457
19.0256
18.9823
18.9083
18.7917
18.6145
18.3514
17.9702
17.4462
16.8529
19.0458
19.0257
18.9824
18.9084
18.7918
18.6146
18.3515
17.9703
17.4463
16.853
19.0459
19.0259
18.9825
18.9085
18.7919
18.6148
18.3517
17.9705
17.4465
16.8531
14.5415
14.5196
14.4718
14.3893
14.2569
14.05
13.7277
13.2159
12.3568
10.7263
14.5414
14.5195
14.4717
14.3892
14.2568
14.0499
13.7276
13.2158
12.3567
10.7262
14.5413
14.5194
14.4716
14.3891
14.2567
14.0499
13.7275
13.2157
12.3566
10.7261
14.5413
14.5193
14.4715
14.389
14.2567
14.0498
13.7275
13.2157
12.3566
10.7261
14.5413
14.5193
14.4715
14.389
14.2567
14.0498
13.7275
13.2156
12.3566
10.7261
14.5413
14.5193
14.4715
14.389
14.2567
14.0498
13.7275
13.2157
12.3566
10.7261
14.5413
14.5194
14.4716
14.3891
14.2567
14.0499
13.7275
13.2157
12.3566
10.7261
14.5414
14.5194
14.4716
14.3891
14.2568
14.0499
13.7276
13.2158
12.3567
10.7262
14.5414
14.5195
14.4717
14.3892
14.2569
14.05
13.7277
13.2159
12.3568
10.7263
14.5415
14.5196
14.4719
14.3894
14.257
14.0502
13.7278
13.216
12.3569
10.7264
10.9113
10.8888
10.8399
10.7552
10.6191
10.4061
10.0753
9.55981
8.74762
7.46643
10.9112
10.8887
10.8398
10.7551
10.619
10.406
10.0753
9.55973
8.74755
7.46637
10.9111
10.8887
10.8397
10.755
10.6189
10.4059
10.0752
9.55968
8.7475
7.46632
10.911
10.8886
10.8397
10.755
10.6189
10.4059
10.0752
9.55964
8.74747
7.4663
10.911
10.8886
10.8396
10.755
10.6189
10.4059
10.0752
9.55963
8.74746
7.46629
10.911
10.8886
10.8396
10.755
10.6189
10.4059
10.0752
9.55965
8.74747
7.4663
10.9111
10.8886
10.8397
10.755
10.6189
10.4059
10.0752
9.55968
8.74751
7.46633
10.9111
10.8887
10.8397
10.7551
10.619
10.406
10.0753
9.55974
8.74756
7.46638
10.9112
10.8888
10.8398
10.7552
10.6191
10.4061
10.0753
9.55982
8.74764
7.46645
10.9113
10.8889
10.8399
10.7553
10.6192
10.4062
10.0755
9.55993
8.74774
7.46654
8.0453
8.02386
7.97719
7.89696
7.76926
7.57281
7.27644
6.83688
6.20132
5.33125
8.04522
8.02378
7.97711
7.89688
7.76919
7.57274
7.27637
6.83682
6.20126
5.33119
8.04516
8.02372
7.97705
7.89682
7.76913
7.57268
7.27632
6.83677
6.20122
5.33115
8.04512
8.02368
7.97702
7.89679
7.7691
7.57265
7.27629
6.83675
6.2012
5.33113
8.04511
8.02367
7.977
7.89678
7.76909
7.57264
7.27628
6.83674
6.20119
5.33113
8.04511
8.02368
7.97701
7.89679
7.7691
7.57265
7.27629
6.83675
6.2012
5.33114
8.04514
8.02371
7.97704
7.89682
7.76913
7.57269
7.27632
6.83678
6.20123
5.33116
8.04519
8.02376
7.9771
7.89687
7.76918
7.57274
7.27638
6.83683
6.20128
5.33121
8.04525
8.02383
7.97717
7.89695
7.76926
7.57282
7.27645
6.8369
6.20134
5.33126
8.04533
8.02392
7.97727
7.89705
7.76936
7.57291
7.27655
6.83699
6.20143
5.33134
5.82887
5.80962
5.76797
5.69716
5.58636
5.42011
5.17827
4.8379
4.38061
3.81196
5.8288
5.80955
5.76791
5.6971
5.5863
5.42005
5.17822
4.83784
4.38056
3.81192
5.82875
5.80951
5.76786
5.69705
5.58625
5.42001
5.17818
4.83781
4.38053
3.81189
5.82872
5.80948
5.76783
5.69702
5.58623
5.41999
5.17815
4.83779
4.38051
3.81187
5.82871
5.80947
5.76782
5.69701
5.58622
5.41998
5.17815
4.83778
4.3805
3.81186
5.82872
5.80947
5.76783
5.69702
5.58623
5.41999
5.17816
4.83779
4.38051
3.81187
5.82874
5.8095
5.76786
5.69705
5.58625
5.42002
5.17818
4.83782
4.38054
3.8119
5.82878
5.80954
5.7679
5.6971
5.5863
5.42006
5.17823
4.83786
4.38058
3.81193
5.82884
5.8096
5.76796
5.69716
5.58636
5.42012
5.17829
4.83792
4.38063
3.81198
5.8289
5.80968
5.76805
5.69724
5.58645
5.42021
5.17837
4.83799
4.3807
3.81205
4.14947
4.13315
4.0981
4.03932
3.94916
3.81752
3.63286
3.38491
3.07078
2.70558
4.14942
4.13309
4.09805
4.03927
3.94911
3.81748
3.63281
3.38487
3.07074
2.70555
4.14938
4.13306
4.09801
4.03923
3.94907
3.81744
3.63278
3.38484
3.07072
2.70552
4.14936
4.13303
4.09799
4.03921
3.94905
3.81742
3.63277
3.38482
3.0707
2.70551
4.14935
4.13303
4.09798
4.03921
3.94905
3.81742
3.63276
3.38482
3.0707
2.70551
4.14936
4.13303
4.09799
4.03921
3.94906
3.81743
3.63277
3.38483
3.07071
2.70551
4.14938
4.13305
4.09801
4.03924
3.94908
3.81745
3.63279
3.38485
3.07073
2.70553
4.14941
4.13309
4.09805
4.03927
3.94912
3.81749
3.63283
3.38488
3.07076
2.70556
4.14945
4.13314
4.0981
4.03933
3.94917
3.81754
3.63288
3.38493
3.0708
2.7056
4.14951
4.1332
4.09817
4.03939
3.94924
3.8176
3.63294
3.38499
3.07086
2.70565
2.90252
2.88936
2.86136
2.81508
2.74552
2.64667
2.51261
2.33986
2.13123
1.90087
2.90248
2.88932
2.86132
2.81504
2.74548
2.64664
2.51258
2.33983
2.1312
1.90084
2.90245
2.88929
2.86129
2.81501
2.74546
2.64661
2.51256
2.33981
2.13118
1.90082
2.90243
2.88928
2.86128
2.81499
2.74544
2.6466
2.51254
2.3398
2.13117
1.90081
2.90243
2.88927
2.86127
2.81499
2.74544
2.64659
2.51254
2.3398
2.13116
1.90081
2.90243
2.88928
2.86128
2.815
2.74545
2.6466
2.51255
2.3398
2.13117
1.90082
2.90245
2.88929
2.8613
2.81501
2.74546
2.64662
2.51257
2.33982
2.13119
1.90083
2.90248
2.88932
2.86132
2.81504
2.74549
2.64665
2.51259
2.33985
2.13121
1.90085
2.90251
2.88936
2.86137
2.81508
2.74554
2.64669
2.51263
2.33988
2.13125
1.90089
2.90255
2.88941
2.86142
2.81514
2.74559
2.64674
2.51268
2.33993
2.13129
1.90093
1.99503
1.9849
1.96353
1.92873
1.87748
1.8065
1.71326
1.59755
1.46376
1.32297
1.995
1.98487
1.9635
1.9287
1.87745
1.80647
1.71323
1.59753
1.46374
1.32295
1.99498
1.98485
1.96348
1.92868
1.87743
1.80645
1.71321
1.59751
1.46372
1.32293
1.99496
1.98483
1.96347
1.92867
1.87742
1.80644
1.7132
1.5975
1.46371
1.32293
1.99496
1.98483
1.96347
1.92866
1.87741
1.80644
1.7132
1.5975
1.46371
1.32292
1.99497
1.98484
1.96347
1.92867
1.87742
1.80645
1.71321
1.59751
1.46372
1.32293
1.99498
1.98485
1.96348
1.92868
1.87743
1.80646
1.71322
1.59752
1.46373
1.32294
1.995
1.98487
1.96351
1.9287
1.87746
1.80648
1.71324
1.59754
1.46375
1.32296
1.99503
1.9849
1.96354
1.92874
1.87749
1.80652
1.71327
1.59757
1.46378
1.32298
1.99506
1.98494
1.96358
1.92878
1.87753
1.80656
1.71331
1.59761
1.46381
1.32302
1.34754
1.34006
1.32441
1.29929
1.26305
1.21413
1.15189
1.07773
0.996316
0.916437
1.34752
1.34003
1.32439
1.29927
1.26303
1.21411
1.15187
1.07771
0.996299
0.91642
1.3475
1.34002
1.32437
1.29926
1.26301
1.21409
1.15186
1.0777
0.996287
0.916408
1.34749
1.34001
1.32436
1.29925
1.263
1.21408
1.15185
1.07769
0.99628
0.916402
1.34749
1.34001
1.32436
1.29925
1.263
1.21408
1.15185
1.07769
0.996279
0.916401
1.34749
1.34001
1.32437
1.29925
1.26301
1.21409
1.15186
1.07769
0.996284
0.916405
1.3475
1.34002
1.32438
1.29926
1.26302
1.2141
1.15187
1.07771
0.996294
0.916414
1.34752
1.34004
1.32439
1.29928
1.26303
1.21412
1.15188
1.07772
0.996309
0.916429
1.34754
1.34006
1.32442
1.29931
1.26306
1.21414
1.15191
1.07774
0.99633
0.916449
1.34757
1.34009
1.32445
1.29934
1.26309
1.21417
1.15194
1.07777
0.996357
0.916475
0.894503
0.88918
0.87815
0.860697
0.836015
0.803593
0.763832
0.718924
0.673976
0.63795
0.894486
0.889163
0.878134
0.860681
0.835999
0.803579
0.763818
0.71891
0.673963
0.637936
0.894475
0.889152
0.878122
0.86067
0.835989
0.803569
0.763808
0.718901
0.673954
0.637928
0.894468
0.889145
0.878116
0.860664
0.835983
0.803563
0.763803
0.718896
0.673949
0.637923
0.894466
0.889144
0.878115
0.860663
0.835982
0.803562
0.763803
0.718896
0.673949
0.637922
0.894469
0.889147
0.878118
0.860666
0.835986
0.803566
0.763806
0.718899
0.673952
0.637926
0.894477
0.889155
0.878126
0.860675
0.835994
0.803574
0.763814
0.718907
0.67396
0.637933
0.894489
0.889168
0.878139
0.860688
0.836008
0.803587
0.763827
0.71892
0.673972
0.637944
0.894505
0.889185
0.878157
0.860706
0.836026
0.803605
0.763844
0.718936
0.673988
0.63796
0.894524
0.889208
0.878181
0.86073
0.836049
0.803628
0.763866
0.718957
0.674008
0.63798
0.583586
0.57993
0.572419
0.560704
0.544475
0.523759
0.499403
0.473858
0.452693
0.448651
0.583575
0.579918
0.572407
0.560693
0.544464
0.523749
0.499393
0.473848
0.452683
0.448642
0.583566
0.57991
0.572399
0.560685
0.544457
0.523742
0.499387
0.473842
0.452677
0.448636
0.583562
0.579906
0.572395
0.560681
0.544453
0.523738
0.499383
0.473839
0.452674
0.448632
0.583561
0.579905
0.572394
0.56068
0.544453
0.523738
0.499383
0.473838
0.452674
0.448632
0.583563
0.579907
0.572397
0.560683
0.544455
0.523741
0.499385
0.473841
0.452676
0.448634
0.583569
0.579913
0.572403
0.560689
0.544461
0.523747
0.499391
0.473847
0.452682
0.44864
0.583578
0.579922
0.572412
0.560699
0.544471
0.523756
0.499401
0.473856
0.452691
0.448649
0.58359
0.579935
0.572425
0.560712
0.544484
0.523769
0.499413
0.473868
0.452703
0.448661
0.583603
0.579951
0.572443
0.560729
0.544501
0.523786
0.499429
0.473884
0.452718
0.448676
6.87327
4.81228
3.78512
3.50541
3.89965
5.03335
7.10846
10.5129
15.9572
24.8332
6.8732
4.81222
3.78506
3.50534
3.89957
5.03325
7.10833
10.5128
15.957
24.8329
6.87316
4.81218
3.78501
3.5053
3.89952
5.03318
7.10824
10.5127
15.9568
24.8327
6.87313
4.81216
3.78499
3.50527
3.89948
5.03314
7.10818
10.5126
15.9567
24.8326
6.87312
4.81215
3.78498
3.50525
3.89946
5.03312
7.10816
10.5126
15.9567
24.8325
6.87313
4.81216
3.78498
3.50526
3.89946
5.03311
7.10815
10.5126
15.9567
24.8325
6.87316
4.81218
3.785
3.50527
3.89948
5.03313
7.10818
10.5126
15.9567
24.8326
6.87321
4.81221
3.78503
3.5053
3.89951
5.03317
7.10822
10.5126
15.9568
24.8327
6.87327
4.81226
3.78508
3.50534
3.89956
5.03322
7.10828
10.5127
15.9569
24.8328
6.87334
4.81232
3.78512
3.50539
3.8996
5.03328
7.10835
10.5128
15.957
24.833
5.59776
4.22421
3.45632
3.26412
3.64991
4.68653
6.53363
9.45346
13.814
19.99
5.5977
4.22415
3.45627
3.26406
3.64984
4.68644
6.53352
9.45332
13.8138
19.9897
5.59766
4.22412
3.45623
3.26402
3.64979
4.68638
6.53343
9.45321
13.8137
19.9896
5.59764
4.22409
3.4562
3.26399
3.64975
4.68634
6.53338
9.45314
13.8136
19.9895
5.59763
4.22409
3.45619
3.26398
3.64974
4.68631
6.53335
9.45311
13.8135
19.9894
5.59764
4.22409
3.4562
3.26398
3.64974
4.68631
6.53335
9.45311
13.8135
19.9894
5.59766
4.22411
3.45622
3.264
3.64976
4.68633
6.53337
9.45314
13.8136
19.9895
5.59771
4.22415
3.45625
3.26403
3.64979
4.68637
6.53342
9.4532
13.8137
19.9896
5.59777
4.2242
3.45629
3.26407
3.64983
4.68642
6.53349
9.45328
13.8138
19.9897
5.59784
4.22426
3.45635
3.26413
3.64989
4.68649
6.53357
9.4534
13.8139
19.9899
4.29275
3.44621
2.94863
2.85775
3.2173
4.09592
5.60094
7.87247
11.0416
15.1009
4.2927
3.44616
2.94858
2.8577
3.21723
4.09584
5.60083
7.87234
11.0415
15.1007
4.29267
3.44612
2.94854
2.85766
3.21718
4.09578
5.60076
7.87225
11.0414
15.1006
4.29265
3.4461
2.94852
2.85763
3.21715
4.09574
5.60071
7.87219
11.0413
15.1005
4.29264
3.4461
2.94851
2.85762
3.21714
4.09573
5.60069
7.87216
11.0412
15.1005
4.29265
3.4461
2.94852
2.85763
3.21714
4.09573
5.60069
7.87216
11.0412
15.1005
4.29267
3.44612
2.94853
2.85764
3.21716
4.09575
5.60071
7.87219
11.0413
15.1005
4.29271
3.44615
2.94856
2.85767
3.21719
4.09578
5.60076
7.87225
11.0414
15.1006
4.29276
3.4462
2.94861
2.85771
3.21723
4.09583
5.60082
7.87233
11.0415
15.1007
4.29283
3.44626
2.94866
2.85777
3.2173
4.09591
5.60091
7.87244
11.0416
15.1009
3.19778
2.68868
2.3935
2.37835
2.69398
3.39539
4.54726
6.21226
8.41408
11.0639
3.19774
2.68864
2.39346
2.3783
2.69392
3.39532
4.54717
6.21216
8.41395
11.0637
3.19771
2.68861
2.39343
2.37826
2.69388
3.39527
4.54711
6.21208
8.41385
11.0636
3.19769
2.68859
2.39341
2.37824
2.69385
3.39524
4.54707
6.21203
8.41379
11.0636
3.19768
2.68859
2.3934
2.37823
2.69384
3.39522
4.54705
6.21201
8.41376
11.0635
3.19769
2.68859
2.39341
2.37824
2.69384
3.39522
4.54705
6.21201
8.41377
11.0635
3.19771
2.68861
2.39342
2.37825
2.69386
3.39524
4.54707
6.21203
8.4138
11.0636
3.19774
2.68864
2.39345
2.37828
2.69389
3.39527
4.54711
6.21209
8.41387
11.0637
3.19779
2.68868
2.39349
2.37832
2.69393
3.39532
4.54717
6.21216
8.41396
11.0638
3.19785
2.68873
2.39354
2.37837
2.69399
3.39539
4.54725
6.21226
8.41409
11.0639
2.33486
2.03405
1.87173
1.90035
2.16241
2.69713
3.54054
4.71531
6.20824
7.93775
2.33483
2.03402
1.8717
1.90031
2.16237
2.69708
3.54047
4.71522
6.20814
7.93763
2.33481
2.034
1.87167
1.90028
2.16233
2.69704
3.54041
4.71516
6.20806
7.93754
2.33479
2.03398
1.87166
1.90027
2.16231
2.69701
3.54038
4.71512
6.20801
7.93748
2.33479
2.03398
1.87165
1.90026
2.1623
2.697
3.54037
4.7151
6.20799
7.93746
2.33479
2.03398
1.87165
1.90026
2.1623
2.697
3.54037
4.7151
6.20799
7.93747
2.33481
2.034
1.87167
1.90027
2.16232
2.69701
3.54039
4.71513
6.20802
7.9375
2.33484
2.03402
1.87169
1.9003
2.16234
2.69704
3.54042
4.71517
6.20808
7.93757
2.33488
2.03406
1.87172
1.90033
2.16238
2.69709
3.54048
4.71524
6.20816
7.93767
2.33492
2.0341
1.87177
1.90038
2.16243
2.69715
3.54055
4.71533
6.20827
7.9378
1.67818
1.50509
1.42416
1.47228
1.68043
2.0744
2.67288
3.48043
4.47602
5.60087
1.67815
1.50507
1.42413
1.47225
1.68039
2.07436
2.67282
3.48037
4.47594
5.60078
1.67814
1.50505
1.42411
1.47223
1.68036
2.07432
2.67278
3.48032
4.47588
5.60071
1.67812
1.50504
1.4241
1.47221
1.68034
2.0743
2.67275
3.48028
4.47584
5.60066
1.67812
1.50503
1.42409
1.47221
1.68033
2.07429
2.67274
3.48027
4.47583
5.60065
1.67813
1.50504
1.4241
1.47221
1.68034
2.07429
2.67274
3.48027
4.47583
5.60065
1.67814
1.50505
1.42411
1.47222
1.68035
2.07431
2.67276
3.48029
4.47586
5.60068
1.67816
1.50507
1.42413
1.47224
1.68037
2.07433
2.67279
3.48033
4.4759
5.60074
1.67819
1.5051
1.42416
1.47227
1.6804
2.07437
2.67283
3.48039
4.47597
5.60082
1.67823
1.50514
1.42419
1.47231
1.68044
2.07442
2.67289
3.48046
4.47606
5.60093
1.19367
1.09952
1.06676
1.12021
1.28103
1.56531
1.98172
2.52721
3.18181
3.90559
1.19365
1.0995
1.06674
1.12018
1.281
1.56528
1.98168
2.52716
3.18175
3.90551
1.19364
1.09948
1.06672
1.12016
1.28097
1.56525
1.98164
2.52712
3.1817
3.90546
1.19363
1.09947
1.06671
1.12015
1.28096
1.56523
1.98162
2.5271
3.18167
3.90543
1.19363
1.09947
1.06671
1.12015
1.28095
1.56523
1.98161
2.52709
3.18166
3.90542
1.19363
1.09948
1.06671
1.12015
1.28096
1.56523
1.98162
2.52709
3.18167
3.90542
1.19364
1.09949
1.06672
1.12016
1.28097
1.56524
1.98163
2.52711
3.18169
3.90545
1.19366
1.0995
1.06674
1.12018
1.28099
1.56526
1.98166
2.52714
3.18172
3.90549
1.19368
1.09953
1.06676
1.1202
1.28101
1.56529
1.9817
2.52718
3.18178
3.90556
1.19372
1.09956
1.06679
1.12024
1.28105
1.56533
1.98174
2.52724
3.18185
3.90564
0.849747
0.806217
0.802175
0.854867
0.978896
1.18409
1.47336
1.83997
2.26528
2.71962
0.84973
0.806199
0.802156
0.854845
0.97887
1.18406
1.47333
1.83993
2.26523
2.71956
0.849718
0.806187
0.802142
0.854829
0.978852
1.18404
1.4733
1.8399
2.2652
2.71952
0.849711
0.806179
0.802134
0.85482
0.978841
1.18403
1.47328
1.83988
2.26518
2.7195
0.84971
0.806178
0.802132
0.854817
0.978837
1.18402
1.47328
1.83987
2.26517
2.71949
0.849714
0.806181
0.802135
0.854819
0.978839
1.18403
1.47328
1.83988
2.26517
2.7195
0.849722
0.80619
0.802143
0.854828
0.978848
1.18404
1.47329
1.83989
2.26519
2.71952
0.849737
0.806203
0.802157
0.854842
0.978864
1.18406
1.47331
1.83992
2.26522
2.71955
0.849756
0.806222
0.802176
0.854863
0.978887
1.18408
1.47335
1.83996
2.26526
2.7196
0.849781
0.806247
0.802201
0.854889
0.978916
1.18412
1.47339
1.84
2.26532
2.71967
0.621558
0.613667
0.627685
0.678616
0.778041
0.932354
1.14106
1.39455
1.67196
1.9416
0.621544
0.613652
0.627669
0.678598
0.77802
0.93233
1.14103
1.39452
1.67192
1.94156
0.621535
0.613642
0.627658
0.678585
0.778005
0.932312
1.14101
1.39449
1.67189
1.94153
0.62153
0.613637
0.627651
0.678578
0.777997
0.932302
1.141
1.39448
1.67188
1.94151
0.621529
0.613635
0.62765
0.678575
0.777993
0.932298
1.14099
1.39447
1.67187
1.9415
0.621532
0.613638
0.627652
0.678578
0.777996
0.9323
1.14099
1.39448
1.67188
1.94151
0.62154
0.613646
0.62766
0.678585
0.778004
0.93231
1.14101
1.39449
1.67189
1.94153
0.621551
0.613657
0.627671
0.678598
0.778018
0.932325
1.14102
1.39451
1.67192
1.94155
0.621567
0.613673
0.627688
0.678615
0.778037
0.932348
1.14105
1.39454
1.67195
1.9416
0.621586
0.613693
0.627708
0.678637
0.778062
0.932376
1.14108
1.39458
1.672
1.94165
0.496732
0.515731
0.540557
0.590806
0.678084
0.807505
0.976812
1.17387
1.37196
1.5198
0.496722
0.51572
0.540546
0.590793
0.678069
0.807487
0.976791
1.17385
1.37193
1.51977
0.496715
0.515712
0.540536
0.590782
0.678056
0.807473
0.976774
1.17383
1.37191
1.51975
0.496711
0.515707
0.540531
0.590776
0.678049
0.807463
0.976763
1.17381
1.3719
1.51973
0.49671
0.515706
0.540529
0.590774
0.678046
0.80746
0.976759
1.17381
1.37189
1.51973
0.496713
0.515709
0.540532
0.590776
0.678049
0.807463
0.976762
1.17381
1.3719
1.51973
0.496719
0.515715
0.540539
0.590783
0.678056
0.807471
0.976772
1.17382
1.37191
1.51975
0.496729
0.515726
0.540549
0.590795
0.678069
0.807486
0.976789
1.17384
1.37193
1.51977
0.496742
0.51574
0.540564
0.59081
0.678087
0.807506
0.976813
1.17387
1.37197
1.51981
0.496759
0.515757
0.540582
0.59083
0.678109
0.807532
0.976843
1.17391
1.37201
1.51985
40.2635
46.808
50.2527
52.2977
53.5796
54.3984
54.92
55.2439
55.4309
55.5165
40.2631
46.8076
50.2522
52.2972
53.5791
54.3979
54.9195
55.2434
55.4305
55.5161
40.2628
46.8073
50.2519
52.2969
53.5788
54.3976
54.9192
55.243
55.4302
55.5159
40.2627
46.8071
50.2517
52.2967
53.5786
54.3974
54.919
55.2429
55.43
55.5157
40.2626
46.807
50.2516
52.2966
53.5785
54.3973
54.9189
55.2428
55.43
55.5157
40.2626
46.8071
50.2517
52.2967
53.5786
54.3974
54.9189
55.2429
55.43
55.5157
40.2627
46.8072
50.2518
52.2968
53.5787
54.3975
54.9191
55.243
55.4302
55.5159
40.2629
46.8073
50.252
52.297
53.579
54.3978
54.9194
55.2433
55.4305
55.5162
40.2631
46.8076
50.2523
52.2974
53.5793
54.3981
54.9197
55.2437
55.4309
55.5166
40.2633
46.8079
50.2527
52.2977
53.5797
54.3986
54.9202
55.2441
55.4313
55.517
27.7303
32.9658
36.2585
38.334
39.6567
40.5035
41.0418
41.3752
41.5673
41.655
27.73
32.9655
36.2581
38.3336
39.6563
40.5031
41.0415
41.3748
41.5669
41.6547
27.7298
32.9652
36.2579
38.3333
39.6561
40.5029
41.0412
41.3745
41.5667
41.6545
27.7297
32.9651
36.2577
38.3332
39.6559
40.5027
41.041
41.3744
41.5665
41.6544
27.7296
32.965
36.2577
38.3331
39.6559
40.5026
41.041
41.3743
41.5665
41.6543
27.7296
32.965
36.2577
38.3331
39.6559
40.5027
41.041
41.3744
41.5665
41.6544
27.7297
32.9651
36.2578
38.3332
39.656
40.5028
41.0412
41.3745
41.5667
41.6545
27.7298
32.9653
36.258
38.3334
39.6562
40.503
41.0414
41.3748
41.5669
41.6548
27.73
32.9655
36.2582
38.3337
39.6565
40.5034
41.0417
41.3751
41.5673
41.6551
27.7303
32.9658
36.2586
38.3341
39.6569
40.5038
41.0421
41.3755
41.5677
41.6556
19.5956
23.2391
25.8547
27.642
28.8357
29.6208
30.1278
30.4447
30.6283
30.7123
19.5953
23.2389
25.8544
27.6417
28.8354
29.6205
30.1275
30.4443
30.628
30.7121
19.5952
23.2387
25.8542
27.6415
28.8352
29.6202
30.1272
30.4441
30.6278
30.7119
19.5951
23.2385
25.8541
27.6414
28.8351
29.6201
30.1271
30.444
30.6277
30.7118
19.595
23.2385
25.8541
27.6413
28.835
29.6201
30.1271
30.444
30.6276
30.7118
19.595
23.2385
25.8541
27.6413
28.835
29.6201
30.1271
30.444
30.6277
30.7119
19.5951
23.2386
25.8542
27.6414
28.8351
29.6202
30.1272
30.4441
30.6278
30.712
19.5952
23.2387
25.8543
27.6416
28.8353
29.6204
30.1274
30.4444
30.628
30.7122
19.5954
23.2389
25.8545
27.6419
28.8356
29.6207
30.1277
30.4447
30.6283
30.7125
19.5956
23.2392
25.8549
27.6422
28.8359
29.621
30.1281
30.445
30.6287
30.7129
13.8632
16.3177
18.2353
19.6365
20.6188
21.2872
21.7292
22.0099
22.1742
22.2499
13.8631
16.3175
18.2351
19.6362
20.6186
21.287
21.7289
22.0096
22.174
22.2497
13.8629
16.3173
18.2349
19.6361
20.6184
21.2868
21.7288
22.0095
22.1738
22.2496
13.8629
16.3173
18.2348
19.636
20.6183
21.2867
21.7287
22.0094
22.1737
22.2495
13.8628
16.3172
18.2348
19.6359
20.6183
21.2867
21.7286
22.0093
22.1737
22.2495
13.8628
16.3172
18.2348
19.636
20.6183
21.2867
21.7287
22.0094
22.1737
22.2495
13.8629
16.3173
18.2349
19.636
20.6184
21.2868
21.7288
22.0095
22.1739
22.2496
13.863
16.3174
18.235
19.6362
20.6185
21.287
21.7289
22.0097
22.174
22.2498
13.8631
16.3176
18.2352
19.6364
20.6188
21.2872
21.7292
22.0099
22.1743
22.2501
13.8633
16.3178
18.2354
19.6367
20.6191
21.2875
21.7295
22.0102
22.1746
22.2504
9.73124
11.3653
12.7127
13.7487
14.5065
15.0395
15.4011
15.635
15.7737
15.8382
9.7311
11.3652
12.7126
13.7485
14.5063
15.0394
15.4009
15.6348
15.7736
15.838
9.731
11.365
12.7124
13.7484
14.5061
15.0392
15.4007
15.6347
15.7734
15.8379
9.73094
11.365
12.7124
13.7483
14.5061
15.0391
15.4007
15.6346
15.7734
15.8378
9.73091
11.3649
12.7123
13.7483
14.506
15.0391
15.4006
15.6346
15.7734
15.8378
9.73092
11.3649
12.7124
13.7483
14.5061
15.0391
15.4007
15.6346
15.7734
15.8379
9.73096
11.365
12.7124
13.7484
14.5061
15.0392
15.4007
15.6347
15.7735
15.838
9.73105
11.3651
12.7125
13.7485
14.5063
15.0394
15.4009
15.6349
15.7736
15.8381
9.73117
11.3652
12.7127
13.7487
14.5065
15.0395
15.4011
15.6351
15.7739
15.8383
9.73132
11.3654
12.7129
13.7489
14.5067
15.0398
15.4013
15.6353
15.7741
15.8386
6.75719
7.83344
8.75325
9.48812
10.0449
10.4487
10.7293
10.9143
11.0256
11.0777
6.75708
7.83332
8.75312
9.48799
10.0448
10.4485
10.7291
10.9142
11.0255
11.0776
6.757
7.83324
8.75303
9.48789
10.0447
10.4484
10.729
10.9141
11.0254
11.0775
6.75695
7.83318
8.75297
9.48783
10.0446
10.4484
10.729
10.914
11.0253
11.0775
6.75693
7.83316
8.75295
9.48781
10.0446
10.4483
10.7289
10.914
11.0253
11.0775
6.75694
7.83318
8.75297
9.48782
10.0446
10.4484
10.729
10.9141
11.0254
11.0775
6.75698
7.83322
8.75302
9.48788
10.0447
10.4484
10.729
10.9141
11.0254
11.0776
6.75705
7.8333
8.7531
9.48798
10.0448
10.4485
10.7291
10.9142
11.0255
11.0777
6.75714
7.83341
8.75323
9.48811
10.045
10.4487
10.7293
10.9144
11.0257
11.0779
6.75727
7.83355
8.75339
9.48829
10.0451
10.4489
10.7295
10.9146
11.0259
11.0781
4.64335
5.33948
5.95044
6.45382
6.84691
7.13973
7.34799
7.48791
7.57318
7.61343
4.64327
5.33939
5.95034
6.45372
6.8468
7.13962
7.34788
7.4878
7.57308
7.61336
4.64321
5.33933
5.95027
6.45365
6.84673
7.13955
7.3478
7.48773
7.57301
7.6133
4.64318
5.33929
5.95023
6.4536
6.84668
7.1395
7.34776
7.48768
7.57297
7.61326
4.64316
5.33927
5.95021
6.45359
6.84667
7.13949
7.34775
7.48768
7.57297
7.61326
4.64317
5.33928
5.95022
6.4536
6.84669
7.13951
7.34777
7.4877
7.573
7.61329
4.6432
5.33932