/*--------------------------------*- C++ -*----------------------------------*\
  =========                 |
  \\      /  F ield         | OpenFOAM: The Open Source CFD Toolbox
   \\    /   O peration     | Website:  https://openfoam.org
    \\  /    A nd           | Version:  6
     \\/     M anipulation  |
\*---------------------------------------------------------------------------*/
FoamFile
{
    version     2.0;
    format      ascii;
    class       volScalarField;
    location    "0.35";
    object      T;
}
// * * * * * * * * * * * * * * * * * * * * * * * * * * * * * * * * * * * * * //

dimensions      [0 0 0 1 0 0 0];

internalField   nonuniform List<scalar> 
7000
(
104.729
104.728
104.726
104.722
104.718
104.713
104.708
104.704
104.701
104.699
104.729
104.728
104.726
104.722
104.718
104.713
104.708
104.704
104.701
104.699
104.729
104.728
104.726
104.722
104.718
104.713
104.708
104.704
104.701
104.699
104.729
104.728
104.726
104.722
104.718
104.713
104.708
104.704
104.701
104.699
104.729
104.728
104.726
104.722
104.718
104.713
104.708
104.704
104.701
104.699
104.729
104.728
104.726
104.722
104.718
104.713
104.708
104.704
104.701
104.699
104.729
104.728
104.726
104.722
104.718
104.713
104.708
104.704
104.701
104.699
104.729
104.728
104.726
104.722
104.718
104.713
104.708
104.704
104.701
104.699
104.729
104.728
104.726
104.722
104.718
104.713
104.708
104.704
104.701
104.699
104.729
104.728
104.726
104.722
104.718
104.713
104.708
104.704
104.701
104.699
94.2623
94.2585
94.2512
94.2406
94.2274
94.2124
94.1971
94.1832
94.1725
94.1667
94.2622
94.2585
94.2511
94.2406
94.2273
94.2124
94.1971
94.1832
94.1725
94.1666
94.2622
94.2585
94.2511
94.2405
94.2273
94.2124
94.1971
94.1831
94.1724
94.1666
94.2622
94.2584
94.2511
94.2405
94.2273
94.2123
94.197
94.1831
94.1724
94.1666
94.2622
94.2584
94.2511
94.2405
94.2273
94.2123
94.197
94.1831
94.1724
94.1666
94.2622
94.2584
94.2511
94.2405
94.2273
94.2123
94.197
94.1831
94.1724
94.1666
94.2622
94.2584
94.2511
94.2405
94.2273
94.2123
94.197
94.1831
94.1724
94.1666
94.2622
94.2584
94.2511
94.2405
94.2273
94.2123
94.1971
94.1831
94.1724
94.1666
94.2622
94.2585
94.2511
94.2405
94.2273
94.2124
94.1971
94.1831
94.1724
94.1666
94.2622
94.2585
94.2511
94.2406
94.2273
94.2124
94.1971
94.1832
94.1725
94.1666
84.0164
84.0097
83.9965
83.9775
83.9535
83.9261
83.8977
83.8716
83.8513
83.8402
84.0163
84.0096
83.9965
83.9774
83.9534
83.926
83.8977
83.8716
83.8513
83.8401
84.0163
84.0096
83.9964
83.9774
83.9534
83.926
83.8976
83.8715
83.8512
83.8401
84.0162
84.0095
83.9964
83.9774
83.9533
83.926
83.8976
83.8715
83.8512
83.8401
84.0162
84.0095
83.9964
83.9774
83.9533
83.9259
83.8976
83.8715
83.8512
83.8401
84.0162
84.0095
83.9964
83.9773
83.9533
83.9259
83.8976
83.8715
83.8512
83.8401
84.0162
84.0095
83.9964
83.9774
83.9533
83.926
83.8976
83.8715
83.8512
83.8401
84.0162
84.0095
83.9964
83.9774
83.9534
83.926
83.8976
83.8715
83.8512
83.8401
84.0163
84.0096
83.9965
83.9774
83.9534
83.926
83.8977
83.8716
83.8513
83.8401
84.0163
84.0096
83.9965
83.9775
83.9534
83.9261
83.8977
83.8716
83.8513
83.8402
74.1286
74.1183
74.0981
74.0684
74.0306
73.9868
73.9407
73.8974
73.8632
73.8442
74.1285
74.1182
74.098
74.0684
74.0305
73.9867
73.9406
73.8973
73.8632
73.8441
74.1284
74.1182
74.0979
74.0683
74.0305
73.9867
73.9406
73.8973
73.8631
73.8441
74.1284
74.1181
74.0979
74.0683
74.0304
73.9866
73.9405
73.8973
73.8631
73.8441
74.1284
74.1181
74.0979
74.0682
74.0304
73.9866
73.9405
73.8972
73.8631
73.844
74.1284
74.1181
74.0979
74.0682
74.0304
73.9866
73.9405
73.8972
73.8631
73.844
74.1284
74.1181
74.0979
74.0683
74.0304
73.9866
73.9405
73.8973
73.8631
73.8441
74.1284
74.1181
74.0979
74.0683
74.0305
73.9867
73.9406
73.8973
73.8631
73.8441
74.1284
74.1182
74.098
74.0683
74.0305
73.9867
73.9406
73.8973
73.8632
73.8441
74.1285
74.1182
74.098
74.0684
74.0306
73.9868
73.9407
73.8974
73.8632
73.8442
64.7214
64.7068
64.6777
64.6345
64.5785
64.5124
64.4411
64.3723
64.3166
64.2849
64.7213
64.7067
64.6776
64.6344
64.5784
64.5123
64.441
64.3722
64.3165
64.2848
64.7213
64.7066
64.6775
64.6344
64.5784
64.5122
64.4409
64.3722
64.3164
64.2848
64.7212
64.7066
64.6775
64.6343
64.5783
64.5122
64.4409
64.3721
64.3164
64.2847
64.7212
64.7065
64.6774
64.6343
64.5783
64.5122
64.4408
64.3721
64.3164
64.2847
64.7212
64.7065
64.6774
64.6343
64.5783
64.5122
64.4408
64.3721
64.3164
64.2847
64.7212
64.7066
64.6775
64.6343
64.5783
64.5122
64.4409
64.3721
64.3164
64.2847
64.7212
64.7066
64.6775
64.6344
64.5784
64.5122
64.4409
64.3722
64.3165
64.2848
64.7213
64.7066
64.6775
64.6344
64.5784
64.5123
64.441
64.3722
64.3165
64.2848
64.7213
64.7067
64.6776
64.6345
64.5785
64.5124
64.441
64.3723
64.3166
64.2849
55.8987
55.8787
55.8387
55.7785
55.6987
55.6021
55.4945
55.387
55.2964
55.2431
55.8986
55.8786
55.8386
55.7784
55.6986
55.602
55.4944
55.3869
55.2963
55.2431
55.8985
55.8785
55.8385
55.7783
55.6986
55.6019
55.4943
55.3868
55.2962
55.243
55.8985
55.8785
55.8385
55.7782
55.6985
55.6019
55.4943
55.3868
55.2962
55.243
55.8984
55.8785
55.8384
55.7782
55.6985
55.6018
55.4943
55.3867
55.2962
55.243
55.8984
55.8785
55.8384
55.7782
55.6985
55.6018
55.4943
55.3867
55.2962
55.243
55.8984
55.8785
55.8384
55.7782
55.6985
55.6019
55.4943
55.3868
55.2962
55.243
55.8985
55.8785
55.8385
55.7783
55.6986
55.6019
55.4943
55.3868
55.2963
55.2431
55.8985
55.8786
55.8385
55.7783
55.6986
55.602
55.4944
55.3869
55.2963
55.2431
55.8986
55.8787
55.8386
55.7784
55.6987
55.6021
55.4945
55.387
55.2964
55.2432
47.7422
47.716
47.663
47.582
47.4721
47.3347
47.1754
47.0083
46.8594
46.7669
47.7421
47.7159
47.6629
47.5819
47.472
47.3346
47.1753
47.0082
46.8593
46.7668
47.742
47.7158
47.6628
47.5818
47.472
47.3345
47.1753
47.0081
46.8592
46.7668
47.7419
47.7158
47.6628
47.5817
47.4719
47.3345
47.1752
47.0081
46.8592
46.7667
47.7419
47.7157
47.6627
47.5817
47.4719
47.3345
47.1752
47.0081
46.8592
46.7667
47.7419
47.7157
47.6627
47.5817
47.4719
47.3345
47.1752
47.0081
46.8592
46.7667
47.7419
47.7157
47.6627
47.5817
47.4719
47.3345
47.1752
47.0081
46.8592
46.7667
47.742
47.7158
47.6628
47.5818
47.472
47.3345
47.1753
47.0081
46.8593
46.7668
47.742
47.7158
47.6629
47.5818
47.472
47.3346
47.1753
47.0082
46.8593
46.7669
47.7421
47.7159
47.663
47.5819
47.4721
47.3347
47.1754
47.0083
46.8594
46.767
40.3101
40.2772
40.2097
40.1048
39.9588
39.7694
39.5387
39.2805
39.0308
38.8604
40.31
40.2771
40.2096
40.1047
39.9587
39.7693
39.5386
39.2804
39.0307
38.8603
40.3099
40.277
40.2096
40.1046
39.9587
39.7692
39.5385
39.2803
39.0306
38.8602
40.3099
40.2769
40.2095
40.1046
39.9586
39.7692
39.5385
39.2802
39.0306
38.8602
40.3098
40.2769
40.2095
40.1046
39.9586
39.7691
39.5385
39.2802
39.0306
38.8602
40.3098
40.2769
40.2095
40.1046
39.9586
39.7691
39.5385
39.2802
39.0306
38.8602
40.3099
40.2769
40.2095
40.1046
39.9586
39.7692
39.5385
39.2803
39.0306
38.8602
40.3099
40.277
40.2095
40.1046
39.9587
39.7692
39.5386
39.2803
39.0306
38.8603
40.31
40.277
40.2096
40.1047
39.9587
39.7693
39.5386
39.2804
39.0307
38.8603
40.31
40.2771
40.2097
40.1048
39.9588
39.7694
39.5388
39.2805
39.0308
38.8604
33.6368
33.5971
33.5151
33.3852
33.1995
32.9489
32.6259
32.2332
31.806
31.4629
33.6367
33.597
33.515
33.3851
33.1994
32.9488
32.6258
32.2331
31.8059
31.4629
33.6367
33.597
33.5149
33.385
33.1993
32.9487
32.6257
32.233
31.8059
31.4628
33.6366
33.5969
33.5149
33.3849
33.1993
32.9487
32.6257
32.233
31.8058
31.4628
33.6366
33.5969
33.5148
33.3849
33.1993
32.9487
32.6256
32.2329
31.8058
31.4628
33.6366
33.5969
33.5148
33.3849
33.1993
32.9487
32.6257
32.2329
31.8058
31.4628
33.6366
33.5969
33.5149
33.3849
33.1993
32.9487
32.6257
32.233
31.8059
31.4628
33.6366
33.597
33.5149
33.385
33.1993
32.9487
32.6257
32.233
31.8059
31.4629
33.6367
33.597
33.515
33.3851
33.1994
32.9488
32.6258
32.2331
31.806
31.4629
33.6368
33.5971
33.5151
33.3852
33.1995
32.9489
32.6259
32.2332
31.8061
31.463
27.7334
27.6879
27.5929
27.4404
27.2172
26.9046
26.4774
25.9057
25.1743
24.3939
27.7333
27.6878
27.5928
27.4403
27.2171
26.9046
26.4773
25.9056
25.1742
24.3939
27.7332
27.6877
27.5928
27.4403
27.2171
26.9045
26.4772
25.9055
25.1742
24.3938
27.7332
27.6876
27.5927
27.4402
27.217
26.9044
26.4772
25.9055
25.1741
24.3938
27.7331
27.6876
27.5927
27.4402
27.217
26.9044
26.4772
25.9055
25.1741
24.3938
27.7331
27.6876
27.5927
27.4402
27.217
26.9044
26.4772
25.9055
25.1741
24.3938
27.7332
27.6876
27.5927
27.4402
27.217
26.9045
26.4772
25.9055
25.1742
24.3938
27.7332
27.6877
27.5928
27.4403
27.2171
26.9045
26.4773
25.9056
25.1742
24.3939
27.7333
27.6877
27.5929
27.4403
27.2172
26.9046
26.4773
25.9057
25.1743
24.3939
27.7333
27.6878
27.593
27.4404
27.2173
26.9047
26.4775
25.9058
25.1744
24.394
22.5892
22.5397
22.436
22.2678
22.0178
21.6588
21.1462
20.3991
19.2412
17.1847
22.5891
22.5396
22.4359
22.2677
22.0177
21.6587
21.1462
20.399
19.2411
17.1846
22.589
22.5395
22.4358
22.2676
22.0176
21.6587
21.1461
20.399
19.2411
17.1845
22.589
22.5395
22.4358
22.2675
22.0176
21.6586
21.1461
20.3989
19.241
17.1845
22.5889
22.5394
22.4357
22.2675
22.0176
21.6586
21.146
20.3989
19.241
17.1845
22.5889
22.5394
22.4357
22.2675
22.0176
21.6586
21.146
20.3989
19.241
17.1845
22.589
22.5395
22.4358
22.2676
22.0176
21.6587
21.1461
20.399
19.241
17.1845
22.589
22.5395
22.4358
22.2676
22.0177
21.6587
21.1461
20.399
19.2411
17.1846
22.5891
22.5396
22.4359
22.2677
22.0177
21.6588
21.1462
20.3991
19.2412
17.1846
22.5891
22.5397
22.436
22.2678
22.0178
21.6589
21.1463
20.3992
19.2413
17.1847
18.1744
18.1235
18.0169
17.8435
17.5854
17.2141
16.6849
15.925
14.8128
13.162
18.1743
18.1234
18.0168
17.8434
17.5853
17.214
16.6848
15.9249
14.8127
13.1619
18.1742
18.1234
18.0167
17.8434
17.5853
17.214
16.6848
15.9249
14.8127
13.1619
18.1742
18.1233
18.0167
17.8433
17.5852
17.2139
16.6848
15.9248
14.8127
13.1618
18.1742
18.1233
18.0166
17.8433
17.5852
17.2139
16.6847
15.9248
14.8126
13.1618
18.1742
18.1233
18.0167
17.8433
17.5852
17.2139
16.6847
15.9248
14.8127
13.1618
18.1742
18.1233
18.0167
17.8433
17.5852
17.214
16.6848
15.9248
14.8127
13.1618
18.1742
18.1234
18.0167
17.8434
17.5853
17.214
16.6848
15.9249
14.8127
13.1619
18.1743
18.1235
18.0168
17.8435
17.5854
17.2141
16.6849
15.925
14.8128
13.162
18.1744
18.1235
18.0169
17.8436
17.5855
17.2142
16.685
15.925
14.8129
13.162
14.4431
14.3937
14.2903
14.1231
13.8764
13.5267
13.0413
12.3761
11.4812
10.3311
14.443
14.3936
14.2902
14.1231
13.8763
13.5267
13.0412
12.3761
11.4812
10.331
14.4429
14.3935
14.2902
14.123
13.8763
13.5266
13.0411
12.376
11.4811
10.3309
14.4429
14.3935
14.2901
14.123
13.8762
13.5266
13.0411
12.376
11.4811
10.3309
14.4429
14.3935
14.2901
14.123
13.8762
13.5266
13.0411
12.376
11.4811
10.3309
14.4429
14.3935
14.2901
14.123
13.8762
13.5266
13.0411
12.376
11.4811
10.3309
14.4429
14.3935
14.2901
14.123
13.8763
13.5266
13.0411
12.376
11.4811
10.3309
14.443
14.3936
14.2902
14.123
13.8763
13.5266
13.0412
12.376
11.4812
10.331
14.443
14.3936
14.2903
14.1231
13.8764
13.5267
13.0412
12.3761
11.4812
10.331
14.4431
14.3937
14.2903
14.1232
13.8765
13.5268
13.0413
12.3762
11.4813
10.3311
11.3371
11.2916
11.1968
11.045
10.8243
10.5188
10.1091
9.57636
8.91193
8.14239
11.3371
11.2915
11.1967
11.0449
10.8242
10.5187
10.1091
9.5763
8.91187
8.14233
11.337
11.2915
11.1967
11.0449
10.8242
10.5186
10.109
9.57625
8.91183
8.14229
11.337
11.2914
11.1967
11.0448
10.8242
10.5186
10.109
9.57622
8.9118
8.14226
11.337
11.2914
11.1966
11.0448
10.8242
10.5186
10.109
9.57621
8.91179
8.14225
11.337
11.2914
11.1966
11.0448
10.8242
10.5186
10.109
9.57622
8.91179
8.14225
11.337
11.2915
11.1967
11.0449
10.8242
10.5186
10.109
9.57624
8.91182
8.14227
11.337
11.2915
11.1967
11.0449
10.8242
10.5187
10.109
9.57628
8.91186
8.14231
11.3371
11.2915
11.1968
11.045
10.8243
10.5187
10.1091
9.57634
8.91191
8.14237
11.3371
11.2916
11.1968
11.045
10.8244
10.5188
10.1092
9.57642
8.91199
8.14244
8.79034
8.75034
8.66766
8.53687
8.35025
8.09866
7.77358
7.3714
6.90169
6.40063
8.79027
8.75028
8.6676
8.53681
8.35019
8.0986
7.77352
7.37135
6.90164
6.40058
8.79023
8.75024
8.66756
8.53677
8.35015
8.09856
7.77348
7.37131
6.9016
6.40054
8.7902
8.75021
8.66753
8.53674
8.35013
8.09854
7.77346
7.37128
6.90158
6.40052
8.79019
8.7502
8.66752
8.53673
8.35012
8.09853
7.77345
7.37127
6.90157
6.40051
8.79019
8.7502
8.66752
8.53674
8.35012
8.09854
7.77346
7.37128
6.90157
6.40051
8.79021
8.75022
8.66754
8.53676
8.35014
8.09856
7.77348
7.3713
6.90159
6.40053
8.79025
8.75026
8.66758
8.5368
8.35018
8.0986
7.77352
7.37134
6.90163
6.40057
8.79029
8.7503
8.66763
8.53685
8.35023
8.09865
7.77357
7.37139
6.90168
6.40062
8.79034
8.75037
8.6677
8.53692
8.3503
8.09872
7.77364
7.37146
6.90174
6.40068
6.73272
6.6991
6.63015
6.52257
6.37216
6.17503
5.92969
5.64065
5.32353
5.01114
6.73267
6.69905
6.6301
6.52252
6.37211
6.17498
5.92964
5.6406
5.32348
5.01109
6.73263
6.69901
6.63006
6.52248
6.37208
6.17495
5.92961
5.64057
5.32345
5.01106
6.73261
6.69899
6.63004
6.52246
6.37206
6.17492
5.92959
5.64055
5.32343
5.01104
6.7326
6.69898
6.63003
6.52245
6.37205
6.17492
5.92958
5.64054
5.32342
5.01103
6.7326
6.69898
6.63003
6.52246
6.37206
6.17492
5.92959
5.64054
5.32342
5.01103
6.73262
6.699
6.63005
6.52248
6.37208
6.17494
5.92961
5.64056
5.32344
5.01105
6.73265
6.69903
6.63008
6.52251
6.37211
6.17497
5.92964
5.64059
5.32347
5.01108
6.73269
6.69907
6.63013
6.52256
6.37215
6.17502
5.92968
5.64064
5.32352
5.01112
6.73274
6.69913
6.63019
6.52262
6.37222
6.17508
5.92974
5.6407
5.32357
5.01118
5.09432
5.06716
5.01193
4.92704
4.81091
4.66322
4.48673
4.28989
4.0897
3.91355
5.09427
5.06711
5.01189
4.927
4.81087
4.66318
4.48669
4.28985
4.08966
3.91351
5.09424
5.06708
5.01186
4.92697
4.81084
4.66315
4.48666
4.28982
4.08963
3.91348
5.09422
5.06706
5.01184
4.92695
4.81082
4.66313
4.48665
4.28981
4.08961
3.91346
5.09421
5.06706
5.01183
4.92694
4.81082
4.66313
4.48664
4.2898
4.08961
3.91346
5.09422
5.06706
5.01184
4.92695
4.81082
4.66313
4.48665
4.28981
4.08961
3.91346
5.09423
5.06707
5.01185
4.92697
4.81084
4.66315
4.48666
4.28982
4.08963
3.91348
5.09426
5.0671
5.01188
4.92699
4.81087
4.66318
4.48669
4.28985
4.08965
3.91351
5.09429
5.06714
5.01192
4.92703
4.81091
4.66322
4.48673
4.28989
4.08969
3.91354
5.09433
5.06719
5.01197
4.92708
4.81096
4.66327
4.48678
4.28994
4.08974
3.91359
3.80817
3.78701
3.74439
3.67988
3.59371
3.48777
3.3673
3.24285
3.1323
3.06075
3.80814
3.78698
3.74435
3.67985
3.59368
3.48774
3.36726
3.24282
3.13226
3.06071
3.80811
3.78695
3.74433
3.67983
3.59365
3.48772
3.36724
3.24279
3.13224
3.06069
3.8081
3.78694
3.74431
3.67981
3.59364
3.4877
3.36723
3.24278
3.13222
3.06067
3.80809
3.78693
3.74431
3.67981
3.59363
3.4877
3.36722
3.24277
3.13222
3.06067
3.80809
3.78694
3.74431
3.67981
3.59364
3.4877
3.36723
3.24278
3.13222
3.06067
3.8081
3.78695
3.74432
3.67982
3.59365
3.48772
3.36724
3.24279
3.13224
3.06068
3.80813
3.78697
3.74435
3.67985
3.59367
3.48774
3.36726
3.24282
3.13226
3.06071
3.80815
3.787
3.74438
3.67988
3.59371
3.48777
3.3673
3.24285
3.13229
3.06074
3.80819
3.78704
3.74442
3.67992
3.59375
3.48782
3.36734
3.24289
3.13234
3.06078
2.81258
2.79663
2.76481
2.71745
2.65579
2.58293
2.50529
2.43478
2.39169
2.40732
2.81255
2.79661
2.76478
2.71742
2.65576
2.5829
2.50526
2.43476
2.39166
2.40729
2.81253
2.79659
2.76476
2.7174
2.65574
2.58288
2.50525
2.43474
2.39164
2.40727
2.81252
2.79657
2.76475
2.71739
2.65573
2.58287
2.50523
2.43473
2.39163
2.40725
2.81251
2.79657
2.76475
2.71739
2.65573
2.58287
2.50523
2.43472
2.39162
2.40725
2.81252
2.79657
2.76475
2.71739
2.65573
2.58287
2.50523
2.43473
2.39163
2.40725
2.81253
2.79658
2.76476
2.7174
2.65574
2.58288
2.50525
2.43474
2.39164
2.40727
2.81254
2.7966
2.76478
2.71742
2.65576
2.5829
2.50527
2.43476
2.39166
2.40729
2.81257
2.79663
2.76481
2.71745
2.65579
2.58293
2.50529
2.43479
2.39169
2.40732
2.8126
2.79666
2.76484
2.71749
2.65583
2.58296
2.50533
2.43482
2.39172
2.40735
2.05244
2.04077
2.0177
1.98394
1.94113
1.89262
1.84474
1.809
1.80728
1.88828
2.05241
2.04075
2.01768
1.98392
1.94111
1.8926
1.84472
1.80898
1.80726
1.88826
2.0524
2.04073
2.01766
1.9839
1.94109
1.89259
1.84471
1.80897
1.80725
1.88824
2.05239
2.04072
2.01765
1.9839
1.94108
1.89258
1.8447
1.80896
1.80724
1.88823
2.05239
2.04072
2.01765
1.98389
1.94108
1.89257
1.84469
1.80896
1.80723
1.88823
2.05239
2.04072
2.01765
1.9839
1.94109
1.89258
1.8447
1.80896
1.80724
1.88823
2.0524
2.04073
2.01766
1.98391
1.94109
1.89259
1.84471
1.80897
1.80725
1.88824
2.05241
2.04074
2.01768
1.98392
1.94111
1.8926
1.84472
1.80899
1.80726
1.88826
2.05243
2.04076
2.0177
1.98394
1.94113
1.89263
1.84475
1.80901
1.80729
1.88829
2.05245
2.04079
2.01773
1.98397
1.94116
1.89266
1.84477
1.80904
1.80732
1.88832
12.5282
10.0912
9.04202
9.08833
10.1774
12.4101
16.0366
21.5124
29.6563
42.0734
12.5281
10.0911
9.04193
9.08824
10.1773
12.41
16.0365
21.5122
29.6561
42.0732
12.528
10.091
9.04187
9.08817
10.1772
12.4099
16.0364
21.5121
29.656
42.073
12.528
10.091
9.04183
9.08813
10.1772
12.4098
16.0363
21.512
29.6559
42.0729
12.528
10.091
9.04181
9.0881
10.1771
12.4098
16.0363
21.512
29.6558
42.0728
12.528
10.091
9.04181
9.0881
10.1771
12.4098
16.0363
21.512
29.6558
42.0728
12.528
10.091
9.04183
9.08812
10.1772
12.4098
16.0363
21.512
29.6559
42.0729
12.5281
10.091
9.04187
9.08816
10.1772
12.4099
16.0363
21.5121
29.6559
42.0729
12.5281
10.0911
9.04192
9.08821
10.1773
12.4099
16.0364
21.5122
29.6561
42.0731
12.5282
10.0911
9.04198
9.08827
10.1773
12.41
16.0365
21.5123
29.6562
42.0732
10.8619
9.25018
8.51184
8.65467
9.7138
11.7966
15.0998
19.9242
26.6717
35.7147
10.8618
9.2501
8.51176
8.65458
9.7137
11.7965
15.0996
19.9241
26.6715
35.7144
10.8617
9.25005
8.5117
8.65451
9.71362
11.7964
15.0995
19.9239
26.6714
35.7143
10.8617
9.25001
8.51166
8.65447
9.71357
11.7963
15.0995
19.9239
26.6713
35.7142
10.8617
9.24999
8.51164
8.65445
9.71355
11.7963
15.0994
19.9238
26.6712
35.7141
10.8617
9.25
8.51164
8.65444
9.71354
11.7963
15.0994
19.9238
26.6712
35.7141
10.8617
9.25002
8.51166
8.65446
9.71356
11.7963
15.0995
19.9239
26.6713
35.7141
10.8618
9.25006
8.5117
8.6545
9.7136
11.7964
15.0995
19.9239
26.6714
35.7142
10.8618
9.25011
8.51176
8.65456
9.71367
11.7964
15.0996
19.924
26.6715
35.7144
10.8619
9.25019
8.51183
8.65464
9.71375
11.7965
15.0997
19.9241
26.6716
35.7146
9.03506
8.06445
7.64994
7.89791
8.88878
10.7212
13.5258
17.4534
22.6201
28.9448
9.03499
8.06438
7.64986
7.89783
8.88869
10.7211
13.5256
17.4532
22.6199
28.9446
9.03494
8.06432
7.64981
7.89776
8.88862
10.7211
13.5255
17.4531
22.6198
28.9444
9.03491
8.06429
7.64977
7.89772
8.88857
10.721
13.5255
17.4531
22.6197
28.9443
9.03489
8.06428
7.64975
7.8977
8.88854
10.721
13.5254
17.453
22.6197
28.9443
9.0349
8.06428
7.64975
7.8977
8.88854
10.721
13.5254
17.453
22.6197
28.9443
9.03492
8.0643
7.64977
7.89772
8.88856
10.721
13.5255
17.453
22.6197
28.9443
9.03496
8.06434
7.64981
7.89776
8.88861
10.721
13.5255
17.4531
22.6198
28.9444
9.03502
8.06439
7.64987
7.89782
8.88867
10.7211
13.5256
17.4532
22.6199
28.9446
9.03509
8.06447
7.64994
7.8979
8.88876
10.7212
13.5257
17.4533
22.62
28.9447
7.37384
6.82008
6.64614
6.9619
7.85118
9.39225
11.6613
14.7154
18.5444
22.9817
7.37378
6.82002
6.64607
6.96182
7.85109
9.39214
11.6612
14.7153
18.5443
22.9815
7.37373
6.81997
6.64602
6.96176
7.85103
9.39207
11.6611
14.7152
18.5442
22.9814
7.3737
6.81994
6.64599
6.96173
7.85098
9.39202
11.6611
14.7151
18.5441
22.9813
7.37369
6.81992
6.64597
6.96171
7.85096
9.392
11.6611
14.7151
18.544
22.9813
7.3737
6.81993
6.64597
6.96171
7.85096
9.39199
11.6611
14.7151
18.544
22.9813
7.37372
6.81995
6.64599
6.96173
7.85098
9.39202
11.6611
14.7151
18.5441
22.9813
7.37375
6.81998
6.64603
6.96177
7.85103
9.39206
11.6611
14.7152
18.5442
22.9814
7.37381
6.82004
6.64608
6.96183
7.85109
9.39214
11.6612
14.7153
18.5443
22.9816
7.37388
6.82011
6.64616
6.9619
7.85117
9.39223
11.6613
14.7154
18.5444
22.9817
5.94586
5.65436
5.63559
5.97671
6.74654
8.00057
9.77837
12.0892
14.8838
18.0166
5.9458
5.6543
5.63553
5.97664
6.74646
8.00048
9.77827
12.0891
14.8837
18.0165
5.94576
5.65425
5.63548
5.97659
6.7464
8.00041
9.77819
12.089
14.8836
18.0164
5.94573
5.65423
5.63545
5.97656
6.74637
8.00037
9.77814
12.089
14.8835
18.0163
5.94572
5.65422
5.63544
5.97654
6.74635
8.00035
9.77812
12.0889
14.8835
18.0163
5.94573
5.65422
5.63544
5.97654
6.74635
8.00035
9.77812
12.0889
14.8835
18.0163
5.94575
5.65424
5.63546
5.97656
6.74637
8.00037
9.77814
12.089
14.8835
18.0163
5.94578
5.65427
5.63549
5.9766
6.74641
8.00042
9.77819
12.089
14.8836
18.0164
5.94583
5.65432
5.63555
5.97665
6.74647
8.00048
9.77827
12.0891
14.8837
18.0165
5.94589
5.65439
5.63561
5.97673
6.74655
8.00057
9.77837
12.0892
14.8839
18.0167
4.75718
4.63162
4.70585
5.04257
5.6922
6.6908
8.05536
9.77418
11.7933
14.0051
4.75713
4.63157
4.70579
5.04251
5.69213
6.69072
8.05527
9.77407
11.7932
14.005
4.75709
4.63153
4.70575
5.04246
5.69208
6.69066
8.0552
9.774
11.7931
14.0049
4.75707
4.63151
4.70572
5.04243
5.69204
6.69062
8.05516
9.77395
11.7931
14.0048
4.75706
4.6315
4.70571
5.04242
5.69203
6.69061
8.05514
9.77392
11.793
14.0048
4.75707
4.6315
4.70571
5.04242
5.69203
6.69061
8.05514
9.77393
11.793
14.0048
4.75708
4.63152
4.70573
5.04244
5.69205
6.69063
8.05516
9.77395
11.7931
14.0048
4.75712
4.63155
4.70576
5.04247
5.69209
6.69067
8.05521
9.77401
11.7931
14.0049
4.75716
4.63159
4.70581
5.04252
5.69214
6.69073
8.05528
9.77409
11.7932
14.005
4.75722
4.63165
4.70587
5.04259
5.69221
6.69081
8.05537
9.77419
11.7934
14.0051
3.79771
3.78189
3.9114
4.22979
4.77219
5.56036
6.59764
7.86318
9.30707
10.8514
3.79766
3.78184
3.91135
4.22973
4.77213
5.56029
6.59756
7.86309
9.30697
10.8513
3.79763
3.78181
3.91131
4.22969
4.77208
5.56024
6.5975
7.86302
9.3069
10.8512
3.79761
3.78179
3.91129
4.22966
4.77205
5.56021
6.59747
7.86298
9.30685
10.8512
3.79761
3.78178
3.91128
4.22965
4.77204
5.56019
6.59745
7.86296
9.30683
10.8511
3.79761
3.78179
3.91128
4.22966
4.77204
5.56019
6.59745
7.86297
9.30683
10.8511
3.79763
3.7818
3.9113
4.22967
4.77206
5.56021
6.59747
7.86299
9.30686
10.8512
3.79765
3.78183
3.91133
4.2297
4.7721
5.56025
6.59752
7.86304
9.30692
10.8512
3.79769
3.78187
3.91137
4.22975
4.77215
5.56031
6.59758
7.86311
9.307
10.8513
3.79774
3.78192
3.91143
4.22981
4.77221
5.56038
6.59766
7.86321
9.30711
10.8514
3.05376
3.11961
3.28594
3.58497
4.04228
4.67036
5.46381
6.39562
7.41611
8.46058
3.05373
3.11957
3.2859
3.58492
4.04222
4.67029
5.46374
6.39554
7.41603
8.46048
3.0537
3.11954
3.28586
3.58488
4.04218
4.67025
5.46369
6.39548
7.41597
8.46042
3.05368
3.11952
3.28584
3.58486
4.04216
4.67022
5.46366
6.39545
7.41593
8.46038
3.05368
3.11952
3.28584
3.58485
4.04215
4.6702
5.46364
6.39543
7.41591
8.46036
3.05368
3.11952
3.28584
3.58485
4.04215
4.67021
5.46365
6.39544
7.41591
8.46036
3.0537
3.11954
3.28585
3.58487
4.04217
4.67023
5.46367
6.39546
7.41594
8.46039
3.05372
3.11956
3.28588
3.5849
4.0422
4.67026
5.46371
6.39551
7.41599
8.46045
3.05375
3.1196
3.28592
3.58494
4.04225
4.67031
5.46377
6.39557
7.41606
8.46053
3.0538
3.11964
3.28597
3.58499
4.04231
4.67038
5.46384
6.39566
7.41616
8.46063
2.5155
2.65528
2.85189
3.13835
3.5378
4.05803
4.68759
5.39209
6.11156
6.7657
2.51546
2.65524
2.85185
3.1383
3.53775
4.05797
4.68753
5.39202
6.11148
6.76562
2.51544
2.65521
2.85182
3.13827
3.53772
4.05793
4.68749
5.39198
6.11143
6.76556
2.51543
2.6552
2.8518
3.13825
3.5377
4.05791
4.68746
5.39194
6.1114
6.76553
2.51542
2.65519
2.8518
3.13824
3.53769
4.0579
4.68745
5.39193
6.11138
6.76551
2.51543
2.6552
2.8518
3.13825
3.53769
4.0579
4.68745
5.39194
6.11139
6.76552
2.51544
2.65521
2.85181
3.13826
3.53771
4.05792
4.68747
5.39196
6.11142
6.76555
2.51546
2.65523
2.85184
3.13829
3.53774
4.05795
4.68751
5.392
6.11146
6.7656
2.51549
2.65527
2.85187
3.13833
3.53778
4.058
4.68756
5.39206
6.11153
6.76567
2.51553
2.65531
2.85192
3.13838
3.53784
4.05806
4.68763
5.39214
6.11161
6.76576
2.19401
2.40641
2.6273
2.90954
3.28022
3.746
4.29183
4.87582
5.41856
5.77816
2.19398
2.40638
2.62727
2.90951
3.28018
3.74596
4.29178
4.87577
5.4185
5.7781
2.19396
2.40636
2.62725
2.90948
3.28015
3.74592
4.29174
4.87573
5.41846
5.77805
2.19395
2.40635
2.62723
2.90946
3.28013
3.7459
4.29172
4.8757
5.41843
5.77802
2.19394
2.40634
2.62722
2.90945
3.28013
3.74589
4.29171
4.87569
5.41842
5.77801
2.19395
2.40634
2.62723
2.90946
3.28013
3.74589
4.29171
4.8757
5.41842
5.77802
2.19396
2.40636
2.62724
2.90947
3.28015
3.74591
4.29173
4.87572
5.41845
5.77804
2.19398
2.40638
2.62727
2.9095
3.28017
3.74594
4.29177
4.87576
5.41849
5.77809
2.19401
2.40641
2.6273
2.90953
3.28022
3.74599
4.29182
4.87581
5.41855
5.77815
2.19404
2.40645
2.62734
2.90958
3.28027
3.74605
4.29188
4.87589
5.41863
5.77824
62.3996
71.4841
76.6191
79.9195
82.1656
83.7235
84.7979
85.515
85.9541
86.1627
62.3993
71.4838
76.6187
79.9191
82.1652
83.7231
84.7975
85.5146
85.9538
86.1624
62.3991
71.4835
76.6185
79.9189
82.1649
83.7228
84.7973
85.5144
85.9535
86.1622
62.3989
71.4834
76.6183
79.9187
82.1648
83.7227
84.7971
85.5142
85.9534
86.162
62.3989
71.4833
76.6182
79.9186
82.1647
83.7226
84.797
85.5141
85.9533
86.162
62.3989
71.4833
76.6182
79.9186
82.1647
83.7226
84.7971
85.5142
85.9534
86.162
62.3989
71.4834
76.6183
79.9187
82.1648
83.7227
84.7972
85.5143
85.9535
86.1621
62.3991
71.4835
76.6185
79.9189
82.165
83.7229
84.7974
85.5145
85.9537
86.1624
62.3992
71.4837
76.6187
79.9191
82.1653
83.7232
84.7977
85.5148
85.954
86.1626
62.3994
71.484
76.619
79.9194
82.1656
83.7235
84.798
85.5151
85.9543
86.163
46.6155
54.2541
59.3353
62.7655
65.1239
66.7577
67.8803
68.6266
69.0824
69.2984
46.6152
54.2538
59.335
62.7652
65.1236
66.7574
67.8799
68.6263
69.082
69.2982
46.615
54.2536
59.3348
62.7649
65.1234
66.7572
67.8797
68.626
69.0818
69.298
46.6149
54.2534
59.3346
62.7648
65.1232
66.757
67.8795
68.6259
69.0817
69.2979
46.6149
54.2534
59.3346
62.7647
65.1232
66.7569
67.8795
68.6259
69.0817
69.2978
46.6149
54.2534
59.3346
62.7647
65.1232
66.757
67.8795
68.6259
69.0817
69.2979
46.6149
54.2535
59.3346
62.7648
65.1233
66.7571
67.8796
68.626
69.0818
69.298
46.615
54.2536
59.3348
62.765
65.1234
66.7572
67.8798
68.6262
69.082
69.2982
46.6152
54.2538
59.335
62.7652
65.1237
66.7575
67.8801
68.6265
69.0823
69.2985
46.6154
54.254
59.3353
62.7655
65.124
66.7578
67.8804
68.6268
69.0826
69.2988
35.7756
41.4458
45.707
48.7976
51.0084
52.5733
53.6612
54.3893
54.8355
55.0474
35.7754
41.4455
45.7067
48.7973
51.0082
52.573
53.6609
54.389
54.8352
55.0472
35.7752
41.4453
45.7065
48.7971
51.008
52.5728
53.6607
54.3888
54.835
55.047
35.7751
41.4452
45.7064
48.797
51.0078
52.5727
53.6606
54.3887
54.8349
55.0469
35.775
41.4452
45.7064
48.797
51.0078
52.5726
53.6605
54.3886
54.8349
55.0469
35.775
41.4452
45.7064
48.797
51.0078
52.5726
53.6606
54.3887
54.8349
55.0469
35.7751
41.4452
45.7064
48.7971
51.0079
52.5727
53.6607
54.3888
54.835
55.047
35.7752
41.4454
45.7066
48.7972
51.008
52.5729
53.6608
54.389
54.8352
55.0472
35.7754
41.4455
45.7068
48.7974
51.0083
52.5731
53.6611
54.3892
54.8355
55.0475
35.7756
41.4458
45.707
48.7977
51.0086
52.5735
53.6614
54.3895
54.8358
55.0478
27.5912
31.701
35.0365
37.6049
39.5213
40.9171
41.9061
42.5763
42.9902
43.1876
27.591
31.7008
35.0363
37.6047
39.5211
40.9168
41.9058
42.576
42.9899
43.1874
27.5909
31.7006
35.0361
37.6045
39.5209
40.9167
41.9057
42.5758
42.9898
43.1873
27.5908
31.7005
35.036
37.6044
39.5208
40.9166
41.9055
42.5757
42.9897
43.1872
27.5907
31.7005
35.0359
37.6044
39.5208
40.9165
41.9055
42.5757
42.9896
43.1872
27.5907
31.7005
35.0359
37.6044
39.5208
40.9165
41.9055
42.5757
42.9897
43.1872
27.5908
31.7005
35.036
37.6044
39.5208
40.9166
41.9056
42.5758
42.9898
43.1873
27.5909
31.7007
35.0361
37.6046
39.521
40.9168
41.9058
42.576
42.9899
43.1875
27.591
31.7008
35.0363
37.6048
39.5212
40.917
41.906
42.5762
42.9902
43.1877
27.5912
31.701
35.0366
37.605
39.5215
40.9173
41.9063
42.5765
42.9905
43.188
21.2239
24.1833
26.7039
28.7347
30.3071
31.4855
32.3382
32.9248
33.2907
33.4662
21.2237
24.1831
26.7037
28.7345
30.3069
31.4853
32.338
32.9245
33.2905
33.4661
21.2236
24.183
26.7036
28.7344
30.3068
31.4851
32.3378
32.9244
33.2903
33.466
21.2235
24.1829
26.7035
28.7343
30.3067
31.485
32.3377
32.9243
33.2903
33.4659
21.2235
24.1829
26.7035
28.7342
30.3067
31.485
32.3377
32.9243
33.2902
33.4659
21.2235
24.1829
26.7035
28.7342
30.3067
31.485
32.3377
32.9243
33.2903
33.4659
21.2236
24.183
26.7035
28.7343
30.3067
31.4851
32.3378
32.9244
33.2904
33.466
21.2236
24.1831
26.7037
28.7344
30.3069
31.4852
32.338
32.9245
33.2905
33.4661
21.2238
24.1832
26.7038
28.7346
30.3071
31.4854
32.3382
32.9247
33.2907
33.4664
21.224
24.1834
26.704
28.7348
30.3073
31.4857
32.3384
32.925
33.291
33.4666
16.2521
18.3648
20.2225
21.7716
23.0091
23.9611
24.6645
25.156
25.466
25.6157
16.252
18.3646
20.2224
21.7714
23.0089
23.9609
24.6643
25.1558
25.4658
25.6155
16.2519
18.3645
20.2223
21.7713
23.0088
23.9608
24.6642
25.1557
25.4657
25.6154
16.2518
18.3644
20.2222
21.7712
23.0087
23.9607
24.6641
25.1556
25.4656
25.6154
16.2518
18.3644
20.2222
21.7712
23.0087
23.9607
24.6641
25.1556
25.4656
25.6154
16.2518
18.3644
20.2222
21.7712
23.0087
23.9607
24.6641
25.1557
25.4657
25.6154
16.2519
18.3645
20.2222
21.7712
23.0087
23.9608
24.6642
25.1557
25.4657
25.6155
16.2519
18.3645
20.2223
21.7713
23.0088
23.9609
24.6643
25.1559
25.4659
25.6156
16.2521
18.3647
20.2225
21.7715
23.009
23.9611
24.6645
25.156
25.4661
25.6158
16.2522
18.3648
20.2226
21.7717
23.0092
23.9613
24.6647
25.1563
25.4663
25.616
12.4037
13.8811
15.2135
16.3572
17.2968
18.0376
18.5961
18.9924
19.2452
19.3681
12.4036
13.881
15.2133
16.357
17.2966
18.0374
18.5959
18.9923
19.2451
19.368
12.4035
13.8809
15.2132
16.3569
17.2965
18.0373
18.5958
18.9922
19.245
19.3679
12.4035
13.8809
15.2132
16.3569
17.2965
18.0372
18.5957
18.9921
19.2449
19.3678
12.4035
13.8808
15.2131
16.3568
17.2964
18.0372
18.5957
18.9921
19.2449
19.3678
12.4035
13.8808
15.2132
16.3569
17.2965
18.0372
18.5957
18.9921
19.2449
19.3678
12.4035
13.8809
15.2132
16.3569
17.2965
18.0373
18.5958
18.9922
19.245
19.3679
12.4036
13.881
15.2133
16.357
17.2966
18.0374
18.5959
18.9923
19.2451
19.368
12.4037
13.8811
15.2134
16.3571
17.2968
18.0375
18.5961
18.9924
19.2453
19.3682
12.4038
13.8812
15.2136
16.3573
17.2969
18.0377
18.5962
18.9926
19.2455
19.3684
9.47496
10.458
11.3746
12.1882
12.8768
13.4334
13.8617
14.1705
14.3696
14.467
9.47486
10.4579
11.3745