/*--------------------------------*- C++ -*----------------------------------*\
  =========                 |
  \\      /  F ield         | OpenFOAM: The Open Source CFD Toolbox
   \\    /   O peration     | Website:  https://openfoam.org
    \\  /    A nd           | Version:  6
     \\/     M anipulation  |
\*---------------------------------------------------------------------------*/
FoamFile
{
    version     2.0;
    format      ascii;
    class       volScalarField;
    location    "0.05";
    object      p;
}
// * * * * * * * * * * * * * * * * * * * * * * * * * * * * * * * * * * * * * //

dimensions      [0 2 -2 0 0 0 0];

internalField   nonuniform List<scalar> 
48800
(
-2.63529e-05
0.00115076
0.00325498
0.00492743
0.00617162
0.00646266
0.00563294
0.00384801
0.00127532
-0.00179424
-0.00497651
-0.00786983
-0.0100892
-0.0113501
-0.0115115
-0.0104683
-0.00849104
-0.0062333
-0.00383669
-0.00261905
-0.00119886
-0.000134482
0.00423498
0.00531902
0.00650233
0.00696441
0.00592159
0.00399523
0.00134502
-0.00182949
-0.00513427
-0.00814601
-0.010468
-0.0119035
-0.01231
-0.0111171
-0.00920765
-0.00749043
-0.00278506
-0.00165424
-0.00353091
-0.00073052
0.00416229
0.00508946
0.00660815
0.00722264
0.00607004
0.0040925
0.0014007
-0.00185133
-0.00524733
-0.0083436
-0.010719
-0.0122184
-0.0127409
-0.0113855
-0.0091137
-0.00749182
-0.00220105
0.000728769
-0.00672212
-0.00299024
0.00278354
0.00443299
0.0064279
0.00720205
0.00609593
0.00416057
0.00146054
-0.00184108
-0.00529557
-0.00843968
-0.0108177
-0.012262
-0.0127136
-0.0111563
-0.00834922
-0.00592967
0.000319343
0.004241
-0.0100071
-0.0053286
0.00139662
0.00362542
0.0059607
0.00696484
0.00601439
0.00416891
0.00149425
-0.00181577
-0.00528404
-0.00842908
-0.010765
-0.0120908
-0.0123432
-0.0104953
-0.00727207
-0.00418856
0.00309224
0.00802209
-0.0130781
-0.00752626
-6.03821e-05
0.00266399
0.00537204
0.00666258
0.00589612
0.00415087
0.00151943
-0.00177565
-0.00523356
-0.00835291
-0.0106229
-0.0118115
-0.0118276
-0.00962517
-0.00594892
-0.00228554
0.00581077
0.0116685
-0.015717
-0.00952347
-0.00146652
0.00171963
0.00479215
0.00635093
0.00575663
0.00411315
0.00153687
-0.00172873
-0.00516192
-0.00824002
-0.0104304
-0.0114791
-0.0112704
-0.00873385
-0.00461825
-0.000417565
0.0083332
0.0148749
-0.0177707
-0.0111144
-0.00261084
0.000940665
0.00430007
0.00607076
0.00562051
0.00406945
0.00154842
-0.00168387
-0.0050879
-0.00812196
-0.0102351
-0.0111575
-0.010759
-0.00795474
-0.00349037
0.00113613
0.0103817
0.0174155
-0.0191681
-0.0122068
-0.00340806
0.000388274
0.00394204
0.00586058
0.00551548
0.00403424
0.00155631
-0.00164871
-0.0050283
-0.00802702
-0.0100807
-0.0109082
-0.0103712
-0.00737889
-0.0026764
0.00223673
0.0118095
0.0191663
-0.0198749
-0.0127639
-0.00381938
9.96108e-05
0.00375262
0.00574828
0.00545901
0.00401513
0.00156046
-0.00162947
-0.00499535
-0.00797466
-0.00999629
-0.0107732
-0.0101629
-0.00707247
-0.00224815
0.00280894
0.0125432
0.0200582
-0.0198749
-0.0127639
-0.00381937
9.96425e-05
0.00375266
0.00574834
0.00545908
0.0040152
0.00156053
-0.00162939
-0.00499527
-0.00797459
-0.00999622
-0.0107731
-0.0101628
-0.00707242
-0.0022481
0.00280899
0.0125433
0.0200582
-0.0191682
-0.0122068
-0.00340802
0.00038835
0.00394215
0.00586072
0.00551563
0.00403441
0.00155648
-0.00164854
-0.00502813
-0.00802686
-0.0100805
-0.010908
-0.0103711
-0.00737876
-0.00267627
0.00223686
0.0118096
0.0191664
-0.0177707
-0.0111144
-0.00261076
0.000940805
0.00430026
0.006071
0.00562077
0.00406973
0.00154871
-0.00168359
-0.00508762
-0.00812169
-0.0102349
-0.0111572
-0.0107588
-0.00795454
-0.00349018
0.00113632
0.0103819
0.0174156
-0.0157171
-0.00952346
-0.0014664
0.00171981
0.00479239
0.0063512
0.00575693
0.00411347
0.0015372
-0.0017284
-0.0051616
-0.00823972
-0.0104301
-0.0114788
-0.0112701
-0.00873363
-0.00461804
-0.000417378
0.00833339
0.014875
-0.0130782
-0.00752626
-6.0259e-05
0.00266418
0.00537228
0.00666286
0.00589643
0.0041512
0.00151977
-0.00177531
-0.00523325
-0.00835262
-0.0106226
-0.0118113
-0.0118273
-0.00962498
-0.00594877
-0.00228538
0.00581096
0.0116687
-0.0100074
-0.00532862
0.00139673
0.00362558
0.0059609
0.00696507
0.00601465
0.00416919
0.00149455
-0.00181548
-0.00528377
-0.00842883
-0.0107648
-0.0120905
-0.012343
-0.0104951
-0.00727193
-0.00418841
0.00309244
0.00802224
-0.00672249
-0.0029903
0.00278363
0.00443314
0.00642806
0.00720224
0.00609615
0.0041608
0.00146076
-0.00184087
-0.00529538
-0.0084395
-0.0108175
-0.0122618
-0.0127134
-0.0111561
-0.00834904
-0.00592946
0.000319569
0.00424116
-0.00353186
-0.000730941
0.00416217
0.00508948
0.00660819
0.0072227
0.00607012
0.0040926
0.00140079
-0.00185126
-0.00524728
-0.00834356
-0.010719
-0.0122182
-0.0127407
-0.0113852
-0.00911345
-0.00749159
-0.00220085
0.000728934
-0.00120507
-0.000135976
0.00423473
0.00531911
0.00650248
0.00696457
0.00592177
0.00399542
0.0013452
-0.00182933
-0.00513413
-0.00814587
-0.0104678
-0.0119032
-0.0123097
-0.0111167
-0.00920719
-0.00749002
-0.00278443
-0.0016541
-7.1594e-05
0.00114483
0.00325422
0.0049274
0.00617177
0.00646289
0.0056332
0.00384828
0.00127557
-0.00179401
-0.0049763
-0.00786962
-0.0100889
-0.0113498
-0.0115112
-0.0104678
-0.00849062
-0.00623296
-0.00383624
-0.0026191
-1.13652
-1.13349
-1.12762
-1.12112
-1.11483
-1.10983
-1.10663
-1.10511
-1.10497
-1.10564
-1.10635
-1.10631
-1.10477
-1.10124
-1.09557
-1.08791
-1.07913
-1.07077
-1.0641
-1.06122
-1.13881
-1.13449
-1.12554
-1.11939
-1.11319
-1.10823
-1.10552
-1.10446
-1.10474
-1.10586
-1.10705
-1.1075
-1.10646
-1.10349
-1.0984
-1.09083
-1.08213
-1.07395
-1.06401
-1.05968
-1.14466
-1.13681
-1.1261
-1.11947
-1.11267
-1.10749
-1.10497
-1.10411
-1.10462
-1.10604
-1.10757
-1.10834
-1.10757
-1.10483
-1.09994
-1.09211
-1.08267
-1.07382
-1.06191
-1.05389
-1.15326
-1.14264
-1.12959
-1.12134
-1.11349
-1.10782
-1.10507
-1.10411
-1.10464
-1.10615
-1.10778
-1.10863
-1.10785
-1.10496
-1.09975
-1.09127
-1.08058
-1.06986
-1.05539
-1.04446
-1.16275
-1.14944
-1.13396
-1.12412
-1.11522
-1.10883
-1.10562
-1.10437
-1.10475
-1.10619
-1.10776
-1.10851
-1.10751
-1.10423
-1.09839
-1.08899
-1.077
-1.06441
-1.04727
-1.03349
-1.17204
-1.15631
-1.13872
-1.1274
-1.11738
-1.11017
-1.10639
-1.10477
-1.10491
-1.10618
-1.10757
-1.1081
-1.10678
-1.10299
-1.0964
-1.08594
-1.07257
-1.05822
-1.03874
-1.02239
-1.18029
-1.16264
-1.14331
-1.13064
-1.11958
-1.11158
-1.10724
-1.10523
-1.10509
-1.10612
-1.1073
-1.10755
-1.10586
-1.10153
-1.0942
-1.08272
-1.06805
-1.05212
-1.03069
-1.01229
-1.18692
-1.16783
-1.14714
-1.13341
-1.1215
-1.11285
-1.10803
-1.10566
-1.10525
-1.10606
-1.10701
-1.107
-1.10495
-1.10015
-1.09217
-1.07985
-1.06411
-1.04691
-1.02397
-1.00405
-1.19153
-1.17148
-1.14988
-1.13542
-1.12291
-1.1138
-1.10862
-1.10599
-1.10537
-1.106
-1.10677
-1.10656
-1.10424
-1.09908
-1.09063
-1.0777
-1.06122
-1.04314
-1.01919
-0.998252
-1.19389
-1.17336
-1.15131
-1.13647
-1.12366
-1.11431
-1.10894
-1.10617
-1.10543
-1.10597
-1.10664
-1.10631
-1.10385
-1.0985
-1.0898
-1.07655
-1.0597
-1.04117
-1.01671
-0.995266
-1.19389
-1.17336
-1.15131
-1.13647
-1.12366
-1.11431
-1.10894
-1.10617
-1.10543
-1.10597
-1.10664
-1.10631
-1.10385
-1.0985
-1.0898
-1.07655
-1.0597
-1.04117
-1.01671
-0.995266
-1.19153
-1.17148
-1.14988
-1.13542
-1.12291
-1.1138
-1.10862
-1.10599
-1.10537
-1.106
-1.10677
-1.10656
-1.10424
-1.09908
-1.09063
-1.0777
-1.06122
-1.04314
-1.01919
-0.998252
-1.18692
-1.16783
-1.14714
-1.13341
-1.1215
-1.11285
-1.10803
-1.10566
-1.10525
-1.10606
-1.10701
-1.107
-1.10495
-1.10015
-1.09217
-1.07985
-1.06411
-1.04691
-1.02397
-1.00405
-1.18029
-1.16264
-1.14331
-1.13064
-1.11958
-1.11158
-1.10724
-1.10523
-1.10509
-1.10612
-1.1073
-1.10755
-1.10586
-1.10153
-1.0942
-1.08272
-1.06805
-1.05212
-1.03069
-1.01229
-1.17204
-1.15631
-1.13872
-1.1274
-1.11738
-1.11017
-1.10639
-1.10477
-1.10491
-1.10618
-1.10757
-1.1081
-1.10678
-1.10299
-1.0964
-1.08594
-1.07257
-1.05822
-1.03874
-1.02239
-1.16275
-1.14944
-1.13396
-1.12412
-1.11522
-1.10883
-1.10562
-1.10437
-1.10475
-1.10619
-1.10776
-1.10851
-1.10751
-1.10423
-1.09839
-1.08899
-1.077
-1.06441
-1.04727
-1.03349
-1.15326
-1.14264
-1.12959
-1.12134
-1.11349
-1.10781
-1.10507
-1.10411
-1.10464
-1.10615
-1.10778
-1.10863
-1.10785
-1.10496
-1.09975
-1.09127
-1.08058
-1.06986
-1.05539
-1.04446
-1.14466
-1.13681
-1.1261
-1.11947
-1.11267
-1.10749
-1.10497
-1.10411
-1.10462
-1.10604
-1.10757
-1.10834
-1.10757
-1.10483
-1.09994
-1.09211
-1.08267
-1.07382
-1.06191
-1.05389
-1.13881
-1.13449
-1.12554
-1.11939
-1.11319
-1.10823
-1.10552
-1.10446
-1.10474
-1.10586
-1.10705
-1.1075
-1.10646
-1.10349
-1.0984
-1.09083
-1.08213
-1.07395
-1.06401
-1.05968
-1.13653
-1.13349
-1.12762
-1.12112
-1.11483
-1.10983
-1.10663
-1.10511
-1.10497
-1.10564
-1.10636
-1.10631
-1.10478
-1.10124
-1.09557
-1.08791
-1.07913
-1.07077
-1.0641
-1.06122
-2.27079
-2.26572
-2.25582
-2.24433
-2.23298
-2.22349
-2.21666
-2.21244
-2.21035
-2.20948
-2.20862
-2.20649
-2.20192
-2.19413
-2.18288
-2.16858
-2.1527
-2.13776
-2.12631
-2.12144
-2.27448
-2.26649
-2.2526
-2.24119
-2.22999
-2.22075
-2.21471
-2.21128
-2.20995
-2.20989
-2.20989
-2.20865
-2.205
-2.19818
-2.18791
-2.17396
-2.15817
-2.14302
-2.12717
-2.11902
-2.2843
-2.27075
-2.25371
-2.24115
-2.22903
-2.21951
-2.21373
-2.21066
-2.20977
-2.21024
-2.21082
-2.21015
-2.20701
-2.20062
-2.19061
-2.17629
-2.15936
-2.14265
-2.12322
-2.10917
-2.29883
-2.28049
-2.25951
-2.24432
-2.23054
-2.22015
-2.21396
-2.21071
-2.20985
-2.21046
-2.21119
-2.21064
-2.20746
-2.20079
-2.1902
-2.17473
-2.15573
-2.13593
-2.1121
-2.09291
-2.31506
-2.29211
-2.26708
-2.24921
-2.2336
-2.22198
-2.21498
-2.21125
-2.2101
-2.21055
-2.21114
-2.21037
-2.20679
-2.19943
-2.18773
-2.17062
-2.14931
-2.12628
-2.09792
-2.07378
-2.33105
-2.30399
-2.27537
-2.25494
-2.23743
-2.2244
-2.21643
-2.21204
-2.21045
-2.21054
-2.21079
-2.20959
-2.2054
-2.19712
-2.1841
-2.16514
-2.14141
-2.11529
-2.08288
-2.05432
-2.34533
-2.31496
-2.28333
-2.26062
-2.24133
-2.22696
-2.21802
-2.21293
-2.21081
-2.21047
-2.21028
-2.20856
-2.20367
-2.19443
-2.18008
-2.15935
-2.13335
-2.10447
-2.06865
-2.03653
-2.35684
-2.32398
-2.29003
-2.26549
-2.24475
-2.22926
-2.21948
-2.21375
-2.21113
-2.21036
-2.20975
-2.20752
-2.20199
-2.19188
-2.17638
-2.15416
-2.12631
-2.09522
-2.05676
-2.02196
-2.36486
-2.33035
-2.29482
-2.26902
-2.24726
-2.23097
-2.22057
-2.21437
-2.21137
-2.21027
-2.20932
-2.2067
-2.20067
-2.18991
-2.17357
-2.15029
-2.12114
-2.08851
-2.04828
-2.0117
-2.36898
-2.33363
-2.29731
-2.27087
-2.2486
-2.23189
-2.22116
-2.2147
-2.2115
-2.21022
-2.20908
-2.20625
-2.19995
-2.18885
-2.17207
-2.14823
-2.11841
-2.08499
-2.04387
-2.0064
-2.36898
-2.33363
-2.29731
-2.27087
-2.2486
-2.23189
-2.22116
-2.2147
-2.2115
-2.21022
-2.20908
-2.20625
-2.19995
-2.18885
-2.17207
-2.14823
-2.11841
-2.08499
-2.04387
-2.0064
-2.36486
-2.33035
-2.29482
-2.26902
-2.24726
-2.23097
-2.22057
-2.21437
-2.21137
-2.21027
-2.20932
-2.2067
-2.20067
-2.18991
-2.17357
-2.15029
-2.12114
-2.08851
-2.04828
-2.0117
-2.35684
-2.32398
-2.29003
-2.26549
-2.24475
-2.22926
-2.21948
-2.21375
-2.21113
-2.21036
-2.20975
-2.20752
-2.20199
-2.19188
-2.17638
-2.15416
-2.12631
-2.09522
-2.05676
-2.02196
-2.34533
-2.31496
-2.28333
-2.26062
-2.24133
-2.22696
-2.21802
-2.21293
-2.21081
-2.21047
-2.21028
-2.20856
-2.20367
-2.19443
-2.18008
-2.15935
-2.13335
-2.10447
-2.06865
-2.03653
-2.33105
-2.30399
-2.27537
-2.25494
-2.23743
-2.2244
-2.21643
-2.21204
-2.21045
-2.21054
-2.21079
-2.20959
-2.2054
-2.19712
-2.1841
-2.16514
-2.14141
-2.11529
-2.08288
-2.05432
-2.31506
-2.29211
-2.26708
-2.24921
-2.2336
-2.22198
-2.21498
-2.21125
-2.2101
-2.21055
-2.21114
-2.21037
-2.20679
-2.19943
-2.18773
-2.17062
-2.14931
-2.12628
-2.09792
-2.07378
-2.29883
-2.28049
-2.25951
-2.24432
-2.23054
-2.22015
-2.21396
-2.21071
-2.20985
-2.21046
-2.21119
-2.21064
-2.20746
-2.20079
-2.1902
-2.17473
-2.15573
-2.13593
-2.1121
-2.09292
-2.2843
-2.27075
-2.25371
-2.24115
-2.22903
-2.21951
-2.21373
-2.21066
-2.20977
-2.21024
-2.21082
-2.21015
-2.20701
-2.20062
-2.19061
-2.17629
-2.15936
-2.14265
-2.12322
-2.10917
-2.27448
-2.26649
-2.2526
-2.24119
-2.22999
-2.22075
-2.21471
-2.21128
-2.20995
-2.20989
-2.20989
-2.20865
-2.205
-2.19818
-2.18791
-2.17396
-2.15817
-2.14302
-2.12717
-2.11902
-2.27079
-2.26572
-2.25582
-2.24433
-2.23298
-2.22349
-2.21666
-2.21244
-2.21035
-2.20948
-2.20862
-2.20649
-2.20192
-2.19413
-2.18288
-2.16858
-2.1527
-2.13776
-2.12631
-2.12144
-3.40158
-3.39409
-3.37971
-3.36294
-3.34654
-3.33289
-3.3231
-3.31716
-3.31436
-3.31336
-3.3124
-3.3096
-3.30322
-3.29204
-3.27565
-3.25465
-3.23113
-3.20876
-3.19163
-3.18419
-3.40712
-3.39474
-3.37529
-3.35828
-3.34208
-3.32891
-3.32024
-3.31545
-3.31378
-3.31399
-3.3143
-3.31284
-3.30785
-3.29813
-3.28316
-3.26282
-3.23944
-3.21637
-3.19343
-3.18037
-3.42163
-3.40132
-3.37709
-3.35815
-3.34068
-3.32713
-3.31879
-3.31453
-3.31353
-3.31452
-3.31568
-3.31506
-3.31084
-3.30174
-3.28713
-3.26628
-3.24125
-3.21557
-3.18703
-3.16527
-3.44301
-3.41553
-3.3855
-3.36281
-3.34295
-3.32812
-3.31915
-3.31464
-3.31365
-3.31482
-3.3162
-3.31573
-3.31143
-3.30191
-3.28637
-3.26376
-3.23568
-3.2054
-3.17021
-3.14056
-3.46691
-3.4326
-3.39667
-3.37004
-3.34749
-3.33083
-3.32069
-3.31544
-3.31404
-3.31494
-3.31608
-3.31525
-3.31033
-3.29975
-3.28254
-3.25744
-3.22583
-3.19069
-3.14869
-3.11153
-3.49043
-3.45008
-3.40887
-3.37848
-3.35313
-3.33443
-3.32286
-3.31664
-3.31455
-3.31492
-3.31551
-3.31402
-3.30815
-3.29618
-3.27696
-3.24908
-3.21379
-3.17396
-3.12586
-3.08203
-3.51144
-3.46621
-3.42057
-3.38682
-3.35889
-3.33823
-3.32523
-3.31797
-3.31509
-3.31479
-3.31471
-3.31241
-3.30548
-3.29204
-3.27082
-3.24026
-3.20158
-3.15757
-3.10432
-3.05513
-3.52837
-3.47946
-3.4304
-3.39398
-3.36393
-3.34163
-3.3274
-3.31919
-3.31557
-3.31462
-3.31388
-3.31081
-3.30289
-3.28814
-3.26518
-3.23238
-3.19091
-3.14357
-3.08635
-3.03313
-3.54019
-3.48882
-3.43744
-3.39918
-3.36764
-3.34417
-3.32903
-3.32012
-3.31593
-3.31447
-3.31322
-3.30955
-3.30088
-3.28515
-3.26092
-3.22651
-3.18307
-3.13343
-3.07353
-3.01763
-3.54625
-3.49366
-3.44111
-3.40191
-3.36961
-3.34553
-3.3299
-3.32062
-3.31612
-3.31438
-3.31286
-3.30886
-3.29979
-3.28353
-3.25863
-3.22339
-3.17894
-3.12811
-3.06687
-3.00964
-3.54625
-3.49366
-3.44111
-3.40191
-3.36961
-3.34553
-3.3299
-3.32062
-3.31612
-3.31438
-3.31286
-3.30886
-3.29979
-3.28353
-3.25863
-3.22339
-3.17894
-3.12811
-3.06687
-3.00964
-3.54019
-3.48882
-3.43744
-3.39918
-3.36764
-3.34417
-3.32903
-3.32012
-3.31593
-3.31447
-3.31322
-3.30955
-3.30088
-3.28515
-3.26092
-3.22651
-3.18307
-3.13343
-3.07353
-3.01763
-3.52837
-3.47946
-3.4304
-3.39398
-3.36393
-3.34163
-3.3274
-3.31919
-3.31557
-3.31462
-3.31388
-3.31081
-3.30289
-3.28814
-3.26518
-3.23238
-3.19091
-3.14357
-3.08635
-3.03313
-3.51144
-3.46621
-3.42057
-3.38682
-3.35889
-3.33823
-3.32523
-3.31797
-3.31509
-3.31479
-3.31471
-3.31241
-3.30548
-3.29204
-3.27082
-3.24026
-3.20158
-3.15757
-3.10432
-3.05513
-3.49043
-3.45008
-3.40887
-3.37848
-3.35313
-3.33443
-3.32286
-3.31664
-3.31455
-3.31492
-3.31551
-3.31402
-3.30815
-3.29618
-3.27696
-3.24908
-3.2138
-3.17397
-3.12586
-3.08203
-3.46691
-3.4326
-3.39667
-3.37004
-3.34749
-3.33083
-3.32069
-3.31544
-3.31404
-3.31494
-3.31608
-3.31525
-3.31033
-3.29975
-3.28254
-3.25744
-3.22583
-3.19069
-3.14869
-3.11153
-3.44301
-3.41553
-3.3855
-3.36281
-3.34295
-3.32812
-3.31915
-3.31464
-3.31365
-3.31482
-3.3162
-3.31573
-3.31143
-3.30191
-3.28637
-3.26376
-3.23568
-3.2054
-3.17021
-3.14056
-3.42163
-3.40132
-3.37709
-3.35815
-3.34068
-3.32713
-3.31879
-3.31453
-3.31353
-3.31452
-3.31568
-3.31506
-3.31084
-3.30174
-3.28713
-3.26628
-3.24125
-3.21557
-3.18703
-3.16527
-3.40712
-3.39474
-3.37529
-3.35828
-3.34208
-3.32891
-3.32024
-3.31545
-3.31378
-3.31399
-3.3143
-3.31284
-3.30785
-3.29813
-3.28316
-3.26282
-3.23944
-3.21637
-3.19343
-3.18037
-3.40158
-3.39409
-3.37971
-3.36294
-3.34654
-3.33289
-3.3231
-3.31716
-3.31436
-3.31336
-3.3124
-3.3096
-3.30322
-3.29204
-3.27565
-3.25465
-3.23113
-3.20876
-3.19163
-3.18419
-4.52711
-4.51666
-4.49715
-4.47473
-4.4533
-4.43597
-4.42421
-4.418
-4.41633
-4.4173
-4.41846
-4.41713
-4.4108
-4.39761
-4.37681
-4.34908
-4.31719
-4.28613
-4.26191
-4.25103
-4.53511
-4.51733
-4.49144
-4.4684
-4.44721
-4.43062
-4.42035
-4.41568
-4.41556
-4.41817
-4.42107
-4.42159
-4.41719
-4.40604
-4.3872
-4.36053
-4.32882
-4.29647
-4.26463
-4.24496
-4.55539
-4.52676
-4.49413
-4.46821
-4.44534
-4.42827
-4.41839
-4.41443
-4.41521
-4.41888
-4.42292
-4.42459
-4.42125
-4.41096
-4.39256
-4.3652
-4.33122
-4.29489
-4.25484
-4.22279
-4.58492
-4.54626
-4.50561
-4.4746
-4.4485
-4.42965
-4.4189
-4.41459
-4.41537
-4.41926
-4.42356
-4.42539
-4.42193
-4.41101
-4.39127
-4.36138
-4.32308
-4.28026
-4.23063
-4.18712
-4.61778
-4.56966
-4.52092
-4.48451
-4.45471
-4.43336
-4.42099
-4.41567
-4.41587
-4.41937
-4.42331
-4.42461
-4.42025
-4.40782
-4.38569
-4.35224
-4.3089
-4.25912
-4.19982
-4.14551
-4.65002
-4.5936
-4.53759
-4.49602
-4.4624
-4.43826
-4.42394
-4.41729
-4.41653
-4.41927
-4.42245
-4.4228
-4.41709
-4.40268
-4.37771
-4.3403
-4.29174
-4.23527
-4.16725
-4.10348
-4.67876
-4.6156
-4.55352
-4.50737
-4.47022
-4.44343
-4.42716
-4.41909
-4.41724
-4.41905
-4.42127
-4.42048
-4.41326
-4.39678
-4.36898
-4.3278
-4.27441
-4.21202
-4.1367
-4.06531
-4.70189
-4.63367
-4.56689
-4.5171
-4.47707
-4.44805
-4.4301
-4.42074
-4.41787
-4.41878
-4.42008
-4.41821
-4.4096
-4.39126
-4.36101
-4.31666
-4.25932
-4.19221
-4.11127
-4.03419
-4.71801
-4.64642
-4.57647
-4.52417
-4.48211
-4.4515
-4.43232
-4.42199
-4.41834
-4.41855
-4.41914
-4.41643
-4.40676
-4.38705
-4.355
-4.30838
-4.24827
-4.17789
-4.09317
-4.01231
-4.72628
-4.653
-4.58145
-4.52787
-4.48478
-4.45333
-4.4335
-4.42267
-4.41859
-4.41842
-4.41862
-4.41545
-4.40522
-4.38477
-4.35178
-4.30398
-4.24244
-4.1704
-4.08378
-4.00105
-4.72628
-4.653
-4.58145
-4.52787
-4.48478
-4.45333
-4.4335
-4.42267
-4.41859
-4.41842
-4.41862
-4.41545
-4.40522
-4.38477
-4.35178
-4.30398
-4.24244
-4.1704
-4.08378
-4.00105
-4.71801
-4.64642
-4.57647
-4.52417
-4.48211
-4.4515
-4.43232
-4.42199
-4.41834
-4.41855
-4.41914
-4.41643
-4.40676
-4.38705
-4.355
-4.30838
-4.24827
-4.17789
-4.09317
-4.01231
-4.70189
-4.63367
-4.56689
-4.5171
-4.47707
-4.44805
-4.4301
-4.42074
-4.41787
-4.41878
-4.42008
-4.41821
-4.4096
-4.39127
-4.36101
-4.31666
-4.25932
-4.19221
-4.11127
-4.03419
-4.67876
-4.6156
-4.55351
-4.50737
-4.47022
-4.44343
-4.42716
-4.41909
-4.41724
-4.41905
-4.42127
-4.42048
-4.41326
-4.39679
-4.36898
-4.3278
-4.27441
-4.21202
-4.1367
-4.06531
-4.65002
-4.5936
-4.53759
-4.49602
-4.46239
-4.43826
-4.42394
-4.41729
-4.41653
-4.41927
-4.42245
-4.4228
-4.41709
-4.40268
-4.37771
-4.3403
-4.29174
-4.23527
-4.16725
-4.10349
-4.61778
-4.56966
-4.52092
-4.48451
-4.45471
-4.43336
-4.42099
-4.41567
-4.41587
-4.41937
-4.42331
-4.42461
-4.42025
-4.40782
-4.38569
-4.35224
-4.3089
-4.25912
-4.19982
-4.14551
-4.58492
-4.54626
-4.50561
-4.4746
-4.4485
-4.42965
-4.4189
-4.41459
-4.41537
-4.41926
-4.42356
-4.42539
-4.42193
-4.41101
-4.39127
-4.36138
-4.32308
-4.28026
-4.23063
-4.18712
-4.55539
-4.52676
-4.49413
-4.46821
-4.44534
-4.42827
-4.41839
-4.41443
-4.41521
-4.41888
-4.42292
-4.42459
-4.42125
-4.41096
-4.39256
-4.36521
-4.33122
-4.29489
-4.25484
-4.22279
-4.53511
-4.51733
-4.49144
-4.4684
-4.44721
-4.43062
-4.42034
-4.41568
-4.41556
-4.41817
-4.42107
-4.42159
-4.41719
-4.40604
-4.3872
-4.36053
-4.32883
-4.29647
-4.26463
-4.24496
-4.52711
-4.51666
-4.49715
-4.47473
-4.4533
-4.43597
-4.42421
-4.418
-4.41633
-4.4173
-4.41846
-4.41713
-4.4108
-4.39761
-4.37681
-4.34908
-4.31719
-4.28613
-4.26191
-4.25103
-5.64482
-5.63072
-5.60526
-5.57674
-5.55037
-5.5301
-5.51778
-5.51334
-5.51535
-5.52126
-5.52768
-5.53092
-5.5274
-5.51433
-5.49036
-5.45607
-5.41492
-5.37345
-5.34017
-5.32453
-5.6561
-5.63161
-5.59815
-5.56855
-5.54247
-5.52323
-5.51279
-5.51033
-5.51436
-5.52239
-5.53109
-5.53675
-5.53582
-5.52549
-5.50414
-5.47141
-5.43053
-5.38701
-5.34367
-5.31494
-5.68353
-5.64459
-5.60199
-5.56837
-5.54009
-5.52023
-5.51026
-5.50869
-5.51388
-5.52327
-5.53344
-5.5406
-5.54105
-5.53184
-5.51104
-5.47738
-5.43339
-5.38413
-5.3291
-5.283
-5.7229
-5.67042
-5.61712
-5.5768
-5.5443
-5.52208
-5.51092
-5.50887
-5.51404
-5.52368
-5.53414
-5.54147
-5.54171
-5.5316
-5.5089
-5.47171
-5.42178
-5.36352
-5.29507
-5.23274
-5.76642
-5.7013
-5.63727
-5.58982
-5.55243
-5.52691
-5.51362
-5.51025
-5.51462
-5.52372
-5.53367
-5.54025
-5.53924
-5.52704
-5.50104
-5.45892
-5.40197
-5.33406
-5.25216
-5.17474
-5.80892
-5.73277
-5.65912
-5.60486
-5.56245
-5.53328
-5.51744
-5.51231
-5.51543
-5.5235
-5.5324
-5.53768
-5.53481
-5.51991
-5.49
-5.44245
-5.37828
-5.30109
-5.20713
-5.11663
-5.84667
-5.7616
-5.67992
-5.61965
-5.57262
-5.53998
-5.52161
-5.51461
-5.51628
-5.52312
-5.53075
-5.53449
-5.52957
-5.51184
-5.47806
-5.42533
-5.35453
-5.26918
-5.16515
-5.06416
-5.87699
-5.78522
-5.69735
-5.63231
-5.58152
-5.54597
-5.5254
-5.51673
-5.51706
-5.5227
-5.5291
-5.53138
-5.52458
-5.50434
-5.46722
-5.41016
-5.33395
-5.24212
-5.13037
-5.02157
-5.89809
-5.80186
-5.70982
-5.64148
-5.58805
-5.55044
-5.52826
-5.51833
-5.51764
-5.52235
-5.52781
-5.52897
-5.52074
-5.49864
-5.45908
-5.39892
-5.31892
-5.22262
-5.10568
-4.99172
-5.9089
-5.81045
-5.71631
-5.6463
-5.59151
-5.55281
-5.52978
-5.51919
-5.51794
-5.52216
-5.52709
-5.52765
-5.51866
-5.49557
-5.45474
-5.39297
-5.31101
-5.21244
-5.0929
-4.97637
-5.9089
-5.81045
-5.71631
-5.6463
-5.59151
-5.55281
-5.52978
-5.51919
-5.51794
-5.52216
-5.52709
-5.52765
-5.51866
-5.49557
-5.45474
-5.39297
-5.31101
-5.21244
-5.0929
-4.97637
-5.89809
-5.80186
-5.70982
-5.64148
-5.58805
-5.55044
-5.52826
-5.51833
-5.51764
-5.52235
-5.52781
-5.52897
-5.52074
-5.49864
-5.45908
-5.39892
-5.31892
-5.22262
-5.10568
-4.99172
-5.87699
-5.78522
-5.69735
-5.63231
-5.58152
-5.54597
-5.5254
-5.51673
-5.51706
-5.5227
-5.5291
-5.53138
-5.52458
-5.50434
-5.46722
-5.41016
-5.33395
-5.24212
-5.13037
-5.02157
-5.84667
-5.7616
-5.67992
-5.61965
-5.57262
-5.53998
-5.52161
-5.51461
-5.51628
-5.52312
-5.53075
-5.53449
-5.52957
-5.51184
-5.47806
-5.42533
-5.35453
-5.26918
-5.16515
-5.06416
-5.80892
-5.73277
-5.65912
-5.60486
-5.56245
-5.53328
-5.51744
-5.51231
-5.51543
-5.5235
-5.5324
-5.53768
-5.53481
-5.51991
-5.49
-5.44245
-5.37828
-5.30109
-5.20713
-5.11663
-5.76642
-5.7013
-5.63727
-5.58982
-5.55243
-5.52691
-5.51362
-5.51025
-5.51462
-5.52372
-5.53367
-5.54025
-5.53924
-5.52704
-5.50104
-5.45892
-5.40197
-5.33406
-5.25216
-5.17474
-5.7229
-5.67042
-5.61711
-5.5768
-5.5443
-5.52208
-5.51092
-5.50887
-5.51404
-5.52368
-5.53414
-5.54147
-5.54171
-5.53161
-5.5089
-5.47171
-5.42178
-5.36353
-5.29508
-5.23274
-5.68353
-5.64459
-5.60199
-5.56837
-5.54009
-5.52023
-5.51026
-5.50869
-5.51388
-5.52327
-5.53344
-5.5406
-5.54105
-5.53184
-5.51104
-5.47739
-5.4334
-5.38413
-5.3291
-5.283
-5.6561
-5.63161
-5.59815
-5.56855
-5.54247
-5.52323
-5.51279
-5.51033
-5.51436
-5.52239
-5.53109
-5.53675
-5.53582
-5.52549
-5.50414
-5.47141
-5.43053
-5.38701
-5.34367
-5.31494
-5.64482
-5.63072
-5.60526
-5.57674
-5.55037
-5.5301
-5.51778
-5.51334
-5.51535
-5.52126
-5.52768
-5.53092
-5.5274
-5.51433
-5.49036
-5.45607
-5.41492
-5.37345
-5.34017
-5.32453
-6.75117
-6.73256
-6.7002
-6.6651
-6.63401
-6.61186
-6.6009
-6.60098
-6.61017
-6.62505
-6.64111
-6.6533
-6.65661
-6.64691
-6.62183
-6.58159
-6.53023
-6.47617
-6.43108
-6.4088
-6.76677
-6.73394
-6.69156
-6.6548
-6.62405
-6.60326
-6.59462
-6.59718
-6.6089
-6.62645
-6.64538
-6.66067
-6.66733
-6.66121
-6.6396
-6.60156
-6.5506
-6.49352
-6.4351
-6.39376
-6.80308
-6.75132
-6.69686
-6.65471
-6.62115
-6.59954
-6.59143
-6.59507
-6.60822
-6.62746
-6.64822
-6.66539
-6.67381
-6.6691
-6.64813
-6.60884
-6.55369
-6.48851
-6.4137
-6.34815
-6.85434
-6.78477
-6.71634
-6.66556
-6.62659
-6.60192
-6.59226
-6.59525
-6.60834
-6.62783
-6.64891
-6.66622
-6.67428
-6.66831
-6.64469
-6.60055
-6.53731
-6.45981
-6.3664
-6.2782
-6.91059
-6.82452
-6.74219
-6.68222
-6.63695
-6.60804
-6.59564
-6.59692
-6.60897
-6.62773
-6.64809
-6.66437
-6.67071
-6.66191
-6.63381
-6.58295
-6.51011
-6.41938
-6.30752
-6.19852
-6.96521
-6.86483
-6.77008
-6.70134
-6.64963
-6.61607
-6.60043
-6.59946
-6.60987
-6.6273
-6.64628
-6.66082
-6.66468
-6.65225
-6.61889
-6.56068
-6.47802
-6.37464
-6.24631
-6.11946
-7.01353
-6.90162
-6.79652
-6.72008
-6.66249
-6.62451
-6.60564
-6.60229
-6.61087
-6.62669
-6.64402
-6.65653
-6.65768
-6.64148
-6.60294
-6.53776
-6.44614
-6.33168
-6.18968
-6.0486
-7.05224
-6.93168
-6.81863
-6.73609
-6.67371
-6.63205
-6.61038
-6.60491
-6.61178
-6.62607
-6.64181
-6.65241
-6.65108
-6.63155
-6.58856
-6.51757
-6.41867
-6.29545
-6.14301
-5.99138
-7.07913
-6.95283
-6.83442
-6.74769
-6.68195
-6.63765
-6.61395
-6.60689
-6.61246
-6.62558
-6.64008
-6.64923
-6.64604
-6.62404
-6.57782
-6.50269
-6.39869
-6.26944
-6.11001
-5.95144
-7.09289
-6.96372
-6.84263
-6.75376
-6.68629
-6.64063
-6.61586
-6.60796
-6.61282
-6.6253
-6.63914
-6.64751
-6.64331
-6.62002
-6.57209
-6.49482
-6.3882
-6.25589
-6.09295
-5.93095
-7.09289
-6.96372
-6.84263
-6.75376
-6.68629
-6.64063
-6.61586
-6.60796
-6.61282
-6.6253
-6.63914
-6.64751
-6.64331
-6.62002
-6.57209
-6.49482
-6.3882
-6.25589
-6.09295
-5.93095
-7.07913
-6.95283
-6.83442
-6.74769
-6.68195
-6.63765
-6.61395
-6.60689
-6.61246
-6.62557
-6.64008
-6.64923
-6.64604
-6.62404
-6.57782
-6.50269
-6.39869
-6.26944
-6.11001
-5.95144
-7.05223
-6.93168
-6.81863
-6.73609
-6.67371
-6.63205
-6.61038
-6.60491
-6.61178
-6.62607
-6.64181
-6.65241
-6.65109
-6.63155
-6.58856
-6.51757
-6.41867
-6.29545
-6.14301
-5.99138
-7.01353
-6.90162
-6.79651
-6.72008
-6.66249
-6.62451
-6.60564
-6.60229
-6.61087
-6.62669
-6.64402
-6.65653
-6.65768
-6.64148
-6.60294
-6.53776
-6.44615
-6.33168
-6.18968
-6.0486
-6.96521
-6.86483
-6.77008
-6.70134
-6.64963
-6.61607
-6.60042
-6.59946
-6.60987
-6.6273
-6.64628
-6.66082
-6.66469
-6.65225
-6.6189
-6.56068
-6.47802
-6.37464
-6.24631
-6.11946
-6.91059
-6.82452
-6.74218
-6.68221
-6.63695
-6.60804
-6.59564
-6.59692
-6.60896
-6.62773
-6.64809
-6.66437
-6.67072
-6.66191
-6.63381
-6.58295
-6.51011
-6.41938
-6.30752
-6.19852
-6.85434
-6.78477
-6.71634
-6.66556
-6.62659
-6.60192
-6.59226
-6.59525
-6.60834
-6.62783
-6.64891
-6.66622
-6.67428
-6.66832
-6.64469
-6.60055
-6.53731
-6.45981
-6.36641
-6.2782
-6.80307
-6.75132
-6.69686
-6.65471
-6.62115
-6.59953
-6.59143
-6.59507
-6.60822
-6.62746
-6.64822
-6.66539
-6.67381
-6.66911
-6.64813
-6.60884
-6.5537
-6.48851
-6.4137
-6.34815
-6.76677
-6.73394
-6.69156
-6.6548
-6.62405
-6.60326
-6.59462
-6.59718
-6.60889
-6.62645
-6.64538
-6.66067
-6.66733
-6.66121
-6.6396
-6.60157
-6.5506
-6.49352
-6.4351
-6.39376
-6.75117
-6.73256
-6.7002
-6.6651
-6.63401
-6.61186
-6.6009
-6.60098
-6.61017
-6.62505
-6.64111
-6.6533
-6.65661
-6.64691
-6.62183
-6.58159
-6.53023
-6.47617
-6.43108
-6.4088
-7.84135
-7.8172
-7.77686
-7.73471
-7.69934
-7.67679
-7.66977
-7.678
-7.69898
-7.72826
-7.7599
-7.78714
-7.80305
-7.80161
-7.77884
-7.73409
-7.67179
-7.60245
-7.54183
-7.51019
-7.86251
-7.8194
-7.76656
-7.72206
-7.68706
-7.66622
-7.66201
-7.67327
-7.69734
-7.72988
-7.76505
-7.79616
-7.81632
-7.81947
-7.80121
-7.75951
-7.69779
-7.62416
-7.54576
-7.48676
-7.90972
-7.8422
-7.77369
-7.72215
-7.68359
-7.66169
-7.65805
-7.67059
-7.69638
-7.73095
-7.76833
-7.80173
-7.82405
-7.82894
-7.81139
-7.76797
-7.70062
-7.61574
-7.51455
-7.42191
-7.97533
-7.88477
-7.79833
-7.73587
-7.69049
-7.6647
-7.65905
-7.67072
-7.69637
-7.73118
-7.76888
-7.80234
-7.82408
-7.8272
-7.80601
-7.75597
-7.67766
-7.57602
-7.44921
-7.32515
-8.0467
-7.93499
-7.83086
-7.75674
-7.70341
-7.67227
-7.66317
-7.67269
-7.69699
-7.73083
-7.76755
-7.79961
-7.81904
-7.81835
-7.79114
-7.73204
-7.64073
-7.52108
-7.36911
-7.21658
-8.1156
-7.98567
-7.86578
-7.78059
-7.71916
-7.6822
-7.66903
-7.67572
-7.69797
-7.73009
-7.76503
-7.79481
-7.81098
-7.80549
-7.7713
-7.70237
-7.59784
-7.46107
-7.28675
-7.11003
-8.1763
-8.03172
-7.89873
-7.80386
-7.73507
-7.6926
-7.67541
-7.67914
-7.69908
-7.72918
-7.762
-7.78917
-7.80181
-7.79138
-7.75035
-7.67217
-7.55565
-7.40399
-7.21124
-7.01535
-8.22477
-8.06924
-7.92623
-7.82371
-7.74893
-7.70187
-7.68122
-7.6823
-7.70011
-7.7283
-7.75911
-7.78385
-7.79329
-7.77852
-7.73164
-7.64577
-7.51955
-7.35615
-7.14941
-6.93939
-8.25838
-8.09559
-7.94583
-7.83806
-7.7591
-7.70877
-7.68559
-7.68471
-7.7009
-7.72762
-7.75688
-7.77977
-7.7868
-7.76884
-7.71773
-7.6264
-7.49341
-7.32197
-7.10588
-6.88659
-8.27555
-8.10915
-7.95601
-7.84557
-7.76446
-7.71242
-7.68793
-7.686
-7.70133
-7.72725
-7.75567
-7.77756
-7.78332
-7.76367
-7.71035
-7.61619
-7.47973
-7.30422
-7.08345
-6.85959
-8.27555
-8.10915
-7.95601
-7.84557
-7.76446
-7.71242
-7.68793
-7.686
-7.70133
-7.72725
-7.75567
-7.77756
-7.78332
-7.76367
-7.71035
-7.61619
-7.47973
-7.30422
-7.08345
-6.85959
-8.25838
-8.09559
-7.94583
-7.83806
-7.7591
-7.70876
-7.68559
-7.68471
-7.7009
-7.72762
-7.75688
-7.77977
-7.7868
-7.76884
-7.71773
-7.6264
-7.49341
-7.32197
-7.10588
-6.88659
-8.22477
-8.06924
-7.92623
-7.82371
-7.74893
-7.70187
-7.68122
-7.6823
-7.70011
-7.7283
-7.75911
-7.78385
-7.79329
-7.77852
-7.73164
-7.64577
-7.51955
-7.35615
-7.14941
-6.93939
-8.1763
-8.03172
-7.89873
-7.80386
-7.73507
-7.6926
-7.67541
-7.67914
-7.69908
-7.72918
-7.762
-7.78917
-7.80181
-7.79138
-7.75035
-7.67217
-7.55565
-7.40399
-7.21124
-7.01535
-8.1156
-7.98567
-7.86578
-7.78059
-7.71916
-7.68219
-7.66903
-7.67572
-7.69797
-7.73009
-7.76503
-7.79481
-7.81098
-7.80549
-7.7713
-7.70237
-7.59784
-7.46107
-7.28676
-7.11004
-8.0467
-7.93499
-7.83086
-7.75674
-7.70341
-7.67227
-7.66317
-7.67269
-7.69699
-7.73083
-7.76755
-7.79961
-7.81904
-7.81835
-7.79114
-7.73205
-7.64073
-7.52109
-7.36911
-7.21658
-7.97532
-7.88477
-7.79833
-7.73587
-7.69049
-7.66469
-7.65905
-7.67072
-7.69637
-7.73118
-7.76888
-7.80234
-7.82408
-7.8272
-7.80601
-7.75598
-7.67766
-7.57602
-7.44921
-7.32515
-7.90972
-7.8422
-7.77369
-7.72215
-7.68359
-7.66169
-7.65805
-7.67059
-7.69638
-7.73095
-7.76833
-7.80173
-7.82406
-7.82894
-7.81139
-7.76797
-7.70063
-7.61575
-7.51455
-7.42191
-7.86251
-7.8194
-7.76655
-7.72206
-7.68706
-7.66622
-7.66201
-7.67327
-7.69734
-7.72988
-7.76505
-7.79616
-7.81632
-7.81948
-7.80122
-7.75951
-7.69779
-7.62416
-7.54576
-7.48676
-7.84134
-7.8172
-7.77686
-7.73471
-7.69934
-7.67679
-7.66977
-7.678