/*--------------------------------*- C++ -*----------------------------------*\
  =========                 |
  \\      /  F ield         | OpenFOAM: The Open Source CFD Toolbox
   \\    /   O peration     | Website:  https://openfoam.org
    \\  /    A nd           | Version:  6
     \\/     M anipulation  |
\*---------------------------------------------------------------------------*/
FoamFile
{
    version     2.0;
    format      ascii;
    class       volScalarField;
    location    "0.185";
    object      T;
}
// * * * * * * * * * * * * * * * * * * * * * * * * * * * * * * * * * * * * * //

dimensions      [0 0 0 1 0 0 0];

internalField   nonuniform List<scalar> 
7000
(
102.759
102.759
102.759
102.758
102.758
102.758
102.757
102.756
102.756
102.756
102.759
102.759
102.759
102.758
102.758
102.757
102.757
102.756
102.756
102.756
102.759
102.759
102.759
102.758
102.758
102.757
102.757
102.756
102.756
102.756
102.759
102.759
102.759
102.758
102.758
102.757
102.757
102.756
102.756
102.756
102.759
102.759
102.759
102.758
102.758
102.757
102.757
102.756
102.756
102.756
102.759
102.759
102.759
102.758
102.758
102.757
102.757
102.756
102.756
102.756
102.759
102.759
102.759
102.758
102.758
102.757
102.757
102.756
102.756
102.756
102.759
102.759
102.759
102.758
102.758
102.757
102.757
102.756
102.756
102.756
102.759
102.759
102.759
102.758
102.758
102.757
102.757
102.756
102.756
102.756
102.759
102.759
102.759
102.758
102.758
102.757
102.757
102.756
102.756
102.756
88.4742
88.4738
88.4731
88.4721
88.4708
88.4692
88.4675
88.4657
88.4643
88.4635
88.4741
88.4737
88.473
88.472
88.4707
88.4691
88.4674
88.4656
88.4642
88.4634
88.474
88.4736
88.473
88.472
88.4707
88.4691
88.4673
88.4656
88.4642
88.4634
88.474
88.4736
88.4729
88.4719
88.4706
88.469
88.4672
88.4655
88.4641
88.4634
88.4739
88.4736
88.4729
88.4719
88.4706
88.469
88.4672
88.4655
88.4641
88.4633
88.4739
88.4735
88.4729
88.4719
88.4706
88.469
88.4672
88.4655
88.4641
88.4633
88.474
88.4736
88.4729
88.4719
88.4706
88.469
88.4672
88.4655
88.4641
88.4634
88.474
88.4736
88.4729
88.472
88.4707
88.4691
88.4673
88.4656
88.4642
88.4634
88.474
88.4736
88.473
88.472
88.4707
88.4691
88.4673
88.4656
88.4642
88.4635
88.4741
88.4737
88.473
88.4721
88.4708
88.4692
88.4674
88.4657
88.4643
88.4635
74.7646
74.7639
74.7626
74.7607
74.7581
74.7548
74.7511
74.7473
74.7443
74.7425
74.7645
74.7637
74.7625
74.7605
74.7579
74.7546
74.7509
74.7472
74.7441
74.7424
74.7644
74.7636
74.7624
74.7604
74.7578
74.7545
74.7508
74.7471
74.744
74.7423
74.7643
74.7636
74.7623
74.7604
74.7577
74.7545
74.7508
74.747
74.744
74.7423
74.7642
74.7635
74.7622
74.7603
74.7577
74.7544
74.7507
74.747
74.744
74.7423
74.7642
74.7635
74.7622
74.7603
74.7577
74.7544
74.7507
74.747
74.744
74.7423
74.7643
74.7636
74.7623
74.7604
74.7577
74.7545
74.7508
74.7471
74.744
74.7423
74.7643
74.7636
74.7623
74.7604
74.7578
74.7545
74.7508
74.7471
74.7441
74.7424
74.7644
74.7637
74.7624
74.7605
74.7579
74.7546
74.7509
74.7472
74.7442
74.7425
74.7645
74.7638
74.7625
74.7606
74.758
74.7547
74.751
74.7473
74.7443
74.7426
61.9623
61.9611
61.959
61.9556
61.9509
61.9449
61.9379
61.9306
61.9245
61.9209
61.9621
61.9609
61.9588
61.9554
61.9508
61.9447
61.9377
61.9305
61.9243
61.9208
61.962
61.9608
61.9586
61.9553
61.9506
61.9446
61.9376
61.9304
61.9242
61.9207
61.9619
61.9607
61.9586
61.9552
61.9505
61.9445
61.9375
61.9303
61.9241
61.9206
61.9618
61.9607
61.9585
61.9552
61.9505
61.9445
61.9375
61.9302
61.9241
61.9206
61.9618
61.9607
61.9585
61.9552
61.9505
61.9445
61.9375
61.9303
61.9241
61.9206
61.9619
61.9607
61.9586
61.9552
61.9505
61.9445
61.9375
61.9303
61.9242
61.9207
61.9619
61.9608
61.9586
61.9553
61.9506
61.9446
61.9376
61.9304
61.9243
61.9208
61.962
61.9609
61.9587
61.9554
61.9507
61.9447
61.9377
61.9305
61.9244
61.9209
61.9621
61.961
61.9589
61.9556
61.9509
61.9449
61.9379
61.9307
61.9245
61.921
50.3292
50.3274
50.324
50.3185
50.3105
50.3
50.2872
50.2736
50.2615
50.2543
50.329
50.3272
50.3238
50.3183
50.3103
50.2998
50.2871
50.2734
50.2614
50.2542
50.3288
50.3271
50.3236
50.3181
50.3102
50.2997
50.2869
50.2733
50.2612
50.2541
50.3287
50.327
50.3235
50.318
50.3101
50.2996
50.2868
50.2732
50.2612
50.254
50.3287
50.3269
50.3235
50.318
50.3101
50.2995
50.2868
50.2732
50.2611
50.254
50.3287
50.3269
50.3235
50.318
50.3101
50.2995
50.2868
50.2732
50.2612
50.254
50.3287
50.327
50.3235
50.318
50.3101
50.2996
50.2869
50.2732
50.2612
50.2541
50.3288
50.3271
50.3236
50.3181
50.3102
50.2997
50.287
50.2733
50.2613
50.2542
50.3289
50.3272
50.3238
50.3183
50.3104
50.2998
50.2871
50.2735
50.2615
50.2543
50.329
50.3273
50.3239
50.3185
50.3106
50.3
50.2873
50.2737
50.2617
50.2545
40.0424
40.0398
40.0346
40.0259
40.013
39.9952
39.9727
39.9475
39.924
39.9093
40.0422
40.0396
40.0344
40.0257
40.0128
39.995
39.9725
39.9473
39.9238
39.9091
40.042
40.0395
40.0342
40.0256
40.0127
39.9949
39.9724
39.9471
39.9237
39.909
40.0419
40.0394
40.0341
40.0255
40.0126
39.9948
39.9723
39.947
39.9236
39.9089
40.0419
40.0393
40.0341
40.0254
40.0125
39.9948
39.9723
39.947
39.9236
39.9089
40.0419
40.0393
40.0341
40.0254
40.0125
39.9948
39.9723
39.947
39.9236
39.9089
40.0419
40.0394
40.0341
40.0255
40.0126
39.9948
39.9723
39.9471
39.9237
39.909
40.042
40.0395
40.0342
40.0256
40.0127
39.9949
39.9725
39.9472
39.9238
39.9091
40.0421
40.0396
40.0344
40.0257
40.0129
39.9951
39.9726
39.9474
39.924
39.9093
40.0423
40.0398
40.0346
40.0259
40.0131
39.9953
39.9728
39.9476
39.9242
39.9095
31.1896
31.1859
31.1783
31.1653
31.1452
31.1163
31.0778
31.0318
30.9861
30.9553
31.1894
31.1857
31.1781
31.1651
31.145
31.1161
31.0776
31.0316
30.9859
30.9552
31.1892
31.1856
31.1779
31.1649
31.1449
31.116
31.0774
31.0315
30.9858
30.9551
31.1891
31.1855
31.1778
31.1648
31.1448
31.1159
31.0774
31.0314
30.9857
30.955
31.1891
31.1854
31.1778
31.1648
31.1447
31.1158
31.0773
31.0314
30.9857
30.955
31.1891
31.1854
31.1778
31.1648
31.1448
31.1159
31.0773
31.0314
30.9857
30.955
31.1891
31.1855
31.1778
31.1649
31.1448
31.1159
31.0774
31.0315
30.9858
30.9551
31.1892
31.1856
31.1779
31.165
31.1449
31.116
31.0775
31.0316
30.9859
30.9552
31.1893
31.1857
31.1781
31.1651
31.1451
31.1162
31.0777
31.0317
30.9861
30.9553
31.1895
31.1859
31.1783
31.1654
31.1453
31.1164
31.0779
31.032
30.9863
30.9556
23.7738
23.769
23.7584
23.7399
23.7102
23.6654
23.6019
23.5201
23.4308
23.3636
23.7736
23.7688
23.7582
23.7397
23.71
23.6652
23.6017
23.52
23.4306
23.3635
23.7735
23.7686
23.758
23.7396
23.7099
23.6651
23.6016
23.5198
23.4305
23.3634
23.7734
23.7685
23.758
23.7395
23.7098
23.665
23.6015
23.5198
23.4304
23.3633
23.7734
23.7685
23.7579
23.7394
23.7098
23.665
23.6015
23.5198
23.4304
23.3633
23.7734
23.7685
23.7579
23.7395
23.7098
23.665
23.6015
23.5198
23.4304
23.3633
23.7734
23.7686
23.758
23.7395
23.7099
23.6651
23.6016
23.5198
23.4305
23.3634
23.7735
23.7687
23.7581
23.7396
23.71
23.6652
23.6017
23.52
23.4306
23.3635
23.7737
23.7688
23.7582
23.7398
23.7101
23.6653
23.6019
23.5201
23.4308
23.3637
23.7738
23.769
23.7584
23.74
23.7104
23.6655
23.6021
23.5203
23.431
23.3639
17.7268
17.7206
17.7069
17.6822
17.6412
17.5759
17.4769
17.3367
17.1622
17.0055
17.7266
17.7204
17.7067
17.682
17.641
17.5757
17.4767
17.3366
17.162
17.0054
17.7265
17.7203
17.7066
17.6819
17.6409
17.5756
17.4766
17.3365
17.162
17.0053
17.7264
17.7202
17.7065
17.6819
17.6408
17.5755
17.4766
17.3364
17.1619
17.0052
17.7264
17.7202
17.7065
17.6818
17.6408
17.5755
17.4765
17.3364
17.1619
17.0052
17.7264
17.7202
17.7065
17.6818
17.6408
17.5755
17.4766
17.3364
17.1619
17.0052
17.7265
17.7203
17.7065
17.6819
17.6409
17.5756
17.4766
17.3365
17.162
17.0053
17.7265
17.7204
17.7066
17.682
17.641
17.5757
17.4767
17.3366
17.1621
17.0054
17.7267
17.7205
17.7068
17.6821
17.6411
17.5759
17.4769
17.3367
17.1622
17.0056
17.7268
17.7207
17.707
17.6823
17.6413
17.576
17.4771
17.3369
17.1624
17.0057
12.9262
12.9189
12.9023
12.8719
12.8196
12.7324
12.5906
12.3668
12.0346
11.633
12.926
12.9187
12.9021
12.8717
12.8194
12.7323
12.5905
12.3667
12.0345
11.6329
12.9259
12.9186
12.902
12.8716
12.8193
12.7322
12.5904
12.3666
12.0344
11.6328
12.9259
12.9185
12.902
12.8716
12.8193
12.7321
12.5904
12.3666
12.0343
11.6328
12.9258
12.9185
12.902
12.8715
12.8192
12.7321
12.5904
12.3666
12.0343
11.6328
12.9259
12.9185
12.902
12.8716
12.8193
12.7321
12.5904
12.3666
12.0343
11.6328
12.9259
12.9186
12.902
12.8716
12.8193
12.7322
12.5904
12.3667
12.0344
11.6329
12.926
12.9187
12.9021
12.8717
12.8194
12.7323
12.5905
12.3667
12.0345
11.633
12.9261
12.9188
12.9022
12.8718
12.8195
12.7324
12.5907
12.3669
12.0346
11.6331
12.9262
12.9189
12.9024
12.872
12.8197
12.7326
12.5908
12.367
12.0348
11.6332
9.21542
9.20738
9.18901
9.15481
9.09477
8.99154
8.81459
8.50639
7.94231
6.78846
9.2153
9.20726
9.18889
9.15469
9.09465
8.99143
8.81448
8.5063
7.94222
6.78839
9.21522
9.20718
9.18881
9.15461
9.09457
8.99135
8.81441
8.50623
7.94216
6.78835
9.21516
9.20712
9.18876
9.15456
9.09453
8.9913
8.81437
8.50619
7.94213
6.78832
9.21514
9.2071
9.18874
9.15454
9.09451
8.99129
8.81435
8.50618
7.94212
6.78831
9.21515
9.20711
9.18875
9.15455
9.09452
8.99131
8.81437
8.5062
7.94214
6.78833
9.21519
9.20716
9.18879
9.1546
9.09457
8.99135
8.81442
8.50625
7.94219
6.78837
9.21526
9.20723
9.18887
9.15468
9.09465
8.99143
8.8145
8.50632
7.94226
6.78843
9.21536
9.20733
9.18898
9.15479
9.09477
8.99155
8.81461
8.50643
7.94236
6.78852
9.21547
9.20747
9.18912
9.15494
9.09491
8.99169
8.81476
8.50657
7.94249
6.78864
6.4223
6.41417
6.39554
6.36078
6.29969
6.19472
6.01602
5.7123
5.19538
4.32627
6.4222
6.41407
6.39544
6.36069
6.2996
6.19463
6.01594
5.71222
5.19531
4.32622
6.42213
6.414
6.39538
6.36063
6.29954
6.19457
6.01588
5.71217
5.19527
4.32618
6.42209
6.41396
6.39534
6.36059
6.2995
6.19453
6.01585
5.71214
5.19524
4.32616
6.42207
6.41395
6.39532
6.36057
6.29949
6.19452
6.01584
5.71214
5.19524
4.32616
6.42208
6.41396
6.39533
6.36059
6.2995
6.19454
6.01585
5.71215
5.19525
4.32617
6.42212
6.41399
6.39537
6.36063
6.29954
6.19458
6.01589
5.71219
5.19529
4.3262
6.42218
6.41405
6.39544
6.36069
6.29961
6.19465
6.01596
5.71225
5.19535
4.32625
6.42226
6.41414
6.39553
6.36078
6.2997
6.19474
6.01605
5.71234
5.19543
4.32632
6.42235
6.41425
6.39565
6.36091
6.29982
6.19486
6.01617
5.71245
5.19553
4.32641
4.37473
4.36715
4.34983
4.31777
4.26213
4.16848
4.01429
3.76636
3.38136
2.82233
4.37465
4.36707
4.34976
4.3177
4.26206
4.16841
4.01423
3.7663
3.38131
2.82229
4.3746
4.36702
4.34971
4.31765
4.26202
4.16837
4.01419
3.76626
3.38128
2.82226
4.37457
4.36699
4.34968
4.31762
4.26199
4.16834
4.01417
3.76624
3.38126
2.82225
4.37456
4.36698
4.34967
4.31761
4.26198
4.16833
4.01416
3.76624
3.38126
2.82224
4.37457
4.36699
4.34968
4.31762
4.26199
4.16835
4.01417
3.76625
3.38127
2.82226
4.37459
4.36702
4.34971
4.31766
4.26202
4.16838
4.01421
3.76628
3.3813
2.82228
4.37464
4.36707
4.34976
4.31771
4.26208
4.16843
4.01426
3.76633
3.38134
2.82232
4.3747
4.36714
4.34983
4.31778
4.26215
4.16851
4.01433
3.7664
3.3814
2.82237
4.37478
4.36723
4.34993
4.31788
4.26225
4.1686
4.01442
3.76649
3.38149
2.82244
2.9126
2.90604
2.89117
2.86402
2.81784
2.74232
2.62291
2.44143
2.18046
1.83678
2.91254
2.90599
2.89112
2.86397
2.81779
2.74227
2.62287
2.44139
2.18043
1.83675
2.9125
2.90595
2.89108
2.86393
2.81776
2.74224
2.62284
2.44136
2.1804
1.83673
2.91248
2.90593
2.89106
2.86391
2.81774
2.74222
2.62282
2.44134
2.18039
1.83671
2.91247
2.90592
2.89105
2.86391
2.81773
2.74222
2.62282
2.44134
2.18039
1.83671
2.91248
2.90593
2.89106
2.86391
2.81774
2.74223
2.62283
2.44135
2.1804
1.83672
2.9125
2.90595
2.89109
2.86394
2.81777
2.74225
2.62285
2.44138
2.18042
1.83674
2.91254
2.90599
2.89113
2.86398
2.81781
2.74229
2.62289
2.44141
2.18045
1.83677
2.91259
2.90604
2.89118
2.86404
2.81787
2.74235
2.62295
2.44147
2.1805
1.83681
2.91265
2.90611
2.89126
2.86411
2.81794
2.74242
2.62302
2.44153
2.18056
1.83687
1.89533
1.89004
1.87814
1.85676
1.82124
1.76488
1.67922
1.55533
1.38755
1.18069
1.8953
1.89
1.8781
1.85672
1.8212
1.76485
1.67919
1.5553
1.38752
1.18067
1.89527
1.88997
1.87808
1.8567
1.82117
1.76483
1.67917
1.55528
1.3875
1.18066
1.89525
1.88996
1.87806
1.85668
1.82116
1.76481
1.67916
1.55527
1.38749
1.18065
1.89525
1.88995
1.87806
1.85668
1.82116
1.76481
1.67916
1.55527
1.38749
1.18065
1.89525
1.88996
1.87806
1.85669
1.82117
1.76482
1.67917
1.55528
1.3875
1.18065
1.89527
1.88998
1.87808
1.85671
1.82118
1.76484
1.67918
1.55529
1.38752
1.18067
1.8953
1.89001
1.87811
1.85674
1.82122
1.76487
1.67921
1.55532
1.38754
1.18069
1.89534
1.89005
1.87815
1.85678
1.82126
1.76491
1.67925
1.55536
1.38758
1.18072
1.89538
1.8901
1.87821
1.85684
1.82131
1.76497
1.67931
1.55541
1.38762
1.18076
1.20558
1.20155
1.1926
1.17678
1.15111
1.11156
1.05356
0.973099
0.869114
0.74682
1.20555
1.20152
1.19257
1.17676
1.15108
1.11154
1.05354
0.973078
0.869096
0.746804
1.20553
1.20151
1.19255
1.17674
1.15107
1.11152
1.05352
0.973064
0.869083
0.746793
1.20552
1.20149
1.19254
1.17673
1.15106
1.11152
1.05351
0.973057
0.869077
0.746788
1.20552
1.20149
1.19254
1.17673
1.15106
1.11151
1.05351
0.973057
0.869077
0.746787
1.20552
1.2015
1.19254
1.17673
1.15106
1.11152
1.05352
0.973063
0.869082
0.746793
1.20554
1.20151
1.19256
1.17675
1.15108
1.11153
1.05353
0.973076
0.869094
0.746803
1.20556
1.20153
1.19258
1.17677
1.1511
1.11156
1.05355
0.973096
0.869113
0.74682
1.20558
1.20156
1.19261
1.1768
1.15113
1.11159
1.05358
0.973123
0.869138
0.746842
1.20562
1.2016
1.19265
1.17684
1.15117
1.11163
1.05362
0.973159
0.86917
0.746871
0.749642
0.74674
0.740357
0.729273
0.711676
0.685301
0.647824
0.597672
0.535296
0.464636
0.749623
0.746721
0.740339
0.729255
0.711659
0.685285
0.647809
0.597658
0.535283
0.464625
0.74961
0.746708
0.740326
0.729243
0.711648
0.685274
0.647799
0.597649
0.535275
0.464618
0.749602
0.746701
0.740319
0.729236
0.711641
0.685268
0.647793
0.597644
0.535271
0.464614
0.7496
0.746699
0.740317
0.729235
0.71164
0.685267
0.647793
0.597644
0.535271
0.464614
0.749604
0.746703
0.740322
0.72924
0.711645
0.685272
0.647798
0.597649
0.535275
0.464618
0.749614
0.746713
0.740332
0.72925
0.711655
0.685282
0.647807
0.597658
0.535283
0.464625
0.749628
0.746728
0.740347
0.729266
0.711671
0.685297
0.647822
0.597672
0.535296
0.464637
0.749648
0.746749
0.740369
0.729288
0.711693
0.685319
0.647843
0.597691
0.535314
0.464653
0.749671
0.746776
0.740398
0.729317
0.711721
0.685346
0.647869
0.597716
0.535337
0.464673
0.455739
0.453747
0.449412
0.442005
0.430493
0.413672
0.390468
0.360444
0.324477
0.285365
0.455726
0.453735
0.4494
0.441994
0.430482
0.413661
0.390458
0.360434
0.324469
0.285358
0.455718
0.453727
0.449392
0.441986
0.430474
0.413654
0.390451
0.360428
0.324463
0.285352
0.455713
0.453722
0.449387
0.441981
0.43047
0.41365
0.390448
0.360425
0.324461
0.28535
0.455712
0.453721
0.449386
0.441981
0.430469
0.41365
0.390448
0.360425
0.324461
0.28535
0.455715
0.453724
0.449389
0.441984
0.430473
0.413653
0.390451
0.360428
0.324464
0.285353
0.455721
0.453731
0.449396
0.441991
0.43048
0.41366
0.390458
0.360435
0.32447
0.285358
0.455731
0.453741
0.449407
0.442002
0.430491
0.413671
0.390468
0.360444
0.324479
0.285366
0.455745
0.453756
0.449422
0.442017
0.430506
0.413686
0.390482
0.360458
0.324491
0.285377
0.45576
0.453774
0.449442
0.442037
0.430525
0.413704
0.3905
0.360474
0.324506
0.285391
0.270925
0.269618
0.2668
0.26206
0.254842
0.244557
0.230796
0.213669
0.194248
0.174967
0.270917
0.26961
0.266792
0.262052
0.254834
0.24455
0.230789
0.213663
0.194243
0.174962
0.270912
0.269604
0.266787
0.262047
0.25483
0.244545
0.230785
0.213659
0.194239
0.174958
0.270908
0.269602
0.266784
0.262045
0.254827
0.244543
0.230783
0.213657
0.194237
0.174957
0.270908
0.269601
0.266784
0.262044
0.254827
0.244543
0.230783
0.213657
0.194238
0.174957
0.27091
0.269603
0.266786
0.262047
0.254829
0.244545
0.230785
0.213659
0.19424
0.174959
0.270914
0.269608
0.26679
0.262051
0.254834
0.24455
0.23079
0.213663
0.194244
0.174963
0.270921
0.269615
0.266798
0.262059
0.254841
0.244557
0.230797
0.21367
0.19425
0.174968
0.27093
0.269624
0.266808
0.262069
0.254851
0.244567
0.230806
0.213679
0.194258
0.174976
0.270941
0.269637
0.266821
0.262082
0.254864
0.244579
0.230818
0.21369
0.194268
0.174985
0.157517
0.156694
0.154935
0.15202
0.147672
0.141634
0.13383
0.124618
0.115254
0.10895
0.157512
0.156689
0.15493
0.152016
0.147667
0.141629
0.133826
0.124614
0.115251
0.108946
0.157509
0.156685
0.154926
0.152012
0.147664
0.141626
0.133823
0.124612
0.115248
0.108944
0.157507
0.156683
0.154925
0.152011
0.147662
0.141625
0.133822
0.124611
0.115247
0.108943
0.157507
0.156683
0.154924
0.152011
0.147662
0.141625
0.133822
0.124611
0.115247
0.108943
0.157508
0.156685
0.154926
0.152012
0.147664
0.141627
0.133823
0.124612
0.115249
0.108945
0.157511
0.156688
0.154929
0.152015
0.147667
0.14163
0.133826
0.124615
0.115251
0.108947
0.157516
0.156692
0.154934
0.15202
0.147672
0.141634
0.133831
0.12462
0.115255
0.108951
0.157522
0.156699
0.15494
0.152027
0.147678
0.141641
0.133837
0.124625
0.115261
0.108956
0.157528
0.156707
0.154949
0.152035
0.147687
0.141649
0.133844
0.124633
0.115268
0.108963
3.91426
2.41666
1.65358
1.36942
1.48294
2.02665
3.14567
5.14055
8.58212
14.6077
3.91421
2.41662
1.65355
1.36938
1.48289
2.02659
3.14558
5.14042
8.58193
14.6074
3.91417
2.41659
1.65352
1.36936
1.48285
2.02654
3.14552
5.14032
8.5818
14.6072
3.91415
2.41657
1.6535
1.36934
1.48283
2.02651
3.14547
5.14026
8.58172
14.6071
3.91415
2.41657
1.6535
1.36933
1.48282
2.0265
3.14545
5.14024
8.58168
14.607
3.91416
2.41658
1.65351
1.36934
1.48283
2.0265
3.14546
5.14024
8.58168
14.607
3.91419
2.4166
1.65352
1.36935
1.48284
2.02651
3.14547
5.14027
8.58173
14.6071
3.91424
2.41663
1.65355
1.36937
1.48286
2.02654
3.14551
5.14032
8.5818
14.6072
3.9143
2.41668
1.65358
1.3694
1.48289
2.02657
3.14555
5.14038
8.5819
14.6074
3.91437
2.41672
1.65362
1.36943
1.48292
2.02661
3.1456
5.14045
8.58201
14.6075
3.00037
2.02834
1.46032
1.24432
1.35974
1.84629
2.81801
4.47975
7.13715
11.1309
3.00033
2.0283
1.46029
1.24429
1.35969
1.84623
2.81793
4.47963
7.13699
11.1307
3.0003
2.02827
1.46026
1.24426
1.35966
1.84619
2.81787
4.47955
7.13687
11.1305
3.00028
2.02826
1.46025
1.24425
1.35964
1.84616
2.81783
4.47949
7.1368
11.1304
3.00028
2.02826
1.46025
1.24424
1.35964
1.84615
2.81781
4.47947
7.13677
11.1304
3.00029
2.02827
1.46025
1.24424
1.35964
1.84615
2.81781
4.47947
7.13677
11.1304
3.00031
2.02828
1.46027
1.24426
1.35965
1.84616
2.81783
4.4795
7.13681
11.1304
3.00035
2.02831
1.46029
1.24428
1.35967
1.84619
2.81786
4.47955
7.13688
11.1305
3.00041
2.02836
1.46032
1.24431
1.3597
1.84622
2.81791
4.47961
7.13698
11.1307
3.00048
2.02841
1.46036
1.24434
1.35974
1.84627
2.81797
4.4797
7.13711
11.1309
2.12571
1.54619
1.17818
1.04235
1.15311
1.54949
2.30748
3.5392
5.36592
7.82327
2.12568
1.54616
1.17815
1.04231
1.15308
1.54944
2.30741
3.5391
5.36579
7.8231
2.12565
1.54614
1.17813
1.04229
1.15305
1.54941
2.30736
3.53903
5.3657
7.82298
2.12564
1.54613
1.17812
1.04228
1.15303
1.54938
2.30733
3.53899
5.36564
7.82291
2.12564
1.54613
1.17812
1.04227
1.15302
1.54937
2.30731
3.53897
5.36562
7.82288
2.12565
1.54613
1.17812
1.04228
1.15303
1.54937
2.30731
3.53897
5.36562
7.82289
2.12567
1.54615
1.17813
1.04229
1.15304
1.54939
2.30733
3.539
5.36566
7.82293
2.1257
1.54618
1.17815
1.04231
1.15306
1.54941
2.30736
3.53904
5.36572
7.82302
2.12575
1.54621
1.17818
1.04233
1.15309
1.54944
2.30741
3.5391
5.36581
7.82314
2.1258
1.54626
1.17822
1.04237
1.15312
1.54949
2.30747
3.53919
5.36592
7.8233
1.44795
1.11146
0.890584
0.817157
0.914588
1.21426
1.76157
2.60978
3.79467
5.27996
1.44793
1.11144
0.890561
0.817131
0.914557
1.21421
1.76152
2.60971
3.79458
5.27983
1.44791
1.11142
0.890545
0.817113
0.914534
1.21418
1.76148
2.60965
3.79451
5.27975
1.4479
1.11141
0.890535
0.817102
0.91452
1.21417
1.76145
2.60962
3.79447
5.27969
1.4479
1.11141
0.890533
0.817099
0.914515
1.21416
1.76144
2.6096
3.79445
5.27967
1.4479
1.11142
0.890537
0.817102
0.914517
1.21416
1.76144
2.60961
3.79445
5.27968
1.44792
1.11143
0.890548
0.817112
0.914527
1.21417
1.76146
2.60963
3.79448
5.27972
1.44795
1.11145
0.890566
0.817128
0.914544
1.21419
1.76149
2.60967
3.79453
5.27978
1.44798
1.11148
0.890591
0.817151
0.914569
1.21422
1.76152
2.60972
3.7946
5.27988
1.44803
1.11152
0.890624
0.817182
0.914601
1.21426
1.76158
2.60979
3.7947
5.28001
0.959102
0.766694
0.64073
0.606899
0.685764
0.899354
1.27287
1.82883
2.57152
3.46221
0.959082
0.766675
0.640711
0.606878
0.68574
0.899322
1.27282
1.82878
2.57145
3.46212
0.959069
0.766663
0.640699
0.606864
0.685722
0.8993
1.27279
1.82874
2.57139
3.46206
0.959062
0.766656
0.640692
0.606856
0.685712
0.899285
1.27277
1.82871
2.57136
3.46202
0.959061
0.766655
0.64069
0.606853
0.685707
0.899279
1.27277
1.8287
2.57135
3.462
0.959067
0.76666
0.640694
0.606856
0.685709
0.899281
1.27277
1.82871
2.57135
3.46201
0.959079
0.76667
0.640703
0.606864
0.685718
0.899291
1.27278
1.82872
2.57138
3.46204
0.959099
0.766687
0.640717
0.606878
0.685732
0.899308
1.2728
1.82875
2.57142
3.46209
0.959126
0.76671
0.640737
0.606897
0.685753
0.899333
1.27283
1.8288
2.57147
3.46217
0.95916
0.766739
0.640763
0.606922
0.68578
0.899366
1.27288
1.82885
2.57155
3.46226
0.620577
0.512347
0.4435
0.431492
0.491116
0.63648
0.880812
1.23245
1.68669
2.21602
0.620562
0.512334
0.443487
0.431477
0.491097
0.636457
0.880782
1.23241
1.68664
2.21596
0.620553
0.512325
0.443477
0.431466
0.491084
0.63644
0.880759
1.23238
1.68661
2.21591
0.620548
0.51232
0.443472
0.43146
0.491076
0.636429
0.880746
1.23236
1.68658
2.21589
0.620547
0.512319
0.443471
0.431458
0.491073
0.636425
0.88074
1.23235
1.68657
2.21587
0.620552
0.512323
0.443474
0.43146
0.491075
0.636427
0.880742
1.23236
1.68658
2.21588
0.620561
0.512331
0.443481
0.431467
0.491082
0.636434
0.880752
1.23237
1.6866
2.2159
0.620575
0.512343
0.443492
0.431477
0.491093
0.636448
0.880769
1.23239
1.68663
2.21594
0.620595
0.512361
0.443507
0.431493
0.49111
0.636468
0.880795
1.23243
1.68667
2.216
0.62062
0.512383
0.443527
0.431512
0.491131
0.636494
0.880828
1.23247
1.68673
2.21607
0.393906
0.3345
0.298594
0.297254
0.340171
0.43585
0.590876
0.807495
1.07976
1.39012
0.393896
0.334491
0.298584
0.297243
0.340158
0.435832
0.590854
0.807467
1.07973
1.39008
0.393889
0.334484
0.298577
0.297235
0.340148
0.43582
0.590838
0.807447
1.0797
1.39005
0.393885
0.334481
0.298573
0.29723
0.340142
0.435813
0.590828
0.807435
1.07969
1.39003
0.393885
0.33448
0.298572
0.297229
0.34014
0.43581
0.590824
0.80743
1.07968
1.39003
0.393889
0.334483
0.298575
0.297231
0.340142
0.435812
0.590826
0.807432
1.07968
1.39003
0.393895
0.334489
0.29858
0.297236
0.340147
0.435818
0.590834
0.807442
1.0797
1.39005
0.393906
0.334498
0.298588
0.297244
0.340156
0.435828
0.590847
0.80746
1.07972
1.39008
0.39392
0.334511
0.2986
0.297256
0.340169
0.435843
0.590866
0.807485
1.07975
1.39012
0.393938
0.334527
0.298615
0.29727
0.340185
0.435863
0.590891
0.807517
1.07979
1.39017
0.247739
0.216733
0.199376
0.202723
0.232995
0.295181
0.392306
0.523991
0.684643
0.862615
0.247732
0.216726
0.199368
0.202714
0.232985
0.295169
0.392291
0.523971
0.684619
0.862586
0.247727
0.216722
0.199364
0.202709
0.232978
0.29516
0.39228
0.523957
0.684602
0.862566
0.247725
0.216719
0.199361
0.202706
0.232974
0.295155
0.392273
0.523949
0.684592
0.862554
0.247725
0.216719
0.19936
0.202705
0.232972
0.295153
0.39227
0.523946
0.684588
0.86255
0.247727
0.216721
0.199362
0.202706
0.232974
0.295154
0.392272
0.523948
0.684591
0.862554
0.247732
0.216725
0.199366
0.20271
0.232978
0.295159
0.392278
0.523955
0.6846
0.862566
0.247739
0.216732
0.199372
0.202716
0.232985
0.295167
0.392288
0.523968
0.684617
0.862586
0.247749
0.216741
0.199381
0.202725
0.232994
0.295178
0.392302
0.523986
0.68464
0.862615
0.247762
0.216753
0.199392
0.202736
0.233006
0.295193
0.392321
0.52401
0.684669
0.862651
0.159153
0.145157
0.138113
0.143408
0.165459
0.207332
0.270182
0.352232
0.447511
0.54531
0.159148
0.145152
0.138107
0.143402
0.165451
0.207323
0.270171
0.352218
0.447494
0.545291
0.159145
0.145149
0.138104
0.143398
0.165446
0.207317
0.270163
0.352208
0.447483
0.545277
0.159143
0.145147
0.138102
0.143396
0.165443
0.207313
0.270158
0.352202
0.447476
0.545269
0.159143
0.145147
0.138102
0.143395
0.165442
0.207311
0.270156
0.3522
0.447473
0.545267
0.159145
0.145149
0.138103
0.143396
0.165443
0.207313
0.270158
0.352202
0.447476
0.54527
0.159148
0.145152
0.138106
0.143399
0.165447
0.207317
0.270163
0.352208
0.447483
0.545279
0.159154
0.145157
0.138111
0.143404
0.165452
0.207323
0.27017
0.352217
0.447495
0.545293
0.159161
0.145164
0.138117
0.143411
0.165459
0.207332
0.270181
0.352231
0.447512
0.545313
0.15917
0.145172
0.138125
0.143419
0.165469
0.207343
0.270195
0.352248
0.447533
0.545339
0.114435
0.110773
0.108878
0.114974
0.133046
0.165386
0.212296
0.271097
0.334286
0.385844
0.114432
0.11077
0.108874
0.11497
0.13304
0.165379
0.212288
0.271088
0.334275
0.385832
0.114429
0.110767
0.108871
0.114967
0.133036
0.165374
0.212281
0.27108
0.334266
0.385822
0.114428
0.110766
0.10887
0.114965
0.133034
0.165371
0.212278
0.271076
0.334261
0.385816
0.114428
0.110766
0.10887
0.114965
0.133033
0.16537
0.212276
0.271074
0.334259
0.385815
0.114429
0.110767
0.108871
0.114966
0.133034
0.165372
0.212278
0.271076
0.334262
0.385817
0.114432
0.11077
0.108874
0.114968
0.133037
0.165375
0.212282
0.271081
0.334268
0.385824
0.114436
0.110774
0.108878
0.114972
0.133042
0.16538
0.212288
0.271089
0.334277
0.385835
0.114442
0.11078
0.108883
0.114978
0.133048
0.165388
0.212298
0.2711
0.334291
0.385851
0.114449
0.110786
0.10889
0.114985
0.133056
0.165397
0.212309
0.271114
0.334308
0.385871
25.7731
30.2559
32.445
33.6388
34.3228
34.7211
34.9524
35.0839
35.1545
35.1852
25.7727
30.2554
32.4445
33.6383
34.3223
34.7206
34.9518
35.0834
35.154
35.1848
25.7724
30.2551
32.4442
33.6379
34.3219
34.7202
34.9515
35.0831
35.1537
35.1846
25.7722
30.2549
32.444
33.6377
34.3217
34.72
34.9513
35.0829
35.1535
35.1844
25.7722
30.2549
32.4439
33.6377
34.3217
34.72
34.9512
35.0828
35.1535
35.1844
25.7722
30.2549
32.4439
33.6377
34.3217
34.72
34.9513
35.0829
35.1536
35.1845
25.7723
30.255
32.4441
33.6378
34.3219
34.7202
34.9515
35.0831
35.1538
35.1847
25.7725
30.2552
32.4443
33.6381
34.3222
34.7205
34.9518
35.0834
35.1541
35.185
25.7727
30.2555
32.4447
33.6385
34.3225
34.7209
34.9522
35.0838
35.1545
35.1854
25.773
30.2559
32.4451
33.6389
34.323
34.7213
34.9527
35.0843
35.155
35.1859
16.3555
19.7563
21.7708
22.9505
23.6427
24.0483
24.2839
24.4177
24.4893
24.5205
16.3552
19.7559
21.7704
22.9501
23.6423
24.0479
24.2835
24.4173
24.4889
24.5202
16.355
19.7557
21.7702
22.9499
23.642
24.0476
24.2832
24.417
24.4887
24.52
16.3549
19.7556
21.77
22.9497
23.6419
24.0475
24.2831
24.4169
24.4886
24.5199
16.3548
19.7555
21.77
22.9497
23.6418
24.0474
24.283
24.4169
24.4885
24.5198
16.3548
19.7555
21.77
22.9497
23.6419
24.0475
24.2831
24.4169
24.4886
24.5199
16.3549
19.7556
21.7701
22.9498
23.642
24.0476
24.2832
24.4171
24.4888
24.5201
16.355
19.7558
21.7703
22.9501
23.6422
24.0479
24.2835
24.4173
24.489
24.5203
16.3552
19.7561
21.7706
22.9504
23.6425
24.0482
24.2838
24.4177
24.4894
24.5207
16.3555
19.7564
21.771
22.9508
23.643
24.0486
24.2843
24.4181
24.4898
24.5211
10.6221
12.8317
14.3408
15.3074
15.9061
16.2686
16.4834
16.607
16.6736
16.7027
10.6219
12.8315
14.3406
15.3072
15.9058
16.2683
16.4831
16.6067
16.6733
16.7025
10.6218
12.8313
14.3404
15.307
15.9056
16.2681
16.4829
16.6065
16.6732
16.7024
10.6217
12.8312
14.3403
15.3069
15.9055
16.268
16.4828
16.6064
16.6731
16.7023
10.6216
12.8312
14.3403
15.3068
15.9055
16.268
16.4828
16.6064
16.673
16.7023
10.6217
12.8312
14.3403
15.3069
15.9055
16.268
16.4828
16.6064
16.6731
16.7023
10.6217
12.8313
14.3404
15.307
15.9056
16.2681
16.483
16.6065
16.6732
16.7024
10.6218
12.8314
14.3405
15.3071
15.9058
16.2683
16.4832
16.6067
16.6734
16.7027
10.622
12.8316
14.3408
15.3074
15.9061
16.2686
16.4834
16.607
16.6737
16.7029
10.6222
12.8319
14.3411
15.3077
15.9064
16.2689
16.4838
16.6074
16.6741
16.7033
6.87938
8.25524
9.28578
9.99653
10.4615
10.7544
10.933
11.0378
11.095
11.1202
6.87924
8.25507
9.2856
9.99634
10.4613
10.7542
10.9328
11.0376
11.0948
11.1201
6.87913
8.25495
9.28547
9.99621
10.4612
10.7541
10.9326
11.0374
11.0947
11.12
6.87907
8.25488
9.28539
9.99612
10.4611
10.754
10.9326
11.0373
11.0946
11.1199
6.87904
8.25485
9.28536
9.99609
10.4611
10.754
10.9325
11.0373
11.0946
11.1199
6.87905
8.25486
9.28538
9.99612
10.4611
10.754
10.9326
11.0374
11.0947
11.12
6.8791
8.25492
9.28545
9.9962
10.4612
10.7541
10.9327
11.0375
11.0948
11.1201
6.87919
8.25503
9.28557
9.99633
10.4613
10.7543
10.9328
11.0376
11.0949
11.1202
6.87931
8.25518
9.28574
9.99652
10.4615
10.7545
10.9331
11.0378
11.0952
11.1204
6.87948
8.25538
9.28597
9.99676
10.4618
10.7547
10.9333
11.0381
11.0954
11.1207
4.39881
5.23959
5.90812
6.39601
6.73078
6.94985
7.08744
7.17002
7.2159
7.2363
4.3987
5.23948
5.90799
6.39588
6.73064
6.94971
7.0873
7.16988
7.21577
7.2362
4.39863
5.23939
5.9079
6.39578
6.73054
6.94961
7.0872
7.16978
7.21568
7.23612
4.39858
5.23934
5.90785
6.39572
6.73048
6.94955
7.08714
7.16973
7.21563
7.23608
4.39857
5.23932
5.90783
6.3957
6.73046
6.94953
7.08713
7.16972
7.21562
7.23607
4.39858
5.23934
5.90784
6.39572
6.73048
6.94956
7.08716
7.16975
7.21566
7.23611
4.39861
5.23938
5.9079
6.39578
6.73055
6.94963
7.08723
7.16983
7.21574
7.23619
4.39868
5.23946
5.90799
6.39588
6.73066
6.94974
7.08735
7.16995
7.21586
7.23631
4.39877
5.23957
5.90811
6.39602
6.73081
6.9499
7.08751
7.17012
7.21603
7.23648
4.3989
5.23972
5.90828
6.39621
6.731
6.9501
7.08772
7.17033
7.21625
7.2367
2.76641
3.27244
3.69117
4.0101
4.23775
4.39192
4.49154
4.55271
4.58728
4.6028
2.76634
3.27236
3.69109
4.01001
4.23765
4.39182
4.49144
4.55261
4.58718
4.60274
2.76628
3.2723
3.69102
4.00994
4.23759
4.39175
4.49137
4.55254
4.58712
4.60268
2.76625
3.27226
3.69099
4.0099
4.23755
4.39171
4.49133
4.55251
4.58709
4.60265
2.76624
3.27225
3.69097
4.00989
4.23753
4.3917
4.49132
4.5525
4.58709
4.60265
2.76625
3.27226
3.69099
4.00991
4.23755
4.39172
4.49135
4.55253
4.58711
4.60268
2.76628
3.2723
3.69103
4.00995
4.2376
4.39177
4.4914
4.55258
4.58717
4.60274
2.76633
3.27235
3.69109
4.01002
4.23768
4.39185
4.49149
4.55267
4.58726
4.60283
2.76639
3.27243
3.69118
4.01012
4.23779
4.39197
4.49161
4.55279
4.58739
4.60296
2.76648