/*--------------------------------*- C++ -*----------------------------------*\
  =========                 |
  \\      /  F ield         | OpenFOAM: The Open Source CFD Toolbox
   \\    /   O peration     | Website:  https://openfoam.org
    \\  /    A nd           | Version:  6
     \\/     M anipulation  |
\*---------------------------------------------------------------------------*/
FoamFile
{
    version     2.0;
    format      ascii;
    class       volScalarField;
    location    "0.53";
    object      T;
}
// * * * * * * * * * * * * * * * * * * * * * * * * * * * * * * * * * * * * * //

dimensions      [0 0 0 1 0 0 0];

internalField   nonuniform List<scalar> 
7000
(
105.672
105.67
105.666
105.66
105.653
105.645
105.637
105.63
105.624
105.621
105.672
105.67
105.666
105.66
105.653
105.645
105.637
105.63
105.624
105.621
105.672
105.67
105.666
105.66
105.653
105.645
105.637
105.63
105.624
105.621
105.672
105.67
105.666
105.66
105.653
105.645
105.637
105.63
105.624
105.621
105.672
105.67
105.666
105.66
105.653
105.645
105.637
105.63
105.624
105.621
105.672
105.67
105.666
105.66
105.653
105.645
105.637
105.63
105.624
105.621
105.672
105.67
105.666
105.66
105.653
105.645
105.637
105.63
105.624
105.621
105.672
105.67
105.666
105.66
105.653
105.645
105.637
105.63
105.624
105.621
105.672
105.67
105.666
105.66
105.653
105.645
105.637
105.63
105.624
105.621
105.672
105.67
105.666
105.66
105.653
105.645
105.637
105.63
105.624
105.621
97.0572
97.0505
97.0376
97.0192
96.9966
96.9717
96.9468
96.9246
96.9078
96.8987
97.0572
97.0505
97.0376
97.0192
96.9966
96.9717
96.9468
96.9246
96.9077
96.8987
97.0572
97.0505
97.0375
97.0192
96.9966
96.9717
96.9468
96.9245
96.9077
96.8986
97.0571
97.0505
97.0375
97.0191
96.9966
96.9717
96.9468
96.9245
96.9077
96.8986
97.0571
97.0505
97.0375
97.0191
96.9966
96.9717
96.9468
96.9245
96.9077
96.8986
97.0571
97.0505
97.0375
97.0191
96.9966
96.9717
96.9468
96.9245
96.9077
96.8986
97.0571
97.0505
97.0375
97.0191
96.9966
96.9717
96.9468
96.9245
96.9077
96.8986
97.0571
97.0505
97.0375
97.0191
96.9966
96.9717
96.9468
96.9245
96.9077
96.8986
97.0571
97.0505
97.0375
97.0192
96.9966
96.9717
96.9468
96.9246
96.9077
96.8986
97.0572
97.0505
97.0376
97.0192
96.9966
96.9717
96.9468
96.9246
96.9077
96.8987
88.5607
88.5491
88.5265
88.4942
88.4544
88.4102
88.3655
88.3252
88.2945
88.2778
88.5606
88.549
88.5264
88.4942
88.4544
88.4101
88.3655
88.3252
88.2945
88.2778
88.5606
88.549
88.5264
88.4942
88.4544
88.4101
88.3654
88.3252
88.2945
88.2778
88.5606
88.549
88.5264
88.4942
88.4544
88.4101
88.3654
88.3252
88.2945
88.2778
88.5606
88.549
88.5264
88.4941
88.4544
88.4101
88.3654
88.3252
88.2944
88.2778
88.5606
88.549
88.5264
88.4941
88.4544
88.4101
88.3654
88.3252
88.2944
88.2778
88.5606
88.549
88.5264
88.4942
88.4544
88.4101
88.3654
88.3252
88.2945
88.2778
88.5606
88.549
88.5264
88.4942
88.4544
88.4101
88.3654
88.3252
88.2945
88.2778
88.5606
88.549
88.5264
88.4942
88.4544
88.4101
88.3654
88.3252
88.2945
88.2778
88.5606
88.549
88.5264
88.4942
88.4544
88.4102
88.3655
88.3252
88.2945
88.2778
80.2589
80.2417
80.208
80.1595
80.0991
80.0312
79.9617
79.8981
79.8489
79.8219
80.2589
80.2416
80.2079
80.1595
80.0991
80.0312
79.9616
79.898
79.8488
79.8218
80.2589
80.2416
80.2079
80.1594
80.0991
80.0311
79.9616
79.898
79.8488
79.8218
80.2588
80.2416
80.2079
80.1594
80.0991
80.0311
79.9616
79.898
79.8488
79.8218
80.2588
80.2416
80.2079
80.1594
80.099
80.0311
79.9616
79.898
79.8488
79.8218
80.2588
80.2416
80.2079
80.1594
80.099
80.0311
79.9616
79.898
79.8488
79.8218
80.2588
80.2416
80.2079
80.1594
80.099
80.0311
79.9616
79.898
79.8488
79.8218
80.2588
80.2416
80.2079
80.1594
80.0991
80.0311
79.9616
79.898
79.8488
79.8218
80.2589
80.2416
80.2079
80.1594
80.0991
80.0311
79.9616
79.898
79.8488
79.8218
80.2589
80.2416
80.2079
80.1595
80.0991
80.0312
79.9616
79.898
79.8489
79.8219
72.2235
72.1997
72.1529
72.0851
71.9996
71.9016
71.7994
71.7038
71.6282
71.586
72.2234
72.1996
72.1529
72.0851
71.9995
71.9016
71.7993
71.7038
71.6282
71.586
72.2234
72.1996
72.1528
72.085
71.9995
71.9015
71.7993
71.7037
71.6282
71.586
72.2234
72.1996
72.1528
72.085
71.9994
71.9015
71.7993
71.7037
71.6281
71.5859
72.2234
72.1995
72.1528
72.085
71.9994
71.9015
71.7993
71.7037
71.6281
71.5859
72.2234
72.1995
72.1528
72.085
71.9994
71.9015
71.7993
71.7037
71.6281
71.5859
72.2234
72.1996
72.1528
72.085
71.9994
71.9015
71.7993
71.7037
71.6281
71.5859
72.2234
72.1996
72.1528
72.085
71.9995
71.9015
71.7993
71.7037
71.6282
71.586
72.2234
72.1996
72.1528
72.085
71.9995
71.9016
71.7993
71.7038
71.6282
71.586
72.2234
72.1996
72.1529
72.0851
71.9995
71.9016
71.7994
71.7038
71.6282
71.586
64.5198
64.4885
64.4266
64.3357
64.2193
64.0831
63.9369
63.7959
63.6806
63.6142
64.5197
64.4884
64.4265
64.3357
64.2192
64.083
63.9369
63.7958
63.6805
63.6142
64.5197
64.4884
64.4265
64.3356
64.2192
64.083
63.9368
63.7958
63.6805
63.6141
64.5197
64.4883
64.4264
64.3356
64.2192
64.0829
63.9368
63.7958
63.6805
63.6141
64.5196
64.4883
64.4264
64.3356
64.2191
64.0829
63.9368
63.7958
63.6805
63.6141
64.5196
64.4883
64.4264
64.3356
64.2191
64.0829
63.9368
63.7958
63.6805
63.6141
64.5197
64.4883
64.4264
64.3356
64.2191
64.0829
63.9368
63.7958
63.6805
63.6141
64.5197
64.4883
64.4265
64.3356
64.2192
64.083
63.9368
63.7958
63.6805
63.6141
64.5197
64.4884
64.4265
64.3357
64.2192
64.083
63.9368
63.7958
63.6805
63.6142
64.5197
64.4884
64.4265
64.3357
64.2193
64.083
63.9369
63.7959
63.6806
63.6142
57.2059
57.1663
57.0873
56.9699
56.8164
56.6319
56.4268
56.2199
56.0418
55.9339
57.2058
57.1662
57.0872
56.9699
56.8163
56.6318
56.4267
56.2198
56.0417
55.9339
57.2058
57.1662
57.0872
56.9698
56.8163
56.6318
56.4267
56.2198
56.0417
55.9338
57.2058
57.1661
57.0872
56.9698
56.8163
56.6318
56.4266
56.2197
56.0416
55.9338
57.2057
57.1661
57.0872
56.9698
56.8162
56.6317
56.4266
56.2197
56.0416
55.9338
57.2057
57.1661
57.0872
56.9698
56.8162
56.6317
56.4266
56.2197
56.0416
55.9338
57.2057
57.1661
57.0872
56.9698
56.8163
56.6317
56.4266
56.2197
56.0416
55.9338
57.2058
57.1661
57.0872
56.9698
56.8163
56.6318
56.4266
56.2198
56.0417
55.9338
57.2058
57.1662
57.0872
56.9698
56.8163
56.6318
56.4267
56.2198
56.0417
55.9339
57.2058
57.1662
57.0873
56.9699
56.8164
56.6319
56.4267
56.2199
56.0418
55.9339
50.3313
50.283
50.186
50.0395
49.8437
49.6007
49.3181
49.0153
48.7337
48.5472
50.3313
50.2829
50.1859
50.0395
49.8437
49.6006
49.318
49.0152
48.7337
48.5471
50.3312
50.2829
50.1858
50.0394
49.8436
49.6006
49.318
49.0152
48.7336
48.5471
50.3312
50.2829
50.1858
50.0394
49.8436
49.6005
49.3179
49.0152
48.7336
48.5471
50.3312
50.2828
50.1858
50.0394
49.8436
49.6005
49.3179
49.0152
48.7336
48.5471
50.3312
50.2828
50.1858
50.0394
49.8436
49.6005
49.3179
49.0152
48.7336
48.5471
50.3312
50.2828
50.1858
50.0394
49.8436
49.6005
49.3179
49.0152
48.7336
48.5471
50.3312
50.2829
50.1858
50.0394
49.8436
49.6006
49.318
49.0152
48.7336
48.5471
50.3312
50.2829
50.1859
50.0395
49.8436
49.6006
49.318
49.0153
48.7337
48.5471
50.3313
50.283
50.1859
50.0395
49.8437
49.6007
49.3181
49.0153
48.7337
48.5472
43.936
43.8794
43.7649
43.5895
43.3494
43.0407
42.6624
42.2239
41.7666
41.4111
43.936
43.8794
43.7648
43.5894
43.3493
43.0407
42.6623
42.2238
41.7665
41.411
43.9359
43.8793
43.7647
43.5894
43.3493
43.0406
42.6622
42.2238
41.7665
41.411
43.9359
43.8793
43.7647
43.5893
43.3493
43.0406
42.6622
42.2237
41.7664
41.411
43.9359
43.8793
43.7647
43.5893
43.3492
43.0406
42.6622
42.2237
41.7664
41.4109
43.9358
43.8793
43.7647
43.5893
43.3492
43.0406
42.6622
42.2237
41.7664
41.4109
43.9359
43.8793
43.7647
43.5893
43.3492
43.0406
42.6622
42.2237
41.7664
41.411
43.9359
43.8793
43.7647
43.5894
43.3493
43.0406
42.6622
42.2238
41.7665
41.411
43.9359
43.8793
43.7648
43.5894
43.3493
43.0407
42.6623
42.2238
41.7665
41.411
43.936
43.8794
43.7648
43.5895
43.3494
43.0407
42.6624
42.2239
41.7666
41.4111
38.0494
37.986
37.8569
37.6567
37.377
37.0051
36.5235
35.911
35.1608
34.3857
38.0493
37.986
37.8568
37.6566
37.3769
37.005
36.5234
35.911
35.1608
34.3856
38.0493
37.9859
37.8567
37.6566
37.3768
37.005
36.5234
35.9109
35.1607
34.3856
38.0492
37.9859
37.8567
37.6565
37.3768
37.0049
36.5233
35.9109
35.1607
34.3856
38.0492
37.9859
37.8567
37.6565
37.3768
37.0049
36.5233
35.9109
35.1607
34.3855
38.0492
37.9858
37.8567
37.6565
37.3768
37.0049
36.5233
35.9109
35.1607
34.3855
38.0492
37.9859
37.8567
37.6565
37.3768
37.0049
36.5233
35.9109
35.1607
34.3856
38.0493
37.9859
37.8567
37.6565
37.3768
37.005
36.5234
35.9109
35.1607
34.3856
38.0493
37.9859
37.8568
37.6566
37.3769
37.005
36.5234
35.911
35.1608
34.3856
38.0493
37.986
37.8568
37.6567
37.3769
37.0051
36.5235
35.911
35.1608
34.3857
32.6895
32.6219
32.4837
32.2679
31.9624
31.5472
30.987
30.2129
29.064
27.0765
32.6894
32.6219
32.4836
32.2678
31.9624
31.5472
30.987
30.2128
29.0639
27.0764
32.6894
32.6218
32.4836
32.2678
31.9623
31.5471
30.9869
30.2127
29.0639
27.0764
32.6893
32.6218
32.4836
32.2677
31.9623
31.5471
30.9869
30.2127
29.0638
27.0763
32.6893
32.6218
32.4835
32.2677
31.9623
31.5471
30.9869
30.2127
29.0638
27.0763
32.6893
32.6217
32.4835
32.2677
31.9623
31.5471
30.9869
30.2127
29.0638
27.0763
32.6893
32.6218
32.4836
32.2677
31.9623
31.5471
30.9869
30.2127
29.0638
27.0763
32.6893
32.6218
32.4836
32.2678
31.9623
31.5471
30.9869
30.2127
29.0639
27.0764
32.6894
32.6218
32.4836
32.2678
31.9624
31.5472
30.987
30.2128
29.0639
27.0764
32.6894
32.6219
32.4837
32.2679
31.9624
31.5472
30.987
30.2129
29.064
27.0765
27.8623
27.794
27.6542
27.4359
27.1268
26.7069
26.1423
25.3752
24.3041
22.7721
27.8622
27.7939
27.6542
27.4358
27.1268
26.7068
26.1423
25.3751
24.3041
22.7721
27.8622
27.7939
27.6541
27.4358
27.1267
26.7067
26.1422
25.3751
24.304
22.772
27.8622
27.7939
27.6541
27.4358
27.1267
26.7067
26.1422
25.3751
24.304
22.772
27.8621
27.7938
27.6541
27.4357
27.1267
26.7067
26.1422
25.375
24.3039
22.7719
27.8621
27.7938
27.6541
27.4357
27.1267
26.7067
26.1422
25.375
24.3039
22.7719
27.8622
27.7939
27.6541
27.4358
27.1267
26.7067
26.1422
25.3751
24.304
22.772
27.8622
27.7939
27.6541
27.4358
27.1267
26.7067
26.1422
25.3751
24.304
22.772
27.8622
27.7939
27.6542
27.4358
27.1268
26.7068
26.1423
25.3752
24.3041
22.7721
27.8623
27.794
27.6542
27.4359
27.1268
26.7069
26.1424
25.3752
24.3041
22.7721
23.5621
23.4966
23.3632
23.1561
22.8662
22.4795
21.9755
21.327
20.5058
19.5159
23.562
23.4965
23.3631
23.156
22.8661
22.4794
21.9754
21.3269
20.5058
19.5158
23.5619
23.4965
23.363
23.156
22.8661
22.4793
21.9754
21.3269
20.5057
19.5157
23.5619
23.4965
23.363
23.156
22.8661
22.4793
21.9753
21.3268
20.5057
19.5157
23.5619
23.4965
23.363
23.1559
22.866
22.4793
21.9753
21.3268
20.5057
19.5157
23.5619
23.4965
23.363
23.1559
22.866
22.4793
21.9753
21.3268
20.5057
19.5157
23.5619
23.4965
23.363
23.156
22.8661
22.4793
21.9753
21.3268
20.5057
19.5157
23.5619
23.4965
23.363
23.156
22.8661
22.4793
21.9754
21.3269
20.5057
19.5157
23.562
23.4965
23.3631
23.156
22.8662
22.4794
21.9754
21.3269
20.5058
19.5158
23.562
23.4966
23.3632
23.1561
22.8662
22.4795
21.9755
21.327
20.5059
19.5159
19.7718
19.7123
19.5919
19.4073
19.154
18.826
18.4179
17.9279
17.3695
16.7963
19.7717
19.7123
19.5918
19.4073
19.1539
18.826
18.4178
17.9278
17.3695
16.7963
19.7717
19.7122
19.5918
19.4072
19.1539
18.8259
18.4177
17.9278
17.3694
16.7962
19.7717
19.7122
19.5917
19.4072
19.1538
18.8259
18.4177
17.9277
17.3694
16.7962
19.7717
19.7122
19.5917
19.4072
19.1538
18.8259
18.4177
17.9277
17.3693
16.7962
19.7717
19.7122
19.5917
19.4072
19.1538
18.8259
18.4177
17.9277
17.3693
16.7962
19.7717
19.7122
19.5917
19.4072
19.1538
18.8259
18.4177
17.9277
17.3694
16.7962
19.7717
19.7122
19.5918
19.4072
19.1539
18.8259
18.4178
17.9278
17.3694
16.7962
19.7717
19.7123
19.5918
19.4073
19.1539
18.826
18.4178
17.9278
17.3695
16.7963
19.7718
19.7123
19.5919
19.4073
19.154
18.8261
18.4179
17.9279
17.3695
16.7963
16.4653
16.414
16.311
16.156
15.9489
15.6915
15.3896
15.0575
14.726
14.4554
16.4652
16.4139
16.311
16.1559
15.9489
15.6915
15.3895
15.0574
14.726
14.4554
16.4652
16.4139
16.3109
16.1559
15.9488
15.6914
15.3895
15.0574
14.7259
14.4553
16.4652
16.4138
16.3109
16.1559
15.9488
15.6914
15.3895
15.0573
14.7259
14.4553
16.4651
16.4138
16.3109
16.1559
15.9488
15.6914
15.3895
15.0573
14.7259
14.4553
16.4651
16.4138
16.3109
16.1559
15.9488
15.6914
15.3895
15.0573
14.7259
14.4553
16.4652
16.4138
16.3109
16.1559
15.9488
15.6914
15.3895
15.0573
14.7259
14.4553
16.4652
16.4139
16.3109
16.1559
15.9488
15.6914
15.3895
15.0574
14.7259
14.4553
16.4652
16.4139
16.311
16.1559
15.9489
15.6915
15.3896
15.0574
14.726
14.4554
16.4653
16.414
16.311
16.156
15.9489
15.6915
15.3896
15.0575
14.726
14.4554
13.6091
13.567
13.4836
13.3609
13.2027
13.0168
12.8166
12.625
12.479
12.4326
13.6091
13.5669
13.4836
13.3608
13.2027
13.0167
12.8165
12.625
12.4789
12.4326
13.609
13.5669
13.4835
13.3608
13.2026
13.0167
12.8165
12.6249
12.4788
12.4325
13.609
13.5669
13.4835
13.3607
13.2026
13.0167
12.8164
12.6249
12.4788
12.4325
13.609
13.5669
13.4835
13.3607
13.2026
13.0167
12.8164
12.6249
12.4788
12.4325
13.609
13.5669
13.4835
13.3607
13.2026
13.0167
12.8164
12.6249
12.4788
12.4325
13.609
13.5669
13.4835
13.3607
13.2026
13.0167
12.8164
12.6249
12.4788
12.4325
13.609
13.5669
13.4835
13.3608
13.2026
13.0167
12.8165
12.6249
12.4789
12.4325
13.6091
13.5669
13.4836
13.3608
13.2027
13.0167
12.8165
12.625
12.4789
12.4326
13.6091
13.567
13.4836
13.3609
13.2028
13.0168
12.8166
12.625
12.479
12.4326
11.1652
11.1323
11.0683
10.9769
10.8649
10.7441
10.633
10.5599
10.5644
10.6956
11.1651
11.1322
11.0682
10.9768
10.8649
10.7441
10.633
10.5599
10.5644
10.6956
11.1651
11.1322
11.0682
10.9768
10.8649
10.744
10.6329
10.5598
10.5643
10.6955
11.165
11.1322
11.0682
10.9768
10.8648
10.744
10.6329
10.5598
10.5643
10.6955
11.165
11.1322
11.0682
10.9768
10.8648
10.744
10.6329
10.5598
10.5643
10.6955
11.165
11.1322
11.0682
10.9768
10.8648
10.744
10.6329
10.5598
10.5643
10.6955
11.165
11.1322
11.0682
10.9768
10.8648
10.744
10.6329
10.5598
10.5643
10.6955
11.1651
11.1322
11.0682
10.9768
10.8649
10.744
10.633
10.5598
10.5643
10.6955
11.1651
11.1322
11.0682
10.9768
10.8649
10.7441
10.633
10.5599
10.5644
10.6956
11.1651
11.1323
11.0683
10.9769
10.865
10.7441
10.6331
10.5599
10.5644
10.6956
9.09282
9.06844
9.02192
8.9582
8.88591
8.81914
8.77984
8.80075
8.92742
9.21426
9.09278
9.06839
9.02188
8.95815
8.88586
8.81909
8.7798
8.8007
8.92737
9.2142
9.09275
9.06836
9.02185
8.95812
8.88583
8.81906
8.77976
8.80066
8.92733
9.21416
9.09273
9.06834
9.02183
8.9581
8.88581
8.81904
8.77974
8.80064
8.92731
9.21413
9.09272
9.06833
9.02182
8.95809
8.8858
8.81903
8.77973
8.80063
8.9273
9.21412
9.09272
9.06833
9.02182
8.95809
8.8858
8.81903
8.77973
8.80063
8.9273
9.21412
9.09273
9.06834
9.02183
8.95811
8.88581
8.81905
8.77975
8.80064
8.92731
9.21414
9.09275
9.06837
9.02186
8.95813
8.88584
8.81907
8.77977
8.80067
8.92734
9.21417
9.09278
9.0684
9.02189
8.95817
8.88588
8.81911
8.77981
8.80071
8.92739
9.21422
9.09282
9.06844
9.02194
8.95822
8.88593
8.81916
8.77987
8.80077
8.92744
9.21428
7.35106
7.33381
7.30181
7.26038
7.21874
7.19171
7.20253
7.28754
7.50371
7.9367
7.35102
7.33378
7.30177
7.26034
7.2187
7.19167
7.20249
7.2875
7.50366
7.93665
7.35099
7.33375
7.30175
7.26031
7.21867
7.19164
7.20246
7.28747
7.50362
7.93661
7.35097
7.33373
7.30173
7.2603
7.21865
7.19162
7.20244
7.28745
7.5036
7.93659
7.35096
7.33372
7.30172
7.26029
7.21864
7.19161
7.20243
7.28744
7.50359
7.93658
7.35096
7.33372
7.30172
7.26029
7.21865
7.19161
7.20243
7.28744
7.5036
7.93658
7.35097
7.33373
7.30173
7.2603
7.21866
7.19163
7.20245
7.28745
7.50361
7.9366
7.35099
7.33375
7.30175
7.26032
7.21868
7.19165
7.20247
7.28748
7.50364
7.93663
7.35102
7.33378
7.30179
7.26036
7.21872
7.19169
7.20251
7.28752
7.50368
7.93667
7.35105
7.33382
7.30183
7.2604
7.21876
7.19173
7.20256
7.28757
7.50373
7.93673
5.89988
5.88821
5.86725
5.84205
5.82113
5.81789
5.85312
5.96056
6.20256
6.72602
5.89984
5.88817
5.86722
5.84202
5.8211
5.81786
5.85309
5.96053
6.20252
6.72598
5.89982
5.88815
5.86719
5.84199
5.82107
5.81783
5.85306
5.9605
6.20249
6.72594
5.8998
5.88813
5.86718
5.84197
5.82106
5.81782
5.85304
5.96048
6.20247
6.72592
5.8998
5.88813
5.86717
5.84197
5.82105
5.81781
5.85304
5.96047
6.20247
6.72592
5.8998
5.88813
5.86717
5.84197
5.82105
5.81781
5.85304
5.96048
6.20247
6.72592
5.89981
5.88814
5.86718
5.84198
5.82106
5.81782
5.85305
5.96049
6.20248
6.72593
5.89982
5.88815
5.8672
5.842
5.82109
5.81785
5.85307
5.96051
6.20251
6.72596
5.89985
5.88818
5.86723
5.84203
5.82112
5.81788
5.85311
5.96055
6.20254
6.726
5.89988
5.88822
5.86726
5.84207
5.82116
5.81792
5.85315
5.96059
6.20259
6.72605
22.6028
20.5751
20.186
21.1681
23.4914
27.2769
32.7938
40.521
51.3204
66.901
22.6027
20.575
20.1859
21.168
23.4913
27.2768
32.7937
40.5209
51.3202
66.9008
22.6026
20.575
20.1858
21.1679
23.4912
27.2767
32.7935
40.5207
51.3201
66.9007
22.6026
20.5749
20.1858
21.1678
23.4911
27.2766
32.7935
40.5207
51.32
66.9006
22.6025
20.5749
20.1858
21.1678
23.4911
27.2766
32.7934
40.5206
51.32
66.9006
22.6025
20.5749
20.1858
21.1678
23.4911
27.2766
32.7934
40.5206
51.32
66.9005
22.6026
20.5749
20.1858
21.1678
23.4911
27.2766
32.7935
40.5206
51.32
66.9006
22.6026
20.5749
20.1858
21.1678
23.4912
27.2767
32.7935
40.5207
51.3201
66.9007
22.6026
20.575
20.1859
21.1679
23.4912
27.2767
32.7936
40.5208
51.3202
66.9008
22.6027
20.5751
20.1859
21.168
23.4913
27.2768
32.7937
40.5209
51.3203
66.9009
20.7153
19.5373
19.4631
20.5301
22.7958
26.3843
31.5033
38.4587
47.6485
59.4129
20.7153
19.5372
19.463
20.53
22.7957
26.3842
31.5031
38.4585
47.6483
59.4127
20.7152
19.5371
19.463
20.5299
22.7956
26.3841
31.503
38.4584
47.6482
59.4126
20.7152
19.5371
19.4629
20.5298
22.7956
26.384
31.503
38.4584
47.6481
59.4125
20.7151
19.5371
19.4629
20.5298
22.7955
26.384
31.5029
38.4583
47.6481
59.4124
20.7151
19.5371
19.4629
20.5298
22.7955
26.384
31.5029
38.4583
47.6481
59.4124
20.7152
19.5371
19.4629
20.5298
22.7956
26.384
31.5029
38.4583
47.6481
59.4124
20.7152
19.5371
19.4629
20.5299
22.7956
26.3841
31.503
38.4584
47.6482
59.4125
20.7152
19.5372
19.463
20.5299
22.7957
26.3842
31.5031
38.4585
47.6483
59.4126
20.7153
19.5373
19.4631
20.53
22.7958
26.3843
31.5032
38.4586
47.6484
59.4128
18.5054
17.9913
18.2413
19.3895
21.5359
24.7902
29.2839
35.1562
42.4899
51.1304
18.5053
17.9912
18.2412
19.3894
21.5358
24.7901
29.2838
35.156
42.4897
51.1303
18.5053
17.9912
18.2411
19.3893
21.5357
24.79
29.2837
35.1559
42.4896
51.1301
18.5052
17.9911
18.2411
19.3893
21.5357
24.7899
29.2836
35.1558
42.4895
51.1301
18.5052
17.9911
18.241
19.3892
21.5356
24.7899
29.2836
35.1558
42.4895
51.13
18.5052
17.9911
18.241
19.3892
21.5356
24.7899
29.2836
35.1558
42.4894
51.13
18.5052
17.9911
18.2411
19.3892
21.5356
24.7899
29.2836
35.1558
42.4895
51.13
18.5053
17.9912
18.2411
19.3893
21.5357
24.7899
29.2837
35.1559
42.4896
51.1301
18.5053
17.9912
18.2412
19.3894
21.5358
24.79
29.2837
35.156
42.4897
51.1302
18.5054
17.9913
18.2412
19.3895
21.5359
24.7901
29.2839
35.1561
42.4898
51.1304
16.3461
16.2662
16.751
17.933
19.9105
22.7666
26.5707
31.3579
37.0757
43.4856
16.346
16.2661
16.7509
17.9329
19.9104
22.7665
26.5706
31.3578
37.0755
43.4854
16.346
16.2661
16.7509
17.9329
19.9103
22.7664
26.5705
31.3576
37.0754
43.4853
16.3459
16.266
16.7508
17.9328
19.9103
22.7663
26.5704
31.3576
37.0753
43.4852
16.3459
16.266
16.7508
17.9328
19.9102
22.7663
26.5704
31.3575
37.0753
43.4852
16.3459
16.266
16.7508
17.9328
19.9102
22.7663
26.5704
31.3575
37.0753
43.4852
16.3459
16.266
16.7508
17.9328
19.9102
22.7663
26.5704
31.3576
37.0753
43.4852
16.346
16.2661
16.7509
17.9328
19.9103
22.7664
26.5704
31.3576
37.0754
43.4853
16.346
16.2661
16.7509
17.9329
19.9104
22.7664
26.5705
31.3577
37.0755
43.4854
16.3461
16.2662
16.751
17.933
19.9105
22.7665
26.5707
31.3579
37.0756
43.4856
14.3482
14.545
15.176
16.3441
18.1269
20.5792
23.7283
27.5572
31.9748
36.7765
14.3481
14.5449
15.1759
16.344
18.1268
20.5791
23.7281
27.5571
31.9747
36.7763
14.3481
14.5449
15.1758
16.3439
18.1267
20.579
23.728
27.557
31.9746
36.7762
14.348
14.5448
15.1758
16.3439
18.1267
20.5789
23.728
27.5569
31.9745
36.7761
14.348
14.5448
15.1758
16.3439
18.1266
20.5789
23.728
27.5569
31.9745
36.7761
14.348
14.5448
15.1758
16.3439
18.1266
20.5789
23.728
27.5569
31.9745
36.7761
14.348
14.5448
15.1758
16.3439
18.1267
20.5789
23.728
27.5569
31.9745
36.7761
14.3481
14.5449
15.1758
16.3439
18.1267
20.579
23.728
27.557
31.9746
36.7762
14.3481
14.5449
15.1759
16.344
18.1268
20.5791
23.7281
27.5571
31.9747
36.7763
14.3482
14.545
15.176
16.3441
18.1269
20.5792
23.7282
27.5572
31.9748
36.7765
12.5581
12.9381
13.655
14.7805
16.3683
18.4493
21.0242
24.0534
27.444
31.0424
12.558
12.938
13.655
14.7804
16.3682
18.4492
21.0241
24.0533
27.4439
31.0422
12.558
12.9379
13.6549
14.7804
16.3681
18.4491
21.024
24.0532
27.4438
31.0421
12.5579
12.9379
13.6548
14.7803
16.3681
18.449
21.0239
24.0531
27.4438
31.0421
12.5579
12.9379
13.6548
14.7803
16.3681
18.449
21.0239
24.0531
27.4437
31.042
12.5579
12.9379
13.6548
14.7803
16.3681
18.449
21.0239
24.0531
27.4437
31.042
12.5579
12.9379
13.6548
14.7803
16.3681
18.449
21.0239
24.0531
27.4438
31.0421
12.558
12.9379
13.6549
14.7804
16.3681
18.4491
21.024
24.0532
27.4438
31.0421
12.558
12.938
13.655
14.7804
16.3682
18.4492
21.0241
24.0533
27.4439
31.0423
12.5581
12.9381
13.655
14.7805
16.3683
18.4493
21.0242
24.0534
27.4441
31.0424
11.0023
11.52
12.2937
13.37
14.7837
16.548
18.6469
21.029
23.6065
26.2638
11.0023
11.5199
12.2936
13.3699
14.7836
16.5479
18.6468
21.0289
23.6063
26.2637
11.0022
11.5198
12.2936
13.3699
14.7836
16.5479
18.6467
21.0288
23.6062
26.2636
11.0022
11.5198
12.2935
13.3698
14.7835
16.5478
18.6467
21.0288
23.6062
26.2635
11.0022
11.5198
12.2935
13.3698
14.7835
16.5478
18.6466
21.0287
23.6062
26.2635
11.0022
11.5198
12.2935
13.3698
14.7835
16.5478
18.6466
21.0287
23.6062
26.2635
11.0022
11.5198
12.2935
13.3698
14.7835
16.5478
18.6467
21.0288
23.6062
26.2635
11.0022
11.5198
12.2936
13.3699
14.7836
16.5479
18.6467
21.0288
23.6063
26.2636
11.0023
11.5199
12.2936
13.3699
14.7836
16.548
18.6468
21.0289
23.6064
26.2637
11.0023
11.52
12.2937
13.37
14.7837
16.5481
18.6469
21.029
23.6065
26.2638
9.69989
10.3484
11.175
12.2136
13.4893
15.0047
16.7316
18.6073
20.538
22.4192
9.69983
10.3483
11.1749
12.2135
13.4892
15.0046
16.7315
18.6072
20.5379
22.419
9.69978
10.3482
11.1749
12.2134
13.4892
15.0046
16.7315
18.6071
20.5378
22.419
9.69975
10.3482
11.1748
12.2134
13.4891
15.0045
16.7314
18.6071
20.5378
22.4189
9.69974
10.3482
11.1748
12.2134
13.4891
15.0045
16.7314
18.6071
20.5377
22.4189
9.69974
10.3482
11.1748
12.2134
13.4891
15.0045
16.7314
18.6071
20.5377
22.4189
9.69976
10.3482
11.1748
12.2134
13.4891
15.0045
16.7314
18.6071
20.5378
22.4189
9.69979
10.3483
11.1749
12.2134
13.4892
15.0046
16.7315
18.6072
20.5378
22.419
9.69984
10.3483
11.1749
12.2135
13.4892
15.0047
16.7316
18.6072
20.5379
22.4191
9.69991
10.3484
11.175
12.2136
13.4893
15.0048
16.7317
18.6074
20.5381
22.4192
8.67416
9.47934
10.3689
11.3904
12.5733
13.9164
15.3819
16.8909
18.3214
19.524
8.6741
9.47928
10.3689
11.3903
12.5732
13.9163
15.3819
16.8908
18.3213
19.5239
8.67406
9.47924
10.3688
11.3903
12.5731
13.9162
15.3818
16.8908
18.3213
19.5238
8.67403
9.47921
10.3688
11.3902
12.5731
13.9162
15.3817
16.8907
18.3212
19.5238
8.67402
9.47919
10.3688
11.3902
12.5731
13.9161
15.3817
16.8907
18.3212
19.5237
8.67402
9.4792
10.3688
11.3902
12.5731
13.9161
15.3817
16.8907
18.3212
19.5237
8.67404
9.47921
10.3688
11.3903
12.5731
13.9162
15.3818
16.8907
18.3212
19.5238
8.67407
9.47925
10.3688
11.3903
12.5731
13.9162
15.3818
16.8908
18.3213
19.5238
8.67412
9.4793
10.3689
11.3904
12.5732
13.9163
15.3819
16.8909
18.3214
19.5239
8.67418
9.47937
10.369
11.3904
12.5733
13.9164
15.382
16.891
18.3215
19.5241
7.99692
8.98832
9.93951
10.9606
12.0981
13.3526
14.6801
15.9845
17.0977
17.7298
7.99687
8.98827
9.93946
10.9606
12.0981
13.3525
14.68
15.9844
17.0977
17.7297
7.99684
8.98823
9.93942
10.9605
12.098
13.3525
14.68
15.9844
17.0976
17.7296
7.99681
8.9882
9.93939
10.9605
12.098
13.3524
14.6799
15.9843
17.0976
17.7296
7.9968
8.98819
9.93937
10.9605
12.098
13.3524
14.6799
15.9843
17.0975
17.7296
7.99681
8.98819
9.93938
10.9605
12.098
13.3524
14.6799
15.9843
17.0975
17.7296
7.99682
8.98821
9.9394
10.9605
12.098
13.3524
14.68
15.9843
17.0976
17.7296
7.99685
8.98824
9.93943
10.9605
12.098
13.3525
14.68
15.9844
17.0976
17.7297
7.9969
8.98829
9.93949
10.9606
12.0981
13.3526
14.6801
15.9845
17.0977
17.7298
7.99696
8.98836
9.93956
10.9607
12.0982
13.3527
14.6802
15.9846
17.0978
17.7299
91.1897
102.5
109.251
113.851
117.169
119.603
121.37
122.602
123.383
123.762
91.1895
102.499
109.25
113.851
117.169
119.603
121.369
122.602
123.383
123.762
91.1894
102.499
109.25
113.85
117.169
119.602
121.369
122.602
123.383
123.762
91.1892
102.499
109.25
113.85
117.169
119.602
121.369
122.602
123.383
123.762
91.1892
102.499
109.25
113.85
117.169
119.602
121.369
122.602
123.383
123.762
91.1892
102.499
109.25
113.85
117.169
119.602
121.369
122.602
123.383
123.762
91.1892
102.499
109.25
113.85
117.169
119.602
121.369
122.602
123.383
123.762
91.1893
102.499
109.25
113.85
117.169
119.602
121.369
122.602
123.383
123.762
91.1894
102.499
109.25
113.851
117.169
119.603
121.369
122.602
123.383
123.762
91.1896
102.5
109.251
113.851
117.169
119.603
121.37
122.602
123.383
123.763
73.1583
83.044
89.9003
94.7659
98.2952
100.874
102.737
104.032
104.849
105.245
73.1581
83.0438
89.9
94.7657
98.295
100.874
102.737
104.031
104.849
105.245
73.1579
83.0436
89.8999
94.7655
98.2948
100.874
102.737
104.031
104.849
105.245
73.1578
83.0435
89.8998
94.7654
98.2947
100.874
102.737
104.031
104.849
105.245
73.1578
83.0435
89.8997
94.7654
98.2946
100.874
102.737
104.031
104.849
105.245
73.1578
83.0435
89.8997
94.7654
98.2946
100.874
102.737
104.031
104.849
105.245
73.1578
83.0435
89.8998
94.7654
98.2947
100.874
102.737
104.031
104.849
105.245
73.1579
83.0436
89.8999
94.7655
98.2948
100.874
102.737
104.031
104.849
105.245
73.158
83.0437
89.9
94.7657
98.295
100.874
102.737
104.031
104.849
105.245
73.1582
83.0439
89.9002
94.7659
98.2952
100.874
102.737
104.032
104.849
105.245
60.2728
67.9839
73.9717
78.5026
81.9019
84.4295
86.2718
87.5575
88.3717
88.7666
60.2726
67.9837
73.9715
78.5024
81.9017
84.4293
86.2716
87.5573
88.3715
88.7664
60.2724
67.9836
73.9713
78.5022
81.9015
84.4291
86.2715
87.5571
88.3714
88.7663
60.2723
67.9835
73.9712
78.5021
81.9014
84.429
86.2714
87.557
88.3713
88.7662
60.2723
67.9834
73.9712
78.5021
81.9014
84.429
86.2713
87.557
88.3712
88.7662
60.2723
67.9834
73.9712
78.5021
81.9014
84.429
86.2713
87.557
88.3713
88.7662
60.2723
67.9835
73.9712
78.5021
81.9014
84.429
86.2714
87.5571
88.3713
88.7663
60.2724
67.9836
73.9713
78.5022
81.9016
84.4291
86.2715
87.5572
88.3715
88.7664
60.2726
67.9837
73.9715
78.5024
81.9017
84.4293
86.2717
87.5574
88.3716
88.7666
60.2727
67.9839
73.9717
78.5026
81.9019
84.4295
86.2719
87.5576
88.3719
88.7668
50.0432
55.9478
60.8656
64.7919
67.848
70.1762
71.8999
73.1148
73.889
74.2656
50.0431
55.9476
60.8654
64.7917
67.8478
70.176
71.8997
73.1146
73.8888
74.2655
50.0429
55.9475
60.8653
64.7915
67.8477
70.1758
71.8996
73.1145
73.8886
74.2653
50.0428
55.9474
60.8652
64.7914
67.8476
70.1757
71.8995
73.1144
73.8886
74.2653
50.0428
55.9474
60.8652
64.7914
67.8476
70.1757
71.8994
73.1144
73.8885
74.2652
50.0428
55.9474
60.8652
64.7914
67.8476
70.1757
71.8995
73.1144
73.8885
74.2653
50.0428
55.9474
60.8652
64.7915
67.8476
70.1758
71.8995
73.1144
73.8886
74.2653
50.0429
55.9475
60.8653
64.7916
67.8477
70.1759
71.8996
73.1146
73.8887
74.2654
50.0431
55.9476
60.8654
64.7917
67.8479
70.1761
71.8998
73.1147
73.8889
74.2656
50.0432
55.9478
60.8656
64.7919
67.8481
70.1763
71.9
73.115
73.8891
74.2659
41.6256
46.1264
50.0405
53.2941
55.9106
57.9536
59.4935
60.5924
61.2983
61.6434
41.6254
46.1263
50.0403
53.2939
55.9104
57.9535
59.4933
60.5922
61.2981
61.6432
41.6253
46.1261
50.0402
53.2937
55.9103
57.9533
59.4932
60.5921
61.298
61.6431
41.6253
46.1261
50.0401
53.2937
55.9102
57.9532
59.4931
60.592
61.2979
61.643
41.6252
46.126
50.0401
53.2936
55.9102
57.9532
59.4931
60.592
61.2979
61.643
41.6252
46.126
50.0401
53.2936
55.9102
57.9532
59.4931
60.592
61.2979
61.643
41.6253
46.1261
50.0401
53.2937
55.9102
57.9533
59.4932
60.5921
61.298
61.6431
41.6253
46.1262
50.0402
53.2938
55.9103
57.9534
59.4933
60.5922
61.2981
61.6432
41.6255
46.1263
50.0404
53.2939
55.9105
57.9535
59.4934
60.5923
61.2983
61.6434
41.6256
46.1265
50.0406
53.2941
55.9107
57.9537
59.4936
60.5926
61.2985
61.6436
34.6446
38.0414
41.0812
43.6876
45.8438
47.567
48.8897
49.8463
50.4664
50.7711
34.6445
38.0413
41.081
43.6875
45.8436
47.5668
48.8895
49.8461
50.4663
50.771
34.6444
38.0412
41.0809
43.6874
45.8435
47.5667
48.8894
49.846
50.4661
50.7709
34.6443
38.0411
41.0808
43.6873
45.8434
47.5666
48.8893
49.8459
50.4661
50.7708
34.6443
38.0411
41.0808
43.6872
45.8434
47.5666
48.8893
49.8459
50.4661
50.7708
34.6443
38.0411
41.0808
43.6872
45.8434
47.5666
48.8893
49.8459
50.4661
50.7708
34.6443
38.0411
41.0808
43.6873
45.8434
47.5667
48.8894
49.846
50.4661
50.7709
34.6444
38.0412
41.0809
43.6874
45.8435
47.5668
48.8895
49.8461
50.4662
50.771
34.6445
38.0413
41.081
43.6875
45.8437
47.5669
48.8896
49.8462
50.4664
50.7712
34.6446
38.0415
41.0812
43.6877
45.8438
47.5671
48.8898
49.8464
50.4666
50.7714
28.8844
31.3812
33.671
35.6909
37.4073
38.811
39.9084
40.7131
41.2399
41.5002
28.8842
31.3811
33.6708
35.6908
37.4072
38.8108
39.9082
40.713
41.2397
41.5001
28.8841
31.381
33.6707
35.6907
37.4071
38.8107
39.9081
40.7129
41.2396
41.5
28.8841
31.3809
33.6707
35.6906
37.407
38.8106
39.908
40.7128
41.2396
41.4999
28.884
31.3809
33.6706
35.6906
37.407
38.8106
39.908
40.7128
41.2395
41.4999
28.884
31.3809
33.6706
35.6906
37.407
38.8106
39.908
40.7128
41.2396
41.4999
28.8841
31.3809
33.6707
35.6906
37.407
38.8107
39.9081
40.7128
41.2396
41.5
28.8841
31.381
33.6708
35.6907
37.4071
38.8108
39.9082
40.7129
41.2397
41.5001
28.8843
31.3811
33.6709
35.6909
37.4072
38.8109
39.9083
40.7131
41.2399
41.5002
28.8844
31.3812
33.671
35.691
37.4074
38.8111
39.9085
40.7133
41.2401
41.5004
24.1899
25.9124
27.5547
29.0586
30.3772
31.4832
32.365
33.0212
33.4551
33.6708
24.1898
25.9123
27.5546
29.0584
30.3771
31.483
32.3648
33.0211