/*--------------------------------*- C++ -*----------------------------------*\
  =========                 |
  \\      /  F ield         | OpenFOAM: The Open Source CFD Toolbox
   \\    /   O peration     | Website:  https://openfoam.org
    \\  /    A nd           | Version:  6
     \\/     M anipulation  |
\*---------------------------------------------------------------------------*/
FoamFile
{
    version     2.0;
    format      ascii;
    class       volScalarField;
    location    "0.06";
    object      T;
}
// * * * * * * * * * * * * * * * * * * * * * * * * * * * * * * * * * * * * * //

dimensions      [0 0 0 1 0 0 0];

internalField   nonuniform List<scalar> 
7000
(
97.1851
97.1849
97.1848
97.1847
97.1847
97.1847
97.1847
97.1848
97.1848
97.1849
97.1849
97.1847
97.1846
97.1845
97.1845
97.1845
97.1845
97.1846
97.1846
97.1847
97.1848
97.1846
97.1845
97.1844
97.1844
97.1844
97.1844
97.1845
97.1845
97.1847
97.1847
97.1845
97.1844
97.1843
97.1843
97.1843
97.1843
97.1844
97.1845
97.1846
97.1847
97.1845
97.1844
97.1843
97.1843
97.1843
97.1843
97.1844
97.1845
97.1846
97.1847
97.1845
97.1844
97.1843
97.1843
97.1843
97.1843
97.1844
97.1845
97.1846
97.1847
97.1845
97.1844
97.1843
97.1843
97.1843
97.1844
97.1844
97.1845
97.1846
97.1848
97.1846
97.1845
97.1844
97.1844
97.1844
97.1844
97.1845
97.1846
97.1847
97.1848
97.1846
97.1845
97.1845
97.1845
97.1845
97.1845
97.1846
97.1847
97.1848
97.1849
97.1847
97.1847
97.1846
97.1846
97.1846
97.1846
97.1847
97.1848
97.1849
72.6503
72.6499
72.6496
72.6494
72.6493
72.6493
72.6494
72.6495
72.6497
72.6499
72.6499
72.6494
72.6491
72.6489
72.6488
72.6488
72.6489
72.6491
72.6493
72.6496
72.6496
72.6491
72.6488
72.6486
72.6486
72.6486
72.6486
72.6488
72.6491
72.6494
72.6494
72.6489
72.6486
72.6485
72.6484
72.6484
72.6485
72.6487
72.6489
72.6492
72.6493
72.6488
72.6486
72.6484
72.6483
72.6483
72.6484
72.6486
72.6489
72.6492
72.6493
72.6488
72.6486
72.6484
72.6483
72.6483
72.6484
72.6486
72.6489
72.6492
72.6494
72.6489
72.6486
72.6485
72.6484
72.6484
72.6485
72.6487
72.649
72.6493
72.6495
72.6491
72.6488
72.6487
72.6486
72.6486
72.6487
72.6489
72.6492
72.6495
72.6497
72.6493
72.6491
72.6489
72.6489
72.6489
72.649
72.6492
72.6494
72.6498
72.6499
72.6496
72.6494
72.6492
72.6492
72.6492
72.6493
72.6495
72.6498
72.6501
51.1191
51.1185
51.1181
51.1179
51.1178
51.1178
51.1179
51.1181
51.1184
51.1188
51.1185
51.1179
51.1175
51.1173
51.1172
51.1172
51.1173
51.1175
51.1179
51.1184
51.1181
51.1175
51.1171
51.1169
51.1168
51.1168
51.1169
51.1172
51.1176
51.1181
51.1179
51.1173
51.1169
51.1167
51.1166
51.1166
51.1167
51.117
51.1174
51.1179
51.1178
51.1172
51.1168
51.1166
51.1165
51.1165
51.1167
51.1169
51.1173
51.1178
51.1178
51.1172
51.1168
51.1166
51.1165
51.1165
51.1167
51.1169
51.1173
51.1179
51.1179
51.1173
51.117
51.1167
51.1167
51.1167
51.1168
51.1171
51.1175
51.118
51.1181
51.1176
51.1172
51.117
51.1169
51.1169
51.1171
51.1174
51.1178
51.1183
51.1184
51.1179
51.1176
51.1174
51.1173
51.1173
51.1175
51.1178
51.1182
51.1187
51.1188
51.1184
51.1181
51.1179
51.1178
51.1179
51.118
51.1183
51.1187
51.1192
33.7765
33.7759
33.7755
33.7753
33.7752
33.7752
33.7753
33.7756
33.7759
33.7764
33.7759
33.7753
33.7749
33.7747
33.7746
33.7746
33.7748
33.775
33.7754
33.776
33.7755
33.7749
33.7745
33.7743
33.7742
33.7742
33.7744
33.7747
33.7751
33.7757
33.7753
33.7747
33.7743
33.7741
33.774
33.774
33.7742
33.7744
33.7749
33.7755
33.7752
33.7746
33.7742
33.774
33.7739
33.7739
33.7741
33.7744
33.7748
33.7754
33.7752
33.7746
33.7742
33.774
33.7739
33.774
33.7741
33.7744
33.7749
33.7755
33.7753
33.7748
33.7744
33.7742
33.7741
33.7741
33.7743
33.7746
33.775
33.7757
33.7756
33.775
33.7747
33.7745
33.7744
33.7744
33.7746
33.7749
33.7753
33.776
33.7759
33.7754
33.7751
33.7749
33.7748
33.7749
33.775
33.7754
33.7758
33.7764
33.7764
33.776
33.7757
33.7755
33.7755
33.7755
33.7757
33.776
33.7764
33.7771
20.9319
20.9314
20.9311
20.9309
20.9308
20.9308
20.9309
20.9312
20.9315
20.9319
20.9314
20.9309
20.9306
20.9304
20.9303
20.9303
20.9304
20.9307
20.9311
20.9316
20.9311
20.9306
20.9302
20.93
20.93
20.93
20.9301
20.9304
20.9308
20.9314
20.9309
20.9304
20.93
20.9298
20.9298
20.9298
20.9299
20.9302
20.9306
20.9312
20.9308
20.9303
20.93
20.9298
20.9297
20.9297
20.9299
20.9301
20.9306
20.9312
20.9308
20.9303
20.93
20.9298
20.9297
20.9298
20.9299
20.9302
20.9306
20.9312
20.9309
20.9305
20.9301
20.9299
20.9299
20.9299
20.9301
20.9303
20.9308
20.9314
20.9312
20.9307
20.9304
20.9302
20.9302
20.9302
20.9304
20.9306
20.9311
20.9317
20.9315
20.9311
20.9308
20.9307
20.9306
20.9306
20.9308
20.9311
20.9315
20.9321
20.932
20.9317
20.9314
20.9313
20.9312
20.9313
20.9314
20.9317
20.9321
20.9328
12.1635
12.1631
12.1629
12.1627
12.1626
12.1626
12.1627
12.1629
12.1631
12.1635
12.1631
12.1627
12.1625
12.1623
12.1623
12.1623
12.1624
12.1625
12.1628
12.1632
12.1629
12.1625
12.1622
12.1621
12.162
12.162
12.1621
12.1623
12.1626
12.1631
12.1627
12.1623
12.1621
12.1619
12.1618
12.1619
12.162
12.1622
12.1625
12.1629
12.1626
12.1623
12.162
12.1619
12.1618
12.1618
12.1619
12.1621
12.1624
12.1629
12.1627
12.1623
12.162
12.1619
12.1618
12.1619
12.162
12.1622
12.1625
12.163
12.1628
12.1624
12.1622
12.162
12.162
12.162
12.1621
12.1623
12.1626
12.1631
12.163
12.1626
12.1624
12.1622
12.1622
12.1622
12.1623
12.1626
12.1629
12.1634
12.1633
12.1629
12.1627
12.1626
12.1626
12.1626
12.1627
12.1629
12.1633
12.1637
12.1637
12.1634
12.1632
12.1631
12.1631
12.1631
12.1632
12.1635
12.1638
12.1643
6.63102
6.63076
6.63058
6.63047
6.63042
6.63041
6.63043
6.63046
6.63049
6.6306
6.63076
6.6305
6.63032
6.63021
6.63016
6.63016
6.63018
6.63022
6.63027
6.63044
6.63058
6.63032
6.63015
6.63004
6.62999
6.62999
6.63001
6.63006
6.63012
6.63032
6.63048
6.63022
6.63004
6.62994
6.62989
6.62989
6.62992
6.62997
6.63004
6.63024
6.63044
6.63018
6.63
6.6299
6.62985
6.62985
6.62989
6.62994
6.63002
6.63022
6.63046
6.6302
6.63003
6.62993
6.62988
6.62989
6.62992
6.62998
6.63006
6.63026
6.63054
6.63029
6.63012
6.63002
6.62998
6.62999
6.63002
6.63008
6.63017
6.63037
6.6307
6.63045
6.63029
6.6302
6.63016
6.63017
6.63021
6.63027
6.63035
6.63056
6.63093
6.63071
6.63056
6.63048
6.63044
6.63045
6.63049
6.63055
6.63064
6.63084
6.63123
6.63107
6.63094
6.63087
6.63084
6.63085
6.63089
6.63095
6.63104
6.63124
3.39498
3.39482
3.39471
3.39463
3.39458
3.39453
3.39442
3.39414
3.39364
3.39311
3.39482
3.39466
3.39454
3.39447
3.39442
3.39437
3.39426
3.39399
3.3935
3.39302
3.39471
3.39455
3.39443
3.39436
3.39432
3.39427
3.39416
3.39389
3.39342
3.39294
3.39464
3.39448
3.39437
3.3943
3.39425
3.39421
3.3941
3.39384
3.39337
3.3929
3.39462
3.39446
3.39435
3.39428
3.39423
3.39419
3.39408
3.39383
3.39335
3.39289
3.39464
3.39448
3.39437
3.3943
3.39426
3.39421
3.39411
3.39385
3.39338
3.39292
3.3947
3.39454
3.39443
3.39437
3.39432
3.39428
3.39418
3.39392
3.39345
3.39299
3.3948
3.39465
3.39455
3.39449
3.39445
3.3944
3.3943
3.39405
3.39358
3.39312
3.39496
3.39482
3.39473
3.39468
3.39464
3.3946
3.39449
3.39424
3.39378
3.39331
3.39517
3.39507
3.39499
3.39494
3.39491
3.39487
3.39476
3.39451
3.39405
3.39358
1.6348
1.6347
1.63463
1.63458
1.63452
1.63438
1.63401
1.63306
1.6311
1.62839
1.6347
1.63461
1.63454
1.63449
1.63443
1.63429
1.63392
1.63298
1.63102
1.62833
1.63464
1.63455
1.63448
1.63443
1.63437
1.63423
1.63386
1.63292
1.63097
1.62829
1.6346
1.63451
1.63445
1.63439
1.63433
1.6342
1.63383
1.63289
1.63094
1.62827
1.63459
1.6345
1.63443
1.63438
1.63432
1.63419
1.63382
1.63288
1.63094
1.62826
1.6346
1.63451
1.63445
1.6344
1.63434
1.6342
1.63383
1.6329
1.63096
1.62828
1.63464
1.63455
1.63449
1.63444
1.63438
1.63425
1.63388
1.63295
1.631
1.62833
1.63471
1.63462
1.63456
1.63452
1.63446
1.63432
1.63396
1.63303
1.63108
1.62841
1.63481
1.63473
1.63467
1.63463
1.63458
1.63444
1.63408
1.63314
1.6312
1.62853
1.63494
1.63488
1.63484
1.6348
1.63474
1.63461
1.63424
1.63331
1.63137
1.62869
0.741665
0.741614
0.741574
0.741531
0.741441
0.741179
0.740383
0.738108
0.732328
0.72121
0.741616
0.741566
0.741526
0.741483
0.741393
0.741132
0.740337
0.738063
0.732289
0.721184
0.741583
0.741533
0.741494
0.74145
0.741361
0.7411
0.740306
0.738034
0.732263
0.721163
0.741565
0.741515
0.741475
0.741432
0.741343
0.741083
0.740289
0.738019
0.73225
0.721152
0.741559
0.741509
0.74147
0.741427
0.741338
0.741078
0.740286
0.738016
0.732248
0.72115
0.741566
0.741517
0.741478
0.741436
0.741347
0.741088
0.740295
0.738026
0.732258
0.721161
0.741588
0.741539
0.741501
0.74146
0.741372
0.741113
0.740321
0.738052
0.732284
0.721186
0.741627
0.74158
0.741544
0.741503
0.741416
0.741157
0.740365
0.738096
0.732328
0.721229
0.741684
0.741641
0.741608
0.74157
0.741484
0.741225
0.740433
0.738164
0.732395
0.721296
0.741759
0.74173
0.741701
0.741664
0.741579
0.74132
0.740529
0.73826
0.73249
0.721389
0.317605
0.317579
0.317555
0.317515
0.317404
0.317043
0.315841
0.311879
0.298715
0.25333
0.317581
0.317556
0.317531
0.317491
0.317381
0.31702
0.315819
0.311858
0.298697
0.253318
0.317566
0.31754
0.317515
0.317476
0.317366
0.317005
0.315804
0.311844
0.298685
0.25331
0.317556
0.317531
0.317507
0.317467
0.317357
0.316996
0.315796
0.311837
0.298679
0.253305
0.317554
0.317528
0.317504
0.317465
0.317355
0.316994
0.315795
0.311836
0.298678
0.253305
0.317558
0.317533
0.317509
0.31747
0.31736
0.317
0.3158
0.311841
0.298684
0.25331
0.31757
0.317545
0.317521
0.317482
0.317373
0.317013
0.315813
0.311855
0.298696
0.253321
0.31759
0.317566
0.317544
0.317505
0.317396
0.317036
0.315837
0.311878
0.298719
0.253339
0.317621
0.317599
0.317578
0.31754
0.317432
0.317072
0.315873
0.311913
0.298752
0.253368
0.317661
0.317646
0.317627
0.31759
0.317482
0.317122
0.315923
0.311963
0.2988
0.25341
0.128634
0.128621
0.128606
0.128574
0.128475
0.128155
0.127139
0.124049
0.11518
0.0919898
0.128623
0.128611
0.128595
0.128563
0.128465
0.128145
0.127129
0.124039
0.115173
0.0919848
0.128616
0.128603
0.128588
0.128556
0.128458
0.128138
0.127122
0.124033
0.115168
0.0919813
0.128612
0.128599
0.128584
0.128552
0.128454
0.128134
0.127119
0.12403
0.115165
0.0919794
0.128611
0.128598
0.128583
0.128551
0.128453
0.128134
0.127118
0.12403
0.115165
0.0919794
0.128613
0.128601
0.128586
0.128554
0.128456
0.128136
0.127121
0.124033
0.115167
0.0919816
0.128619
0.128607
0.128592
0.12856
0.128462
0.128143
0.127128
0.124039
0.115173
0.0919864
0.128629
0.128617
0.128603
0.128571
0.128473
0.128154
0.127139
0.12405
0.115184
0.0919947
0.128644
0.128633
0.12862
0.128588
0.128491
0.128172
0.127156
0.124067
0.115199
0.0920075
0.128664
0.128656
0.128644
0.128613
0.128515
0.128196
0.127181
0.124091
0.115222
0.0920262
0.0493716
0.0493655
0.0493565
0.0493345
0.0492668
0.0490564
0.0484332
0.0467139
0.0424129
0.0331624
0.049367
0.0493609
0.049352
0.0493299
0.0492623
0.049052
0.0484289
0.0467101
0.0424097
0.0331603
0.0493639
0.0493578
0.0493489
0.0493269
0.0492593
0.049049
0.0484261
0.0467075
0.0424077
0.0331588
0.0493622
0.0493561
0.0493473
0.0493253
0.0492577
0.0490475
0.0484247
0.0467062
0.0424066
0.0331581
0.0493619
0.0493558
0.0493469
0.049325
0.0492574
0.0490473
0.0484245
0.0467062
0.0424066
0.0331581
0.0493629
0.0493569
0.0493481
0.0493262
0.0492586
0.0490485
0.0484258
0.0467074
0.0424078
0.0331591
0.0493656
0.0493597
0.049351
0.0493291
0.0492616
0.0490516
0.0484288
0.0467103
0.0424104
0.0331612
0.0493703
0.0493645
0.049356
0.0493342
0.0492669
0.0490568
0.048434
0.0467153
0.042415
0.0331648
0.0493773
0.0493719
0.0493637
0.0493421
0.0492748
0.0490648
0.0484419
0.046723
0.042422
0.0331704
0.0493865
0.0493825
0.0493747
0.0493533
0.049286
0.0490759
0.0484529
0.0467337
0.0424319
0.0331784
0.0179932
0.0179903
0.0179855
0.0179728
0.0179345
0.0178216
0.0175092
0.0167197
0.0149508
0.0116297
0.0179913
0.0179885
0.0179837
0.017971
0.0179327
0.0178198
0.0175075
0.0167182
0.0149495
0.0116289
0.0179901
0.0179873
0.0179825
0.0179698
0.0179315
0.0178186
0.0175064
0.0167172
0.0149487
0.0116283
0.0179894
0.0179866
0.0179818
0.0179691
0.0179309
0.017818
0.0175059
0.0167167
0.0149483
0.011628
0.0179893
0.0179865
0.0179817
0.017969
0.0179308
0.017818
0.0175058
0.0167167
0.0149484
0.0116281
0.0179898
0.017987
0.0179822
0.0179696
0.0179314
0.0178185
0.0175064
0.0167172
0.0149489
0.0116285
0.0179909
0.0179882
0.0179835
0.0179708
0.0179327
0.0178198
0.0175077
0.0167185
0.01495
0.0116293
0.017993
0.0179903
0.0179856
0.017973
0.0179349
0.0178221
0.0175099
0.0167206
0.0149519
0.0116308
0.017996
0.0179935
0.0179889
0.0179764
0.0179383
0.0178255
0.0175132
0.0167238
0.0149548
0.0116332
0.0179999
0.017998
0.0179936
0.0179812
0.0179431
0.0178302
0.0175179
0.0167283
0.0149589
0.0116365
0.00623856
0.00623734
0.00623498
0.00622859
0.00620996
0.00615766
0.00602178
0.00570288
0.0050479
0.00393129
0.00623786
0.00623664
0.00623428
0.0062279
0.00620927
0.006157
0.00602115
0.00570231
0.00504744
0.00393097
0.00623739
0.00623618
0.00623382
0.00622744
0.00620883
0.00615656
0.00602074
0.00570195
0.00504715
0.00393076
0.00623714
0.00623593
0.00623358
0.0062272
0.00620859
0.00615634
0.00602054
0.00570177
0.005047
0.00393066
0.00623711
0.0062359
0.00623355
0.00622718
0.00620858
0.00615633
0.00602054
0.00570178
0.00504702
0.00393068
0.00623731
0.00623611
0.00623377
0.0062274
0.0062088
0.00615656
0.00602077
0.005702
0.00504722
0.00393084
0.00623779
0.0062366
0.00623427
0.00622792
0.00620933
0.00615708
0.00602128
0.00570249
0.00504766
0.00393119
0.00623861
0.00623745
0.00623515
0.00622881
0.00621023
0.00615799
0.00602217
0.00570333
0.00504841
0.00393179
0.00623983
0.00623874
0.00623648
0.00623018
0.0062116
0.00615935
0.00602351
0.00570461
0.00504955
0.0039327
0.00624145
0.00624056
0.00623838
0.0062321
0.00621353
0.00616127
0.00602539
0.0057064
0.00505117
0.003934
0.00206167
0.00206117
0.00206012
0.00205727
0.00204922
0.00202764
0.00197455
0.00185747
0.00163301
0.00127627
0.00206142
0.00206092
0.00205987
0.00205702
0.00204897
0.0020274
0.00197433
0.00185728
0.00163285
0.00127615
0.00206125
0.00206076
0.00205971
0.00205686
0.00204881
0.00202725
0.00197419
0.00185715
0.00163275
0.00127608
0.00206117
0.00206067
0.00205962
0.00205677
0.00204873
0.00202717
0.00197411
0.00185709
0.0016327
0.00127604
0.00206116
0.00206066
0.00205962
0.00205677
0.00204873
0.00202717
0.00197412
0.00185709
0.00163271
0.00127605
0.00206124
0.00206074
0.0020597
0.00205686
0.00204882
0.00202726
0.00197421
0.00185718
0.00163279
0.00127612
0.00206142
0.00206093
0.00205989
0.00205706
0.00204902
0.00202746
0.0019744
0.00185736
0.00163295
0.00127625
0.00206174
0.00206126
0.00206023
0.0020574
0.00204936
0.0020278
0.00197474
0.00185768
0.00163323
0.00127647
0.0020622
0.00206175
0.00206074
0.00205791
0.00204988
0.00202832
0.00197525
0.00185816
0.00163366
0.00127681
0.00206282
0.00206245
0.00206146
0.00205865
0.00205062
0.00202905
0.00197596
0.00185883
0.00163426
0.0012773
0.000650569
0.000650376
0.000649947
0.000648793
0.00064564
0.000637535
0.000618515
0.000578698
0.000506455
0.000397474
0.000650483
0.000650291
0.000649863
0.000648709
0.000645557
0.000637455
0.00061844
0.000578632
0.000506401
0.000397435
0.000650427
0.000650235
0.000649807
0.000648654
0.000645503
0.000637403
0.000618391
0.000578589
0.000506367
0.00039741
0.000650398
0.000650206
0.000649779
0.000648626
0.000645476
0.000637377
0.000618368
0.000578569
0.000506351
0.000397399
0.000650396
0.000650205
0.000649778
0.000648627
0.000645477
0.000637379
0.00061837
0.000578572
0.000506355
0.000397403
0.000650426
0.000650235
0.00064981
0.000648659
0.00064551
0.000637412
0.000618403
0.000578604
0.000506383
0.000397426
0.000650493
0.000650304
0.00064988
0.000648731
0.000645583
0.000637484
0.000618474
0.00057867
0.000506442
0.000397473
0.000650607
0.000650421
0.000650001
0.000648853
0.000645706
0.000637607
0.000618593
0.000578783
0.000506541
0.000397553
0.000650776
0.000650599
0.000650185
0.00064904
0.000645894
0.000637793
0.000618775
0.000578953
0.000506692
0.000397675
0.000651001
0.000650851
0.000650445
0.000649303
0.000646157
0.000638054
0.000619029
0.000579193
0.000506905
0.000397847
0.000196359
0.000196289
0.000196128
0.000195699
0.000194563
0.00019175
0.000185415
0.000172723
0.000150702
0.000118785
0.000196331
0.000196262
0.000196101
0.000195672
0.000194537
0.000191724
0.000185391
0.000172702
0.000150684
0.000118773
0.000196313
0.000196244
0.000196083
0.000195654
0.000194519
0.000191708
0.000185375
0.000172688
0.000150674
0.000118765
0.000196304
0.000196235
0.000196074
0.000195646
0.000194511
0.0001917
0.000185368
0.000172682
0.000150669
0.000118761
0.000196304
0.000196235
0.000196074
0.000195646
0.000194512
0.000191701
0.000185369
0.000172684
0.00015067
0.000118763
0.000196315
0.000196245
0.000196085
0.000195658
0.000194523
0.000191712
0.000185381
0.000172694
0.00015068
0.000118771
0.000196338
0.000196269
0.000196109
0.000195682
0.000194548
0.000191737
0.000185405
0.000172717
0.0001507
0.000118787
0.000196377
0.000196309
0.000196151
0.000195724
0.00019459
0.000191779
0.000185445
0.000172755
0.000150733
0.000118814
0.000196435
0.00019637
0.000196214
0.000195788
0.000194654
0.000191842
0.000185507
0.000172813
0.000150784
0.000118855
0.000196512
0.000196456
0.000196303
0.000195878
0.000194744
0.000191931
0.000185593
0.000172894
0.000150856
0.000118913
5.67812e-05
5.67573e-05
5.67009e-05
5.65532e-05
5.61727e-05
5.52613e-05
5.32816e-05
4.9463e-05
4.30853e-05
3.41634e-05
5.67726e-05
5.67488e-05
5.66925e-05
5.65448e-05
5.61645e-05
5.52534e-05
5.32742e-05
4.94565e-05
4.308e-05
3.41595e-05
5.67671e-05
5.67433e-05
5.6687e-05
5.65394e-05
5.61592e-05
5.52483e-05
5.32695e-05
4.94524e-05
4.30767e-05
3.4157e-05
5.67643e-05
5.67405e-05
5.66843e-05
5.65368e-05
5.61567e-05
5.52459e-05
5.32673e-05
4.94505e-05
4.30753e-05
3.4156e-05
5.67645e-05
5.67407e-05
5.66845e-05
5.65371e-05
5.6157e-05
5.52464e-05
5.32679e-05
4.94511e-05
4.30759e-05
3.41566e-05
5.6768e-05
5.67443e-05
5.66882e-05
5.65408e-05
5.61608e-05
5.52502e-05
5.32716e-05
4.94546e-05
4.3079e-05
3.41592e-05
5.67756e-05
5.67521e-05
5.66962e-05
5.65489e-05
5.6169e-05
5.52583e-05
5.32794e-05
4.9462e-05
4.30855e-05
3.41645e-05
5.67884e-05
5.67652e-05
5.67096e-05
5.65626e-05
5.61827e-05
5.52719e-05
5.32926e-05
4.94743e-05
4.30964e-05
3.41733e-05
5.68073e-05
5.67851e-05
5.67301e-05
5.65833e-05
5.62035e-05
5.52924e-05
5.33125e-05
4.94929e-05
4.31128e-05
3.41866e-05
5.68327e-05
5.68131e-05
5.6759e-05
5.66125e-05
5.62327e-05
5.53212e-05
5.33404e-05
4.95189e-05
4.31358e-05
3.42054e-05
1.57554e-05
1.57477e-05
1.57292e-05
1.56816e-05
1.55622e-05
1.52847e-05
1.47013e-05
1.36165e-05
1.18854e-05
9.66355e-06
1.57529e-05
1.57452e-05
1.57267e-05
1.56791e-05
1.55598e-05
1.52823e-05
1.46992e-05
1.36146e-05
1.18838e-05
9.66236e-06
1.57512e-05
1.57435e-05
1.57251e-05
1.56775e-05
1.55582e-05
1.52809e-05
1.46978e-05
1.36134e-05
1.18829e-05
9.66163e-06
1.57504e-05
1.57427e-05
1.57243e-05
1.56768e-05
1.55575e-05
1.52802e-05
1.46972e-05
1.36129e-05
1.18825e-05
9.66134e-06
1.57505e-05
1.57429e-05
1.57245e-05
1.56769e-05
1.55577e-05
1.52803e-05
1.46974e-05
1.36131e-05
1.18827e-05
9.66155e-06
1.57516e-05
1.5744e-05
1.57256e-05
1.56781e-05
1.55589e-05
1.52815e-05
1.46986e-05
1.36142e-05
1.18837e-05
9.66239e-06
1.5754e-05
1.57464e-05
1.57281e-05
1.56806e-05
1.55614e-05
1.52841e-05
1.4701e-05
1.36165e-05
1.18857e-05
9.66406e-06
1.5758e-05
1.57505e-05
1.57323e-05
1.56849e-05
1.55656e-05
1.52883e-05
1.47051e-05
1.36203e-05
1.1889e-05
9.66686e-06
1.57639e-05
1.57567e-05
1.57386e-05
1.56913e-05
1.55721e-05
1.52946e-05
1.47112e-05
1.3626e-05
1.18941e-05
9.67108e-06
1.57718e-05
1.57654e-05
1.57476e-05
1.57004e-05
1.55811e-05
1.53035e-05
1.47198e-05
1.3634e-05
1.19012e-05
9.67696e-06
0.0848759
0.0282795
0.0093116
0.00322937
0.00193093
0.00371953
0.0112796
0.0352587
0.107886
0.324013
0.0848715
0.0282779
0.00931095
0.00322903
0.0019305
0.00371847
0.0112768
0.0352511
0.107867
0.323966
0.0848685
0.0282768
0.00931054
0.00322883
0.00193024
0.00371785
0.0112751
0.0352468
0.107856
0.323941
0.0848669
0.0282762
0.00931035
0.00322873
0.00193012
0.00371754
0.0112743
0.0352447
0.107851
0.323929
0.084867
0.0282763
0.00931039
0.00322874
0.00193009
0.00371744
0.011274
0.0352441
0.10785
0.323925
0.0848689
0.0282771
0.00931072
0.00322887
0.00193015
0.00371752
0.0112743
0.0352447
0.107851
0.32393
0.0848733
0.0282789
0.0093114
0.00322914
0.00193031
0.00371776
0.0112749
0.0352464
0.107856
0.323943
0.0848808
0.0282819
0.00931255
0.00322959
0.00193056
0.00371813
0.0112759
0.0352493
0.107864
0.323965
0.0848923
0.0282863
0.00931425
0.00323025
0.0019309
0.0037186
0.0112771
0.0352529
0.107875
0.323994
0.084908
0.0282923
0.0093165
0.0032311
0.0019313
0.00371906
0.0112783
0.0352563
0.107885
0.324025
0.0432223
0.0171896
0.00629273
0.00235127
0.00148173
0.00281187
0.00813736
0.0237813
0.0655445
0.164954
0.0432198
0.0171885
0.00629229
0.00235102
0.0014814
0.00281108
0.00813531
0.0237763
0.0655329
0.164931
0.0432182
0.0171878
0.006292
0.00235087
0.0014812
0.00281061
0.0081341
0.0237733
0.0655262
0.164917
0.0432173
0.0171875
0.00629187
0.0023508
0.0014811
0.00281037
0.00813348
0.0237718
0.0655227
0.164909
0.0432174
0.0171875
0.00629191
0.00235081
0.00148108
0.00281029
0.00813329
0.0237714
0.0655217
0.164907
0.0432185
0.0171881
0.00629214
0.00235091
0.00148113
0.00281035
0.00813345
0.0237718
0.0655229
0.16491
0.0432211
0.0171893
0.00629265
0.00235112
0.00148125
0.00281054
0.00813394
0.0237731
0.0655261
0.164918
0.0432255
0.0171913
0.00629349
0.00235147
0.00148146
0.00281085
0.00813472
0.0237752
0.0655316
0.16493
0.0432323
0.0171944
0.00629477
0.002352
0.00148175
0.00281126
0.00813577
0.0237781
0.0655391
0.164948
0.0432421
0.0171988
0.00629659
0.00235274
0.00148214
0.00281176
0.00813701
0.0237815
0.0655483
0.164971
0.0182792
0.00829724
0.00336222
0.00136923
0.000921934
0.00171354
0.00467463
0.0126696
0.0316173
0.0697444
0.0182781
0.00829669
0.00336197
0.00136908
0.000921728
0.00171306
0.00467345
0.0126669
0.0316116
0.0697342
0.0182773
0.00829633
0.00336181
0.00136898
0.000921601
0.00171277
0.00467273
0.0126652
0.0316082
0.0697277
0.0182769
0.00829616
0.00336173
0.00136894
0.000921536
0.00171262
0.00467236
0.0126644
0.0316063
0.0697243
0.018277
0.00829621
0.00336176
0.00136895
0.000921523
0.00171257
0.00467225
0.0126641
0.0316058
0.0697234
0.0182776
0.00829651
0.0033619
0.00136901
0.000921557
0.00171261
0.00467235
0.0126644
0.0316065
0.0697247
0.0182788
0.00829717
0.0033622
0.00136915
0.000921641
0.00171274
0.00467265
0.0126651
0.0316083
0.0697284
0.018281
0.00829828
0.00336271
0.00136937
0.000921782
0.00171295
0.00467316
0.0126664
0.0316113
0.0697347
0.0182844
0.00829998
0.00336348
0.00136971
0.000921987
0.00171324
0.00467387
0.0126682
0.0316156
0.0697439
0.0182892
0.00830244
0.00336459
0.0013702
0.000922265
0.00171362
0.00467478
0.0126706
0.0316213
0.0697564
0.00700017
0.00349073
0.00153894
0.000679368
0.000487722
0.000886815
0.00228324
0.00577824
0.0132912
0.0267022
0.00699968
0.00349048
0.00153882
0.000679288
0.000487611
0.000886565
0.00228266
0.00577698
0.0132887
0.026698
0.00699936
0.00349032
0.00153874
0.000679238
0.000487541
0.00088641
0.00228229
0.00577619
0.0132872
0.0266954
0.0069992
0.00349024
0.00153871
0.000679215
0.000487505
0.000886327
0.0022821
0.00577577
0.0132863
0.0266939
0.00699924
0.00349027
0.00153872
0.000679219
0.000487498
0.000886303
0.00228204
0.00577564
0.0132861
0.0266935
0.00699951
0.00349042
0.0015388
0.000679254
0.000487518
0.000886327
0.0022821
0.00577578
0.0132864
0.0266941
0.00700008
0.00349073
0.00153895
0.000679328
0.000487567
0.000886399
0.00228226
0.00577618
0.0132873
0.0266958
0.00700105
0.00349127
0.00153921
0.000679453
0.000487649
0.000886521
0.00228255
0.00577685
0.0132887
0.0266986
0.00700255
0.00349209
0.00153962
0.000679643
0.000487771
0.000886696
0.00228295
0.00577782
0.0132909
0.0267028
0.00700471
0.00349327
0.00154019
0.000679912
0.000487938
0.000886929
0.00228349
0.00577913
0.0132939
0.0267088
0.00249782
0.00133333
0.000629421
0.000298458
0.000226861
0.000403865
0.000986553
0.00235349
0.00507191
0.00952502
0.00249763
0.00133322
0.000629367
0.00029842
0.000226807
0.000403749
0.000986295
0.00235296
0.00507094
0.00952348
0.0024975
0.00133316
0.000629333
0.000298397
0.000226773
0.000403676
0.000986131
0.00235263
0.00507031
0.00952245
0.00249744
0.00133313
0.000629318
0.000298386
0.000226756
0.000403637
0.000986043
0.00235244
0.00506997
0.00952189
0.00249746
0.00133314
0.000629326
0.000298388
0.000226753
0.000403626
0.000986017
0.00235239
0.00506988
0.00952174
0.00249758
0.00133321
0.000629361
0.000298405
0.000226763
0.000403638
0.000986045
0.00235245
0.00507001
0.00952199
0.00249781
0.00133335
0.000629432
0.000298442
0.000226788
0.000403675
0.000986126
0.00235264
0.00507039
0.00952267
0.00249821
0.00133358
0.000629553
0.000298503
0.000226831
0.000403738
0.000986265
0.00235295
0.00507104
0.00952385
0.00249883
0.00133394
0.000629737
0.000298595
0.000226894
0.000403829
0.000986469
0.00235342
0.00507201
0.00952564
0.00249972
0.00133445
0.000630001
0.000298727
0.000226981
0.000403953
0.000986744
0.00235405
0.00507336
0.00952817
0.000840759
0.000472151
0.00023565
0.000118928
9.49643e-05
0.000165777
0.000386577
0.000877114
0.00179406
0.00320496
0.000840688
0.000472111
0.000235628
0.000118912
9.49411e-05
0.000165729
0.000386473
0.000876909
0.0017937
0.0032044
0.000840642
0.000472086
0.000235615
0.000118902
9.49264e-05
0.000165698
0.000386406
0.000876777
0.00179347
0.00320403
0.000840622
0.000472075
0.000235609
0.000118897
9.49187e-05
0.000165681
0.00038637
0.000876705
0.00179334
0.00320383
0.00084063
0.000472081
0.000235612
0.000118898
9.49174e-05
0.000165676
0.00038636
0.000876685
0.00179331
0.00320378
0.000840675
0.000472108
0.000235627
0.000118906
9.49222e-05
0.000165682
0.000386372
0.000876712
0.00179336
0.00320388
0.000840766
0.000472164
0.000235657
0.000118922
9.49339e-05
0.000165699
0.000386408
0.00087679
0.00179351
0.00320414
0.000840922
0.000472258
0.000235708
0.000118949
9.49537e-05
0.000165728
0.00038647
0.000876924
0.00179378
0.0032046
0.00084116
0.000472401
0.000235786
0.00011899
9.49832e-05
0.000165771
0.000386562
0.000877124
0.00179418
0.00320531
0.000841499
0.000472606
0.000235896
0.000119048
9.50243e-05
0.00016583
0.000386688
0.000877401
0.00179474
0.00320631
0.000268703
0.000156892
8.19829e-05
4.36781e-05
3.63727e-05
6.2371e-05
0.000139649
0.000303664
0.000595416
0.00102387
0.000268679
0.000156878
8.19748e-05
4.36718e-05
3.63635e-05
6.23522e-05
0.00013961
0.00030359
0.000595291
0.00102369
0.000268663
0.000156869
8.19697e-05
4.36679e-05
3.63576e-05
6.23401e-05
0.000139585
0.000303542
0.000595208
0.00102356
0.000268656
0.000156865
8.19677e-05
4.36661e-05
3.63546e-05
6.23335e-05
0.000139571
0.000303516
0.000595163
0.00102349
0.00026866
0.000156868
8.19691e-05
4.36665e-05
3.63541e-05
6.23317e-05
0.000139567
0.000303509
0.000595151
0.00102348
0.000268676
0.000156878
8.1975e-05
4.36697e-05
3.63561e-05
6.23343e-05
0.000139573
0.00030352
0.000595173
0.00102351
0.00026871
0.000156899
8.19867e-05
4.36762e-05
3.63611e-05
6.23414e-05
0.000139587
0.00030355
0.000595231
0.00102361
0.000268766
0.000156934
8.20065e-05
4.36872e-05
3.63695e-05
6.23537e-05
0.000139612
0.000303603
0.000595331
0.00102378
0.000268852
0.000156988
8.20367e-05
4.3704e-05
3.63821e-05
6.2372e-05
0.00013965
0.000303683
0.000595484
0.00102404
0.000268975
0.000157065
8.20794e-05
4.37275e-05
3.63996e-05
6.23973e-05
0.000139703
0.000303793
0.000595699
0.00102441
8.19175e-05
4.93411e-05
2.67988e-05
1.49709e-05
1.29219e-05
2.18008e-05
4.70998e-05
9.87549e-05
0.000186996
0.000311997
8.19093e-05
4.93363e-05
2.67959e-05
1.49685e-05
1.29185e-05
2.1794e-05
4.70862e-05
9.87299e-05
0.000186954
0.000311936
8.19041e-05
4.93333e-05
2.67941e-05
1.49671e-05
1.29163e-05
2.17896e-05
4.70774e-05
9.87135e-05
0.000186927
0.000311896
8.1902e-05
4.93321e-05
2.67934e-05
1.49664e-05
1.29152e-05
2.17873e-05
4.70726e-05
9.87045e-05
0.000186912
0.000311873
8.19034e-05
4.93331e-05
2.6794e-05
1.49666e-05
1.2915e-05
2.17866e-05
4.70713e-05
9.87022e-05
0.000186908
0.000311868
8.19091e-05
4.93368e-05
2.67962e-05
1.49678e-05
1.29158e-05
2.17877e-05
4.70733e-05
9.87063e-05
0.000186916
0.000311881
8.19208e-05
4.93442e-05
2.68005e-05
1.49703e-05
1.29178e-05
2.17904e-05
4.70788e-05
9.87175e-05
0.000186937
0.000311915
8.19403e-05
4.93567e-05
2.68077e-05
1.49745e-05
1.29211e-05
2.17953e-05
4.70884e-05
9.87369e-05
0.000186973
0.000311974
8.19699e-05
4.93756e-05
2.68186e-05
1.49808e-05
1.2926e-05
2.18025e-05
4.71029e-05
9.87663e-05
0.000187027
0.000312065
8.20119e-05
4.94024e-05
2.68341e-05
1.49897e-05
1.29329e-05
2.18125e-05
4.71231e-05
9.88075e-05
0.000187105
0.000312194
2.41188e-05
1.49632e-05
8.42022e-06
4.91394e-06
4.37886e-06
7.2751e-06
1.52109e-05
3.08575e-05
5.66194e-05
9.18115e-05
2.41162e-05
1.49616e-05
8.41924e-06
4.91312e-06
4.37765e-06
7.27275e-06
1.52063e-05
3.08493e-05
5.66062e-05
9.17925e-05
2.41146e-05
1.49606e-05
8.41864e-06
4.9126e-06
4.37687e-06
7.27123e-06
1.52033e-05
3.08439e-05
5.65974e-05
9.17798e-05
2.4114e-05
1.49602e-05
8.41842e-06
4.91238e-06
4.37648e-06
7.2704e-06
1.52017e-05
3.0841e-05
5.65926e-05
9.17728e-05
2.41145e-05
1.49606e-05
8.41863e-06
4.91246e-06
4.37643e-06
7.2702e-06
1.52013e-05
3.08403e-05
5.65916e-05
9.17714e-05
2.41164e-05
1.49619e-05
8.41939e-06
4.9129e-06
4.37674e-06
7.27059e-06
1.5202e-05
3.08417e-05
5.65943e-05
9.1776e-05
2.41203e-05
1.49644e-05
8.42091e-06
4.9138e-06
4.37747e-06
7.27164e-06
1.52041e-05
3.08457e-05
5.66014e-05
9.17873e-05
2.41267e-05
1.49687e-05
8.42343e-06
4.91532e-06
4.37871e-06
7.27344e-06
1.52076e-05
3.08526e-05
5.66137e-05
9.18071e-05
2.41365e-05
1.49751e-05
8.42725e-06
4.91761e-06
4.38058e-06
7.27614e-06
1.52129e-05
3.0863e-05
5.66326e-05
9.18374e-05
2.41503e-05
1.49841e-05
8.43262e-06
4.92081e-06
4.38316e-06
7.27988e-06
1.52202e-05
3.08775e-05
5.6659e-05
9.18804e-05
7.94614e-06
5.22695e-06
3.06911e-06
1.87327e-06
1.72083e-06
2.81586e-06
5.70015e-06
1.11763e-05
1.97401e-05
3.02268e-05
7.94528e-06
5.2264e-06
3.06877e-06
1.87296e-06
1.72036e-06
2.81496e-06
5.69844e-06
1.11733e-05
1.97355e-05
3.02206e-05
7.94473e-06
5.22605e-06
3.06854e-06
1.87276e-06
1.72004e-06
2.81435e-06
5.69729e-06
1.11713e-05
1.97323e-05
3.02162e-05
7.94452e-06
5.22593e-06
3.06846e-06
1.87267e-06
1.71988e-06
2.81402e-06
5.69665e-06
1.11702e-05
1.97305e-05
3.02137e-05
7.94472e-06
5.22608e-06
3.06855e-06
1.8727e-06