/*--------------------------------*- C++ -*----------------------------------*\
  =========                 |
  \\      /  F ield         | OpenFOAM: The Open Source CFD Toolbox
   \\    /   O peration     | Website:  https://openfoam.org
    \\  /    A nd           | Version:  6
     \\/     M anipulation  |
\*---------------------------------------------------------------------------*/
FoamFile
{
    version     2.0;
    format      ascii;
    class       volScalarField;
    location    "0.7";
    object      T;
}
// * * * * * * * * * * * * * * * * * * * * * * * * * * * * * * * * * * * * * //

dimensions      [0 0 0 1 0 0 0];

internalField   nonuniform List<scalar> 
7000
(
106.191
106.189
106.185
106.179
106.173
106.165
106.158
106.151
106.146
106.144
106.191
106.189
106.185
106.179
106.173
106.165
106.158
106.151
106.146
106.144
106.191
106.189
106.185
106.179
106.173
106.165
106.158
106.151
106.146
106.144
106.191
106.189
106.185
106.179
106.173
106.165
106.158
106.151
106.146
106.144
106.191
106.189
106.185
106.179
106.173
106.165
106.158
106.151
106.146
106.144
106.191
106.189
106.185
106.179
106.173
106.165
106.158
106.151
106.146
106.144
106.191
106.189
106.185
106.179
106.173
106.165
106.158
106.151
106.146
106.144
106.191
106.189
106.185
106.179
106.173
106.165
106.158
106.151
106.146
106.144
106.191
106.189
106.185
106.179
106.173
106.165
106.158
106.151
106.146
106.144
106.191
106.189
106.185
106.179
106.173
106.165
106.158
106.151
106.146
106.144
98.6
98.5938
98.5816
98.5645
98.5436
98.5207
98.4978
98.4776
98.4623
98.4541
98.6
98.5937
98.5816
98.5645
98.5436
98.5206
98.4978
98.4776
98.4623
98.4541
98.6
98.5937
98.5816
98.5645
98.5436
98.5206
98.4978
98.4776
98.4623
98.4541
98.6
98.5937
98.5816
98.5645
98.5436
98.5206
98.4978
98.4776
98.4623
98.4541
98.6
98.5937
98.5816
98.5645
98.5436
98.5206
98.4978
98.4776
98.4623
98.4541
98.6
98.5937
98.5816
98.5645
98.5436
98.5206
98.4978
98.4776
98.4623
98.4541
98.6
98.5937
98.5816
98.5645
98.5436
98.5206
98.4978
98.4776
98.4623
98.4541
98.6
98.5937
98.5816
98.5645
98.5436
98.5206
98.4978
98.4776
98.4623
98.4541
98.6
98.5937
98.5816
98.5645
98.5436
98.5206
98.4978
98.4776
98.4623
98.4541
98.6
98.5937
98.5816
98.5645
98.5436
98.5206
98.4978
98.4776
98.4623
98.4541
91.0901
91.0793
91.0584
91.0287
90.9923
90.9521
90.9117
90.8756
90.8482
90.8334
91.0901
91.0793
91.0584
91.0287
90.9923
90.9521
90.9117
90.8756
90.8482
90.8334
91.0901
91.0793
91.0584
91.0287
90.9923
90.952
90.9117
90.8756
90.8482
90.8333
91.09
91.0793
91.0584
91.0287
90.9923
90.952
90.9117
90.8756
90.8482
90.8333
91.09
91.0793
91.0584
91.0287
90.9923
90.952
90.9117
90.8756
90.8482
90.8333
91.09
91.0793
91.0584
91.0287
90.9923
90.952
90.9117
90.8756
90.8482
90.8333
91.09
91.0793
91.0584
91.0287
90.9923
90.952
90.9117
90.8756
90.8482
90.8333
91.09
91.0793
91.0584
91.0287
90.9923
90.952
90.9117
90.8756
90.8482
90.8333
91.0901
91.0793
91.0584
91.0287
90.9923
90.952
90.9117
90.8756
90.8482
90.8334
91.0901
91.0793
91.0584
91.0287
90.9923
90.9521
90.9117
90.8756
90.8482
90.8334
83.7139
83.6982
83.6675
83.6236
83.5693
83.5087
83.4472
83.3913
83.3483
83.3248
83.7139
83.6981
83.6674
83.6236
83.5693
83.5087
83.4471
83.3912
83.3483
83.3248
83.7139
83.6981
83.6674
83.6236
83.5693
83.5087
83.4471
83.3912
83.3483
83.3248
83.7139
83.6981
83.6674
83.6235
83.5693
83.5087
83.4471
83.3912
83.3483
83.3248
83.7139
83.6981
83.6674
83.6235
83.5693
83.5086
83.4471
83.3912
83.3482
83.3248
83.7139
83.6981
83.6674
83.6235
83.5693
83.5086
83.4471
83.3912
83.3482
83.3248
83.7139
83.6981
83.6674
83.6235
83.5693
83.5087
83.4471
83.3912
83.3482
83.3248
83.7139
83.6981
83.6674
83.6235
83.5693
83.5087
83.4471
83.3912
83.3483
83.3248
83.7139
83.6981
83.6674
83.6236
83.5693
83.5087
83.4471
83.3912
83.3483
83.3248
83.7139
83.6981
83.6674
83.6236
83.5693
83.5087
83.4471
83.3913
83.3483
83.3248
76.5223
76.501
76.4593
76.3991
76.3239
76.2385
76.1501
76.0682
76.0039
75.9681
76.5222
76.5009
76.4592
76.3991
76.3238
76.2385
76.1501
76.0682
76.0038
75.968
76.5222
76.5009
76.4592
76.3991
76.3238
76.2384
76.1501
76.0681
76.0038
75.968
76.5222
76.5009
76.4592
76.3991
76.3238
76.2384
76.15
76.0681
76.0038
75.968
76.5222
76.5009
76.4592
76.399
76.3238
76.2384
76.15
76.0681
76.0038
75.968
76.5222
76.5009
76.4592
76.399
76.3238
76.2384
76.15
76.0681
76.0038
75.968
76.5222
76.5009
76.4592
76.399
76.3238
76.2384
76.15
76.0681
76.0038
75.968
76.5222
76.5009
76.4592
76.3991
76.3238
76.2384
76.15
76.0681
76.0038
75.968
76.5222
76.5009
76.4592
76.3991
76.3238
76.2384
76.1501
76.0681
76.0038
75.968
76.5222
76.5009
76.4592
76.3991
76.3238
76.2385
76.1501
76.0682
76.0038
75.9681
69.5632
69.5358
69.4819
69.4033
69.3033
69.1876
69.0646
68.947
68.8515
68.7968
69.5632
69.5358
69.4818
69.4032
69.3033
69.1875
69.0646
68.9469
68.8515
68.7968
69.5632
69.5358
69.4818
69.4032
69.3033
69.1875
69.0645
68.9469
68.8514
68.7967
69.5632
69.5357
69.4818
69.4032
69.3032
69.1875
69.0645
68.9469
68.8514
68.7967
69.5631
69.5357
69.4818
69.4032
69.3032
69.1875
69.0645
68.9469
68.8514
68.7967
69.5631
69.5357
69.4818
69.4032
69.3032
69.1875
69.0645
68.9469
68.8514
68.7967
69.5631
69.5357
69.4818
69.4032
69.3032
69.1875
69.0645
68.9469
68.8514
68.7967
69.5632
69.5357
69.4818
69.4032
69.3033
69.1875
69.0645
68.9469
68.8514
68.7967
69.5632
69.5358
69.4818
69.4032
69.3033
69.1875
69.0645
68.9469
68.8514
68.7968
69.5632
69.5358
69.4819
69.4032
69.3033
69.1876
69.0646
68.947
68.8515
68.7968
62.8814
62.8476
62.7806
62.6816
62.5534
62.401
62.2332
62.0654
61.922
61.8355
62.8814
62.8476
62.7805
62.6816
62.5534
62.4009
62.2331
62.0654
61.922
61.8355
62.8814
62.8475
62.7805
62.6815
62.5534
62.4009
62.2331
62.0653
61.9219
61.8355
62.8813
62.8475
62.7805
62.6815
62.5533
62.4009
62.2331
62.0653
61.9219
61.8355
62.8813
62.8475
62.7805
62.6815
62.5533
62.4009
62.2331
62.0653
61.9219
61.8355
62.8813
62.8475
62.7804
62.6815
62.5533
62.4008
62.233
62.0653
61.9219
61.8355
62.8813
62.8475
62.7805
62.6815
62.5533
62.4009
62.2331
62.0653
61.9219
61.8355
62.8813
62.8475
62.7805
62.6815
62.5533
62.4009
62.2331
62.0653
61.9219
61.8355
62.8814
62.8475
62.7805
62.6816
62.5534
62.4009
62.2331
62.0654
61.922
61.8355
62.8814
62.8476
62.7805
62.6816
62.5534
62.4009
62.2331
62.0654
61.922
61.8356
56.5172
56.4771
56.397
56.2771
56.1184
55.9235
55.699
55.4604
55.2396
55.0936
56.5171
56.477
56.3969
56.2771
56.1184
55.9234
55.699
55.4604
55.2395
55.0935
56.5171
56.477
56.3969
56.277
56.1183
55.9234
55.699
55.4603
55.2395
55.0935
56.517
56.477
56.3969
56.277
56.1183
55.9234
55.6989
55.4603
55.2395
55.0935
56.517
56.4769
56.3969
56.277
56.1183
55.9234
55.6989
55.4603
55.2395
55.0934
56.517
56.4769
56.3969
56.277
56.1183
55.9234
55.6989
55.4603
55.2395
55.0934
56.517
56.4769
56.3969
56.277
56.1183
55.9234
55.6989
55.4603
55.2395
55.0935
56.517
56.477
56.3969
56.277
56.1183
55.9234
55.6989
55.4603
55.2395
55.0935
56.5171
56.477
56.3969
56.2771
56.1183
55.9234
55.699
55.4604
55.2395
55.0935
56.5171
56.477
56.397
56.2771
56.1184
55.9235
55.699
55.4604
55.2396
55.0936
50.5055
50.46
50.3684
50.2295
50.0412
49.8017
49.5104
49.1744
48.824
48.5503
50.5054
50.4599
50.3684
50.2294
50.0412
49.8016
49.5104
49.1744
48.8239
48.5503
50.5054
50.4599
50.3683
50.2294
50.0412
49.8016
49.5103
49.1743
48.8239
48.5503
50.5053
50.4599
50.3683
50.2294
50.0411
49.8015
49.5103
49.1743
48.8239
48.5502
50.5053
50.4598
50.3683
50.2294
50.0411
49.8015
49.5103
49.1743
48.8239
48.5502
50.5053
50.4598
50.3683
50.2294
50.0411
49.8015
49.5103
49.1743
48.8239
48.5502
50.5053
50.4599
50.3683
50.2294
50.0411
49.8015
49.5103
49.1743
48.8239
48.5502
50.5053
50.4599
50.3683
50.2294
50.0411
49.8016
49.5103
49.1743
48.8239
48.5503
50.5054
50.4599
50.3684
50.2294
50.0412
49.8016
49.5103
49.1744
48.8239
48.5503
50.5054
50.4599
50.3684
50.2295
50.0412
49.8017
49.5104
49.1744
48.824
48.5504
44.875
44.826
44.7266
44.5741
44.3631
44.0853
43.7275
43.2722
42.709
42.1169
44.875
44.8259
44.7266
44.574
44.363
44.0852
43.7275
43.2721
42.7089
42.1169
44.8749
44.8259
44.7265
44.574
44.363
44.0852
43.7274
43.2721
42.7089
42.1168
44.8749
44.8259
44.7265
44.5739
44.363
44.0852
43.7274
43.272
42.7089
42.1168
44.8749
44.8258
44.7265
44.5739
44.363
44.0852
43.7274
43.272
42.7089
42.1168
44.8749
44.8258
44.7265
44.5739
44.363
44.0851
43.7274
43.272
42.7089
42.1168
44.8749
44.8259
44.7265
44.5739
44.363
44.0852
43.7274
43.272
42.7089
42.1168
44.8749
44.8259
44.7265
44.5739
44.363
44.0852
43.7274
43.2721
42.7089
42.1168
44.875
44.8259
44.7266
44.574
44.363
44.0852
43.7275
43.2721
42.7089
42.1169
44.875
44.826
44.7266
44.574
44.3631
44.0853
43.7275
43.2722
42.709
42.1169
39.6471
39.5972
39.4958
39.3392
39.12
38.8251
38.4284
37.8758
37.0347
35.5162
39.6471
39.5972
39.4958
39.3391
39.12
38.825
38.4284
37.8757
37.0347
35.5161
39.6471
39.5971
39.4957
39.3391
39.1199
38.825
38.4283
37.8757
37.0346
35.5161
39.647
39.5971
39.4957
39.3391
39.1199
38.8249
38.4283
37.8756
37.0346
35.516
39.647
39.5971
39.4957
39.339
39.1199
38.8249
38.4283
37.8756
37.0346
35.516
39.647
39.5971
39.4957
39.339
39.1199
38.8249
38.4283
37.8756
37.0346
35.516
39.647
39.5971
39.4957
39.339
39.1199
38.8249
38.4283
37.8756
37.0346
35.516
39.647
39.5971
39.4957
39.3391
39.1199
38.8249
38.4283
37.8757
37.0346
35.5161
39.6471
39.5972
39.4958
39.3391
39.12
38.825
38.4284
37.8757
37.0346
35.5161
39.6471
39.5972
39.4958
39.3392
39.12
38.825
38.4284
37.8758
37.0347
35.5162
34.8346
34.7871
34.6908
34.5426
34.336
34.0594
33.6909
33.1898
32.4818
31.4528
34.8345
34.7871
34.6908
34.5425
34.3359
34.0593
33.6909
33.1898
32.4817
31.4527
34.8345
34.787
34.6907
34.5425
34.3359
34.0593
33.6908
33.1897
32.4816
31.4526
34.8345
34.787
34.6907
34.5424
34.3358
34.0592
33.6908
33.1897
32.4816
31.4526
34.8345
34.787
34.6907
34.5424
34.3358
34.0592
33.6908
33.1897
32.4816
31.4526
34.8344
34.787
34.6907
34.5424
34.3358
34.0592
33.6908
33.1897
32.4816
31.4526
34.8345
34.787
34.6907
34.5424
34.3358
34.0592
33.6908
33.1897
32.4816
31.4526
34.8345
34.787
34.6907
34.5424
34.3359
34.0593
33.6908
33.1897
32.4816
31.4526
34.8345
34.787
34.6908
34.5425
34.3359
34.0593
33.6908
33.1898
32.4817
31.4527
34.8345
34.7871
34.6908
34.5425
34.336
34.0594
33.6909
33.1898
32.4817
31.4528
30.4413
30.3995
30.3154
30.1878
30.014
29.7889
29.5044
29.1485
28.7127
28.2217
30.4412
30.3994
30.3154
30.1878
30.0139
29.7889
29.5043
29.1485
28.7126
28.2217
30.4412
30.3994
30.3153
30.1877
30.0139
29.7888
29.5043
29.1484
28.7126
28.2216
30.4411
30.3994
30.3153
30.1877
30.0139
29.7888
29.5042
29.1484
28.7125
28.2216
30.4411
30.3993
30.3153
30.1877
30.0138
29.7888
29.5042
29.1484
28.7125
28.2215
30.4411
30.3993
30.3153
30.1877
30.0138
29.7888
29.5042
29.1484
28.7125
28.2215
30.4411
30.3994
30.3153
30.1877
30.0139
29.7888
29.5042
29.1484
28.7125
28.2216
30.4412
30.3994
30.3153
30.1877
30.0139
29.7888
29.5043
29.1484
28.7126
28.2216
30.4412
30.3994
30.3154
30.1878
30.0139
29.7889
29.5043
29.1484
28.7126
28.2216
30.4412
30.3995
30.3154
30.1878
30.014
29.7889
29.5044
29.1485
28.7127
28.2217
26.4625
26.429
26.3627
26.2651
26.1384
25.9858
25.8131
25.6322
25.4703
25.3922
26.4624
26.4289
26.3627
26.2651
26.1383
25.9857
25.8131
25.6321
25.4702
25.3921
26.4624
26.4289
26.3626
26.265
26.1383
25.9857
25.813
25.6321
25.4702
25.392
26.4623
26.4288
26.3626
26.265
26.1382
25.9856
25.813
25.6321
25.4701
25.392
26.4623
26.4288
26.3626
26.265
26.1382
25.9856
25.813
25.632
25.4701
25.392
26.4623
26.4288
26.3626
26.265
26.1382
25.9856
25.813
25.632
25.4701
25.392
26.4623
26.4288
26.3626
26.265
26.1382
25.9856
25.813
25.6321
25.4701
25.392
26.4623
26.4289
26.3626
26.265
26.1383
25.9857
25.813
25.6321
25.4702
25.392
26.4624
26.4289
26.3627
26.2651
26.1383
25.9857
25.8131
25.6321
25.4702
25.3921
26.4624
26.4289
26.3627
26.2651
26.1384
25.9858
25.8131
25.6322
25.4703
25.3922
22.8858
22.8621
22.8169
22.7542
22.6812
22.6087
22.5535
22.542
22.6161
22.8433
22.8857
22.8621
22.8168
22.7542
22.6811
22.6086
22.5534
22.5419
22.6161
22.8432
22.8857
22.862
22.8168
22.7541
22.6811
22.6086
22.5534
22.5419
22.616
22.8432
22.8856
22.862
22.8167
22.7541
22.681
22.6085
22.5534
22.5418
22.616
22.8431
22.8856
22.862
22.8167
22.7541
22.681
22.6085
22.5533
22.5418
22.6159
22.8431
22.8856
22.862
22.8167
22.7541
22.681
22.6085
22.5533
22.5418
22.6159
22.8431
22.8856
22.862
22.8167
22.7541
22.681
22.6085
22.5534
22.5418
22.616
22.8431
22.8857
22.862
22.8168
22.7541
22.6811
22.6086
22.5534
22.5419
22.616
22.8432
22.8857
22.862
22.8168
22.7541
22.6811
22.6086
22.5534
22.5419
22.616
22.8432
22.8857
22.8621
22.8168
22.7542
22.6812
22.6087
22.5535
22.542
22.6161
22.8433
19.6927
19.6793
19.6556
19.6282
19.6084
19.6131
19.6669
19.805
20.0751
20.5378
19.6927
19.6792
19.6555
19.6282
19.6084
19.613
19.6668
19.805
20.0751
20.5377
19.6927
19.6792
19.6555
19.6282
19.6084
19.613
19.6668
19.8049
20.075
20.5377
19.6926
19.6792
19.6554
19.6281
19.6083
19.6129
19.6668
19.8049
20.075
20.5376
19.6926
19.6791
19.6554
19.6281
19.6083
19.6129
19.6667
19.8049
20.075
20.5376
19.6926
19.6791
19.6554
19.6281
19.6083
19.6129
19.6667
19.8049
20.075
20.5376
19.6926
19.6792
19.6554
19.6281
19.6083
19.6129
19.6668
19.8049
20.075
20.5376
19.6926
19.6792
19.6555
19.6282
19.6084
19.613
19.6668
19.8049
20.075
20.5377
19.6927
19.6792
19.6555
19.6282
19.6084
19.613
19.6668
19.805
20.0751
20.5377
19.6927
19.6793
19.6555
19.6282
19.6084
19.6131
19.6669
19.805
20.0751
20.5378
16.8606
16.8566
16.8525
16.857
16.8841
16.9551
17.1009
17.3636
17.7967
18.4584
16.8606
16.8565
16.8525
16.8569
16.884
16.9551
17.1008
17.3635
17.7967
18.4584
16.8606
16.8565
16.8524
16.8569
16.884
16.955
17.1008
17.3635
17.7966
18.4583
16.8605
16.8565
16.8524
16.8569
16.884
16.955
17.1008
17.3634
17.7966
18.4583
16.8605
16.8565
16.8524
16.8569
16.8839
16.955
17.1007
17.3634
17.7966
18.4583
16.8605
16.8565
16.8524
16.8569
16.8839
16.955
17.1007
17.3634
17.7966
18.4583
16.8605
16.8565
16.8524
16.8569
16.884
16.955
17.1008
17.3634
17.7966
18.4583
16.8606
16.8565
16.8524
16.8569
16.884
16.955
17.1008
17.3635
17.7966
18.4583
16.8606
16.8565
16.8525
16.8569
16.884
16.9551
17.1008
17.3635
17.7967
18.4584
16.8606
16.8566
16.8525
16.857
16.8841
16.9551
17.1009
17.3636
17.7967
18.4584
14.3642
14.3678
14.3797
14.4093
14.4723
14.593
14.8065
15.1629
15.729
16.5797
14.3641
14.3678
14.3797
14.4092
14.4723
14.5929
14.8064
15.1629
15.729
16.5796
14.3641
14.3678
14.3796
14.4092
14.4722
14.5929
14.8064
15.1628
15.7289
16.5796
14.3641
14.3677
14.3796
14.4092
14.4722
14.5929
14.8064
15.1628
15.7289
16.5795
14.3641
14.3677
14.3796
14.4091
14.4722
14.5928
14.8063
15.1628
15.7289
16.5795
14.3641
14.3677
14.3796
14.4091
14.4722
14.5928
14.8063
15.1628
15.7289
16.5795
14.3641
14.3677
14.3796
14.4092
14.4722
14.5929
14.8064
15.1628
15.7289
16.5795
14.3641
14.3678
14.3796
14.4092
14.4722
14.5929
14.8064
15.1628
15.7289
16.5796
14.3641
14.3678
14.3797
14.4092
14.4723
14.5929
14.8064
15.1629
15.729
16.5796
14.3642
14.3678
14.3797
14.4093
14.4723
14.593
14.8065
15.1629
15.729
16.5797
12.1771
12.1862
12.2091
12.2551
12.3401
12.4885
12.7371
13.143
13.7955
14.8319
12.177
12.1862
12.209
12.255
12.3401
12.4884
12.7371
13.1429
13.7955
14.8318
12.177
12.1862
12.209
12.255
12.34
12.4884
12.737
13.1429
13.7954
14.8318
12.177
12.1861
12.209
12.255
12.34
12.4884
12.737
13.1429
13.7954
14.8317
12.177
12.1861
12.209
12.255
12.34
12.4883
12.737
13.1428
13.7954
14.8317
12.177
12.1861
12.209
12.255
12.34
12.4883
12.737
13.1428
13.7954
14.8317
12.177
12.1861
12.209
12.255
12.34
12.4884
12.737
13.1429
13.7954
14.8317
12.177
12.1862
12.209
12.255
12.34
12.4884
12.7371
13.1429
13.7955
14.8318
12.177
12.1862
12.209
12.255
12.3401
12.4884
12.7371
13.1429
13.7955
14.8318
12.1771
12.1862
12.2091
12.2551
12.3401
12.4885
12.7371
13.143
13.7956
14.8319
10.2734
10.2857
10.3142
10.3675
10.4594
10.6111
10.8543
11.2412
11.871
12.9919
10.2734
10.2856
10.3142
10.3675
10.4594
10.611
10.8543
11.2411
11.8709
12.9918
10.2734
10.2856
10.3141
10.3674
10.4594
10.611
10.8542
11.2411
11.8709
12.9918
10.2733
10.2856
10.3141
10.3674
10.4593
10.611
10.8542
11.2411
11.8709
12.9918
10.2733
10.2856
10.3141
10.3674
10.4593
10.6109
10.8542
11.241
11.8709
12.9918
10.2733
10.2856
10.3141
10.3674
10.4593
10.611
10.8542
11.2411
11.8709
12.9918
10.2733
10.2856
10.3141
10.3674
10.4594
10.611
10.8542
11.2411
11.8709
12.9918
10.2734
10.2856
10.3141
10.3674
10.4594
10.611
10.8543
11.2411
11.8709
12.9918
10.2734
10.2856
10.3142
10.3675
10.4594
10.611
10.8543
11.2411
11.8709
12.9919
10.2734
10.2857
10.3142
10.3675
10.4595
10.6111
10.8543
11.2412
11.871
12.9919
31.9364
30.7408
31.2024
33.0864
36.3763
41.1966
47.814
56.7016
68.7158
85.5673
31.9363
30.7408
31.2023
33.0862
36.3762
41.1965
47.8138
56.7015
68.7156
85.5671
31.9362
30.7407
31.2022
33.0862
36.3761
41.1964
47.8137
56.7014
68.7155
85.567
31.9362
30.7406
31.2021
33.0861
36.3761
41.1963
47.8137
56.7013
68.7154
85.5669
31.9362
30.7406
31.2021
33.0861
36.376
41.1963
47.8136
56.7013
68.7154
85.5669
31.9362
30.7406
31.2021
33.0861
36.376
41.1963
47.8136
56.7013
68.7154
85.5669
31.9362
30.7406
31.2021
33.0861
36.376
41.1963
47.8137
56.7013
68.7154
85.5669
31.9362
30.7407
31.2021
33.0861
36.3761
41.1963
47.8137
56.7014
68.7155
85.567
31.9363
30.7407
31.2022
33.0862
36.3761
41.1964
47.8138
56.7014
68.7155
85.5671
31.9363
30.7408
31.2023
33.0863
36.3762
41.1965
47.8139
56.7015
68.7156
85.5672
30.0884
29.6728
30.4193
32.3699
35.5859
40.1904
46.3855
54.4676
64.82
77.7592
30.0883
29.6728
30.4192
32.3698
35.5858
40.1902
46.3854
54.4675
64.8199
77.7591
30.0883
29.6727
30.4191
32.3697
35.5857
40.1902
46.3853
54.4674
64.8198
77.759
30.0882
29.6726
30.4191
32.3697
35.5857
40.1901
46.3852
54.4673
64.8197
77.7589
30.0882
29.6726
30.419
32.3696
35.5856
40.1901
46.3852
54.4673
64.8197
77.7589
30.0882
29.6726
30.419
32.3696
35.5856
40.1901
46.3852
54.4673
64.8197
77.7589
30.0882
29.6726
30.419
32.3696
35.5856
40.1901
46.3852
54.4673
64.8197
77.7589
30.0882
29.6727
30.4191
32.3697
35.5857
40.1901
46.3852
54.4673
64.8197
77.759
30.0883
29.6727
30.4191
32.3697
35.5858
40.1902
46.3853
54.4674
64.8198
77.759
30.0884
29.6728
30.4192
32.3698
35.5858
40.1903
46.3854
54.4675
64.82
77.7592
27.834
28.0327
29.0701
31.0751
34.1438
38.3804
43.9073
50.8502
59.2727
68.9915
27.8339
28.0326
29.07
31.075
34.1437
38.3803
43.9072
50.8501
59.2725
68.9914
27.8339
28.0326
29.07
31.0749
34.1436
38.3802
43.9071
50.85
59.2724
68.9913
27.8338
28.0325
29.0699
31.0749
34.1436
38.3801
43.907
50.8499
59.2724
68.9912
27.8338
28.0325
29.0699
31.0748
34.1436
38.3801
43.907
50.8499
59.2723
68.9912
27.8338
28.0325
29.0699
31.0748
34.1436
38.3801
43.907
50.8499
59.2723
68.9912
27.8338
28.0325
29.0699
31.0749
34.1436
38.3801
43.907
50.8499
59.2724
68.9912
27.8339
28.0325
29.0699
31.0749
34.1436
38.3802
43.907
50.8499
59.2724
68.9913
27.8339
28.0326
29.07
31.075
34.1437
38.3802
43.9071
50.85
59.2725
68.9914
27.834
28.0327
29.0701
31.0751
34.1438
38.3804
43.9072
50.8502
59.2726
68.9915
25.538
26.1423
27.3879
29.3984
32.2642
36.0593
40.8411
46.6294
53.3516
60.7442
25.5379
26.1422
27.3878
29.3983
32.2641
36.0591
40.841
46.6292
53.3515
60.7441
25.5378
26.1421
27.3877
29.3982
32.264
36.059
40.8409
46.6291
53.3514
60.744
25.5378
26.1421
27.3877
29.3981
32.2639
36.059
40.8408
46.6291
53.3513
60.7439
25.5378
26.1421
27.3876
29.3981
32.2639
36.059
40.8408
46.629
53.3513
60.7439
25.5377
26.1421
27.3876
29.3981
32.2639
36.059
40.8408
46.629
53.3513
60.7439
25.5378
26.1421
27.3876
29.3981
32.2639
36.059
40.8408
46.6291
53.3513
60.7439
25.5378
26.1421
27.3877
29.3982
32.264
36.059
40.8409
46.6291
53.3514
60.744
25.5379
26.1422
27.3878
29.3983
32.2641
36.0591
40.841
46.6292
53.3515
60.7441
25.5379
26.1423
27.3878
29.3983
32.2642
36.0592
40.8411
46.6293
53.3516
60.7442
23.3256
24.1945
25.5687
27.5403
30.1762
33.5195
37.5837
42.3356
47.6654
53.3487
23.3255
24.1944
25.5686
27.5402
30.1761
33.5194
37.5836
42.3355
47.6653
53.3485
23.3255
24.1943
25.5685
27.5401
30.176
33.5193
37.5835
42.3354
47.6652
53.3484
23.3254
24.1943
25.5685
27.5401
30.176
33.5193
37.5834
42.3353
47.6651
53.3484
23.3254
24.1943
25.5685
27.54
30.1759
33.5192
37.5834
42.3353
47.6651
53.3483
23.3254
24.1943
25.5685
27.54
30.1759
33.5192
37.5834
42.3353
47.6651
53.3483
23.3254
24.1943
25.5685
27.5401
30.1759
33.5192
37.5834
42.3353
47.6651
53.3484
23.3254
24.1943
25.5685
27.5401
30.176
33.5193
37.5835
42.3354
47.6652
53.3484
23.3255
24.1944
25.5686
27.5402
30.1761
33.5194
37.5836
42.3355
47.6653
53.3485
23.3256
24.1945
25.5687
27.5403
30.1762
33.5195
37.5837
42.3356
47.6654
53.3487
21.2621
22.3174
23.7713
25.6818
28.0902
31.0138
34.4383
38.307
42.5099
46.8782
21.262
22.3173
23.7712
25.6817
28.0901
31.0137
34.4382
38.3069
42.5097
46.8781
21.2619
22.3173
23.7712
25.6817
28.09
31.0136
34.4381
38.3068
42.5096
46.878
21.2619
22.3172
23.7711
25.6816
28.09
31.0136
34.438
38.3067
42.5096
46.8779
21.2619
22.3172
23.7711
25.6816
28.0899
31.0135
34.438
38.3067
42.5095
46.8779
21.2619
22.3172
23.7711
25.6816
28.0899
31.0135
34.438
38.3067
42.5095
46.8779
21.2619
22.3172
23.7711
25.6816
28.09
31.0136
34.438
38.3067
42.5096
46.8779
21.2619
22.3173
23.7712
25.6817
28.09
31.0136
34.4381
38.3068
42.5096
46.878
21.262
22.3173
23.7712
25.6817
28.0901
31.0137
34.4382
38.3069
42.5097
46.8781
21.2621
22.3174
23.7713
25.6818
28.0902
31.0138
34.4383
38.307
42.5099
46.8782
19.3924
20.6074
22.1258
23.9781
26.1857
28.7477
31.6315
34.7673
38.0493
41.3502
19.3923
20.6073
22.1257
23.978
26.1856
28.7476
31.6314
34.7672
38.0492
41.35
19.3923
20.6072
22.1256
23.9779
26.1855
28.7475
31.6313
34.7671
38.0491
41.35
19.3923
20.6072
22.1256
23.9778
26.1855
28.7475
31.6313
34.7671
38.0491
41.3499
19.3922
20.6072
22.1256
23.9778
26.1854
28.7474
31.6312
34.767
38.049
41.3499
19.3922
20.6072
22.1256
23.9778
26.1854
28.7474
31.6312
34.767
38.049
41.3499
19.3923
20.6072
22.1256
23.9778
26.1855
28.7475
31.6313
34.7671
38.0491
41.3499
19.3923
20.6072
22.1256
23.9779
26.1855
28.7475
31.6313
34.7671
38.0491
41.35
19.3923
20.6073
22.1257
23.978
26.1856
28.7476
31.6314
34.7672
38.0492
41.3501
19.3924
20.6074
22.1258
23.9781
26.1857
28.7477
31.6315
34.7673
38.0493
41.3502
17.7534
19.1473
20.7432
22.5597
24.6109
26.8859
29.3387
31.8844
34.4061
36.784
17.7533
19.1472
20.7431
22.5596
24.6108
26.8858
29.3386
31.8843
34.406
36.7839
17.7533
19.1472
20.7431
22.5595
24.6107
26.8858
29.3385
31.8842
34.4059
36.7838
17.7532
19.1471
20.743
22.5595
24.6107
26.8857
29.3385
31.8842
34.4059
36.7838
17.7532
19.1471
20.743
22.5594
24.6106
26.8857
29.3385
31.8841
34.4059
36.7838
17.7532
19.1471
20.743
22.5594
24.6106
26.8857
29.3385
31.8841
34.4059
36.7838
17.7532
19.1472
20.743
22.5595
24.6107
26.8857
29.3385
31.8842
34.4059
36.7838
17.7533
19.1472
20.7431
22.5595
24.6107
26.8858
29.3386
31.8842
34.406
36.7839
17.7533
19.1473
20.7431
22.5596
24.6108
26.8859
29.3386
31.8843
34.406
36.784
17.7534
19.1473
20.7432
22.5597
24.6109
26.886
29.3387
31.8844
34.4062
36.7841
16.3902
18.026
19.7258
21.5364
23.485
25.5599
27.704
29.81
31.7198
33.2474
16.3901
18.0259
19.7257
21.5364
23.4849
25.5598
27.7039
29.8099
31.7197
33.2473
16.3901
18.0258
19.7256
21.5363
23.4849
25.5597
27.7039
29.8098
31.7196
33.2472
16.3901
18.0258
19.7256
21.5363
23.4848
25.5597
27.7038
29.8098
31.7196
33.2472
16.39
18.0258
19.7256
21.5362
23.4848
25.5597
27.7038
29.8097
31.7195
33.2471
16.39
18.0258
19.7256
21.5362
23.4848
25.5597
27.7038
29.8097
31.7195
33.2471
16.3901
18.0258
19.7256
21.5363
23.4848
25.5597
27.7038
29.8098
31.7196
33.2472
16.3901
18.0258
19.7256
21.5363
23.4849
25.5598
27.7039
29.8098
31.7196
33.2472
16.3902
18.0259
19.7257
21.5364
23.4849
25.5598
27.704
29.8099
31.7197
33.2473
16.3902
18.026
19.7258
21.5365
23.485
25.56
27.7041
29.81
31.7198
33.2474
15.429
17.3693
19.1738
20.9968
22.897
24.8685
26.847
28.7016
30.2093
30.9878
15.4289
17.3693
19.1737
20.9968
22.8969
24.8684
26.8469
28.7015
30.2092
30.9877
15.4289
17.3692
19.1736
20.9967
22.8968
24.8683
26.8469
28.7014
30.2091
30.9876
15.4289
17.3692
19.1736
20.9967
22.8968
24.8683
26.8468
28.7014
30.2091
30.9876
15.4289
17.3692
19.1736
20.9966
22.8968
24.8683
26.8468
28.7014
30.209
30.9876
15.4289
17.3692
19.1736
20.9967
22.8968
24.8683
26.8468
28.7014
30.209
30.9876
15.4289
17.3692
19.1736
20.9967
22.8968
24.8683
26.8468
28.7014
30.2091
30.9876
15.4289
17.3693
19.1737
20.9967
22.8969
24.8683
26.8469
28.7015
30.2091
30.9877
15.429
17.3693
19.1737
20.9968
22.8969
24.8684
26.847
28.7016
30.2092
30.9877
15.429
17.3694
19.1738
20.9969
22.897
24.8685
26.8471
28.7017
30.2093
30.9879
111.216
123.37
130.788
135.959
139.769
142.62
144.726
146.217
147.172
147.639
111.215
123.37
130.788
135.958
139.769
142.62
144.726
146.217
147.172
147.639
111.215
123.37
130.788
135.958
139.769
142.62
144.726
146.217
147.172
147.639
111.215
123.37
130.787
135.958
139.769
142.62
144.726
146.217
147.172
147.639
111.215
123.369
130.787
135.958
139.769
142.62
144.726
146.217
147.172
147.639
111.215
123.369
130.787
135.958
139.769
142.62
144.726
146.217
147.172
147.639
111.215
123.369
130.787
135.958
139.769
142.62
144.726
146.217
147.172
147.639
111.215
123.37
130.788
135.958
139.769
142.62
144.726
146.217
147.172
147.639
111.215
123.37
130.788
135.958
139.769
142.62
144.726
146.217
147.172
147.639
111.215
123.37
130.788
135.958
139.769
142.62
144.726
146.217
147.172
147.639
92.639
103.447
111.066
116.576
120.651
123.686
125.916
127.487
128.49
128.98
92.6389
103.447
111.066
116.576
120.651
123.686
125.916
127.487
128.49
128.98
92.6387
103.447
111.066
116.575
120.651
123.686
125.915
127.487
128.49
128.98
92.6387
103.447
111.065
116.575
120.651
123.686
125.915
127.487
128.49
128.98
92.6386
103.447
111.065
116.575
120.651
123.685
125.915
127.487
128.49
128.98
92.6386
103.447
111.065
116.575
120.651
123.685
125.915
127.487
128.49
128.98
92.6386
103.447
111.065
116.575
120.651
123.686
125.915
127.487
128.49
128.98
92.6387
103.447
111.066
116.575
120.651
123.686
125.915
127.487
128.49
128.98
92.6388
103.447
111.066
116.576
120.651
123.686
125.916
127.487
128.49
128.98
92.639
103.447
111.066
116.576
120.651
123.686
125.916
127.487
128.491
128.98
79.1566
87.7706
94.5381
99.7381
103.706
106.707
108.929
110.501
111.506
111.997
79.1564
87.7704
94.538
99.7379
103.706
106.706
108.929
110.5
111.506
111.997
79.1563
87.7703
94.5379
99.7378
103.706
106.706
108.928
110.5
111.506
111.997
79.1562
87.7702
94.5378
99.7377
103.705
106.706
108.928
110.5
111.506
111.997
79.1562
87.7702
94.5377
99.7377
103.705
106.706
108.928
110.5
111.506
111.997
79.1562
87.7702
94.5377
99.7377
103.705
106.706
108.928
110.5
111.506
111.997
79.1562
87.7702
94.5378
99.7377
103.705
106.706
108.928
110.5
111.506
111.997
79.1563
87.7703
94.5378
99.7378
103.706
106.706
108.928
110.5
111.506
111.997
79.1564
87.7704
94.538
99.7379
103.706
106.706
108.929
110.5
111.506
111.997
79.1565
87.7705
94.5381
99.7381
103.706
106.707
108.929
110.501
111.507
111.998
68.2319
74.9823
80.6505
85.2314
88.8489
91.6464
93.7478
95.2475
96.2125
96.6849
68.2317
74.9821
80.6503
85.2312
88.8487
91.6463
93.7476
95.2474
96.2123
96.6847
68.2316
74.982
80.6502
85.2311
88.8486
91.6462
93.7475
95.2473
96.2122
96.6846
68.2315
74.9819
80.6501
85.231
88.8485
91.6461
93.7474
95.2472
96.2122
96.6846
68.2315
74.9819
80.6501
85.231
88.8485
91.6461
93.7474
95.2472
96.2121
96.6846
68.2315
74.9819
80.6501
85.231
88.8485
91.6461
93.7474
95.2472
96.2122
96.6846
68.2315
74.9819
80.6501
85.231
88.8485
91.6461
93.7474
95.2472
96.2122
96.6846
68.2316
74.982
80.6502
85.2311
88.8486
91.6462
93.7475
95.2473
96.2123
96.6847
68.2317
74.9821
80.6503
85.2312
88.8487
91.6463
93.7477
95.2474
96.2124
96.6848
68.2318
74.9823
80.6505
85.2314
88.8489
91.6465
93.7478
95.2476
96.2126
96.685
59.0293
64.2952
68.8992
72.7637
75.9101
78.3999
80.3011
81.6737
82.5634
83.0007
59.0291
64.295
68.8991
72.7636
75.9099
78.3997
80.301
81.6735
82.5632
83.0006
59.029
64.2949
68.899
72.7635
75.9098
78.3996
80.3008
81.6734
82.5631
83.0005
59.0289
64.2949
68.8989
72.7634
75.9098
78.3995
80.3008
81.6733
82.563
83.0004
59.0289
64.2948
68.8989
72.7633
75.9097
78.3995
80.3007
81.6733
82.563
83.0004
59.0289
64.2948
68.8989
72.7633
75.9097
78.3995
80.3008
81.6733
82.563
83.0004
59.0289
64.2949
68.8989
72.7634
75.9098
78.3995
80.3008
81.6734
82.5631
83.0005
59.029
64.2949
68.899
72.7635
75.9099
78.3996
80.3009
81.6735
82.5632
83.0006
59.0291
64.2951
68.8991
72.7636
75.91
78.3997
80.301
81.6736
82.5633
83.0007
59.0293
64.2952
68.8993
72.7637
75.9101
78.3999
80.3012
81.6738
82.5635
83.0009
51.1989
55.2593
58.9052
62.0568
64.6923
66.8244
68.4807
69.6915
70.483
70.874
51.1987
55.2592
58.9051
62.0566
64.6922
66.8243
68.4806
69.6913
70.4829
70.8739
51.1986
55.2591
58.905
62.0565
64.6921
66.8242
68.4804
69.6912
70.4828
70.8738
51.1986
55.259
58.9049
62.0565
64.692
66.8241
68.4804
69.6912
70.4827
70.8737
51.1985
55.259
58.9049
62.0564
64.692
66.8241
68.4804
69.6911
70.4827
70.8737
51.1985
55.259
58.9049
62.0564
64.692
66.8241
68.4804
69.6912
70.4827
70.8737
51.1986
55.259
58.9049
62.0565
64.692
66.8241
68.4804
69.6912
70.4827
70.8738
51.1986
55.2591
58.905
62.0566
64.6921
66.8242
68.4805
69.6913
70.4828
70.8739
51.1987
55.2592
58.9051
62.0567
64.6922
66.8243
68.4806
69.6914
70.483
70.874
51.1989
55.2593
58.9053
62.0568
64.6924
66.8245
68.4808
69.6916
70.4831
70.8742
44.5546
47.5919
50.3849
52.8678
54.9997
56.7635
58.1583
59.1916
59.8734
60.2119
44.5545
47.5918
50.3847
52.8676
54.9995
56.7634
58.1582
59.1915
59.8732
60.2118
44.5544
47.5917
50.3846
52.8675
54.9994
56.7633
58.1581
59.1914
59.8731
60.2118
44.5543
47.5916
50.3846
52.8675
54.9994
56.7632
58.158
59.1913
59.8731
60.2117
44.5543
47.5916
50.3845
52.8674
54.9994
56.7632
58.158
59.1913
59.8731
60.2117
44.5543
47.5916
50.3845
52.8674
54.9994
56.7632
58.158
59.1913
59.8731
60.2117
44.5543
47.5916
50.3846
52.8675
54.9994
56.7632
58.158
59.1914
59.8731
60.2117
44.5544
47.5917
50.3847
52.8676
54.9995
56.7633
58.1581
59.1914
59.8732
60.2118
44.5545
47.5918
50.3848
52.8677
54.9996
56.7634
58.1582
59.1916
59.8733
60.212
44.5546
47.5919
50.3849
52.8678
54.9997
56.7636
58.1584
59.1917
59.8735
60.2121
38.9686
41.0831
43.1101
44.9846
46.6474
48.0589
49.1971
50.0526
50.6227
50.9074
38.9684
41.083
43.11
44.9845
46.6473
48.0587
49.197
50.0525
50.6225
50.9073
38.9684
41.0829
43.1099
44.9844
46.6472
48.0586
49.1969
50.0524