/*--------------------------------*- C++ -*----------------------------------*\
  =========                 |
  \\      /  F ield         | OpenFOAM: The Open Source CFD Toolbox
   \\    /   O peration     | Website:  https://openfoam.org
    \\  /    A nd           | Version:  6
     \\/     M anipulation  |
\*---------------------------------------------------------------------------*/
FoamFile
{
    version     2.0;
    format      ascii;
    class       volScalarField;
    location    "0.525";
    object      T;
}
// * * * * * * * * * * * * * * * * * * * * * * * * * * * * * * * * * * * * * //

dimensions      [0 0 0 1 0 0 0];

internalField   nonuniform List<scalar> 
7000
(
105.653
105.651
105.647
105.641
105.634
105.626
105.618
105.611
105.605
105.603
105.653
105.651
105.647
105.641
105.634
105.626
105.618
105.611
105.605
105.603
105.653
105.651
105.647
105.641
105.634
105.626
105.618
105.611
105.605
105.603
105.653
105.651
105.647
105.641
105.634
105.626
105.618
105.611
105.605
105.603
105.653
105.651
105.647
105.641
105.634
105.626
105.618
105.611
105.605
105.603
105.653
105.651
105.647
105.641
105.634
105.626
105.618
105.611
105.605
105.603
105.653
105.651
105.647
105.641
105.634
105.626
105.618
105.611
105.605
105.603
105.653
105.651
105.647
105.641
105.634
105.626
105.618
105.611
105.605
105.603
105.653
105.651
105.647
105.641
105.634
105.626
105.618
105.611
105.605
105.603
105.653
105.651
105.647
105.641
105.634
105.626
105.618
105.611
105.605
105.603
97.0007
96.9941
96.9812
96.9629
96.9404
96.9156
96.8908
96.8686
96.8519
96.8428
97.0007
96.9941
96.9812
96.9629
96.9404
96.9156
96.8908
96.8686
96.8518
96.8428
97.0007
96.9941
96.9812
96.9629
96.9404
96.9156
96.8908
96.8686
96.8518
96.8428
97.0007
96.994
96.9812
96.9629
96.9404
96.9156
96.8908
96.8686
96.8518
96.8428
97.0007
96.994
96.9812
96.9629
96.9404
96.9156
96.8908
96.8686
96.8518
96.8428
97.0007
96.994
96.9812
96.9629
96.9404
96.9156
96.8908
96.8686
96.8518
96.8428
97.0007
96.994
96.9812
96.9629
96.9404
96.9156
96.8908
96.8686
96.8518
96.8428
97.0007
96.994
96.9812
96.9629
96.9404
96.9156
96.8908
96.8686
96.8518
96.8428
97.0007
96.9941
96.9812
96.9629
96.9404
96.9156
96.8908
96.8686
96.8518
96.8428
97.0007
96.9941
96.9812
96.9629
96.9404
96.9156
96.8908
96.8686
96.8518
96.8428
88.4684
88.4568
88.4344
88.4022
88.3626
88.3185
88.2739
88.2337
88.2031
88.1865
88.4684
88.4568
88.4343
88.4022
88.3626
88.3184
88.2739
88.2337
88.2031
88.1864
88.4684
88.4568
88.4343
88.4022
88.3625
88.3184
88.2739
88.2337
88.2031
88.1864
88.4683
88.4568
88.4343
88.4022
88.3625
88.3184
88.2738
88.2337
88.203
88.1864
88.4683
88.4568
88.4343
88.4022
88.3625
88.3184
88.2738
88.2337
88.203
88.1864
88.4683
88.4568
88.4343
88.4022
88.3625
88.3184
88.2738
88.2337
88.203
88.1864
88.4683
88.4568
88.4343
88.4022
88.3625
88.3184
88.2738
88.2337
88.203
88.1864
88.4683
88.4568
88.4343
88.4022
88.3625
88.3184
88.2738
88.2337
88.2031
88.1864
88.4684
88.4568
88.4343
88.4022
88.3625
88.3184
88.2739
88.2337
88.2031
88.1864
88.4684
88.4568
88.4343
88.4022
88.3626
88.3184
88.2739
88.2337
88.2031
88.1865
80.1335
80.1163
80.0827
80.0344
79.9743
79.9065
79.8371
79.7736
79.7245
79.6975
80.1335
80.1163
80.0827
80.0344
79.9742
79.9064
79.837
79.7735
79.7244
79.6975
80.1335
80.1163
80.0827
80.0344
79.9742
79.9064
79.837
79.7735
79.7244
79.6974
80.1334
80.1162
80.0826
80.0343
79.9742
79.9064
79.837
79.7735
79.7244
79.6974
80.1334
80.1162
80.0826
80.0343
79.9741
79.9064
79.837
79.7735
79.7244
79.6974
80.1334
80.1162
80.0826
80.0343
79.9741
79.9064
79.837
79.7735
79.7244
79.6974
80.1334
80.1162
80.0826
80.0343
79.9742
79.9064
79.837
79.7735
79.7244
79.6974
80.1334
80.1162
80.0826
80.0343
79.9742
79.9064
79.837
79.7735
79.7244
79.6974
80.1335
80.1163
80.0827
80.0344
79.9742
79.9064
79.837
79.7735
79.7244
79.6975
80.1335
80.1163
80.0827
80.0344
79.9742
79.9065
79.837
79.7736
79.7245
79.6975
72.0685
72.0447
71.9981
71.9304
71.8451
71.7473
71.6452
71.5497
71.4742
71.4319
72.0684
72.0447
71.998
71.9304
71.845
71.7473
71.6451
71.5496
71.4741
71.4319
72.0684
72.0446
71.998
71.9304
71.845
71.7472
71.6451
71.5496
71.4741
71.4319
72.0683
72.0446
71.998
71.9303
71.845
71.7472
71.6451
71.5496
71.4741
71.4318
72.0683
72.0446
71.998
71.9303
71.8449
71.7472
71.6451
71.5496
71.474
71.4318
72.0683
72.0446
71.998
71.9303
71.8449
71.7472
71.6451
71.5496
71.474
71.4318
72.0683
72.0446
71.998
71.9303
71.845
71.7472
71.6451
71.5496
71.4741
71.4318
72.0683
72.0446
71.998
71.9303
71.845
71.7472
71.6451
71.5496
71.4741
71.4319
72.0684
72.0446
71.998
71.9304
71.845
71.7473
71.6451
71.5496
71.4741
71.4319
72.0684
72.0447
71.9981
71.9304
71.845
71.7473
71.6452
71.5497
71.4741
71.4319
64.3394
64.3081
64.2463
64.1557
64.0393
63.9032
63.7571
63.6161
63.5007
63.4342
64.3393
64.308
64.2463
64.1556
64.0393
63.9032
63.7571
63.616
63.5006
63.4342
64.3392
64.308
64.2462
64.1556
64.0392
63.9031
63.757
63.616
63.5006
63.4342
64.3392
64.308
64.2462
64.1555
64.0392
63.9031
63.757
63.616
63.5006
63.4341
64.3392
64.308
64.2462
64.1555
64.0392
63.9031
63.757
63.6159
63.5006
63.4341
64.3392
64.3079
64.2462
64.1555
64.0392
63.9031
63.757
63.6159
63.5006
63.4341
64.3392
64.308
64.2462
64.1555
64.0392
63.9031
63.757
63.616
63.5006
63.4341
64.3392
64.308
64.2462
64.1555
64.0392
63.9031
63.757
63.616
63.5006
63.4342
64.3393
64.308
64.2462
64.1556
64.0393
63.9032
63.7571
63.616
63.5006
63.4342
64.3393
64.3081
64.2463
64.1556
64.0393
63.9032
63.7571
63.6161
63.5007
63.4343
57.0048
56.9652
56.8864
56.7691
56.6156
56.4311
56.2258
56.0186
55.8402
55.7321
57.0047
56.9651
56.8863
56.769
56.6156
56.431
56.2257
56.0186
55.8402
55.7321
57.0047
56.9651
56.8863
56.769
56.6155
56.431
56.2257
56.0185
55.8401
55.7321
57.0046
56.9651
56.8862
56.7689
56.6155
56.431
56.2257
56.0185
55.8401
55.732
57.0046
56.965
56.8862
56.7689
56.6155
56.4309
56.2257
56.0185
55.8401
55.732
57.0046
56.965
56.8862
56.7689
56.6155
56.4309
56.2257
56.0185
55.8401
55.732
57.0046
56.965
56.8862
56.7689
56.6155
56.4309
56.2257
56.0185
55.8401
55.732
57.0046
56.9651
56.8862
56.769
56.6155
56.431
56.2257
56.0185
55.8401
55.7321
57.0047
56.9651
56.8863
56.769
56.6156
56.431
56.2257
56.0186
55.8402
55.7321
57.0047
56.9652
56.8863
56.7691
56.6156
56.4311
56.2258
56.0186
55.8402
55.7322
50.1146
50.0663
49.9693
49.8229
49.627
49.3837
49.1006
48.7971
48.5147
48.3276
50.1145
50.0662
49.9692
49.8228
49.6269
49.3836
49.1005
48.7971
48.5147
48.3276
50.1144
50.0662
49.9692
49.8228
49.6269
49.3836
49.1005
48.797
48.5146
48.3275
50.1144
50.0661
49.9691
49.8227
49.6268
49.3835
49.1005
48.797
48.5146
48.3275
50.1144
50.0661
49.9691
49.8227
49.6268
49.3835
49.1004
48.797
48.5146
48.3275
50.1144
50.0661
49.9691
49.8227
49.6268
49.3835
49.1004
48.797
48.5146
48.3275
50.1144
50.0661
49.9691
49.8227
49.6268
49.3835
49.1005
48.797
48.5146
48.3275
50.1144
50.0661
49.9692
49.8228
49.6269
49.3836
49.1005
48.797
48.5146
48.3275
50.1145
50.0662
49.9692
49.8228
49.6269
49.3836
49.1005
48.7971
48.5147
48.3276
50.1145
50.0662
49.9693
49.8229
49.627
49.3837
49.1006
48.7971
48.5147
48.3276
43.7087
43.6521
43.5375
43.362
43.1217
42.8124
42.433
41.9931
41.534
41.1771
43.7087
43.6521
43.5375
43.362
43.1216
42.8123
42.4329
41.993
41.534
41.177
43.7086
43.652
43.5374
43.3619
43.1215
42.8123
42.4329
41.993
41.5339
41.177
43.7086
43.652
43.5374
43.3619
43.1215
42.8122
42.4329
41.9929
41.5339
41.177
43.7085
43.652
43.5374
43.3619
43.1215
42.8122
42.4328
41.9929
41.5339
41.177
43.7085
43.652
43.5374
43.3619
43.1215
42.8122
42.4328
41.9929
41.5339
41.177
43.7086
43.652
43.5374
43.3619
43.1215
42.8122
42.4329
41.9929
41.5339
41.177
43.7086
43.652
43.5374
43.3619
43.1215
42.8123
42.4329
41.993
41.5339
41.177
43.7086
43.652
43.5375
43.362
43.1216
42.8123
42.4329
41.993
41.534
41.1771
43.7087
43.6521
43.5375
43.362
43.1216
42.8124
42.433
41.9931
41.5341
41.1771
37.8166
37.7531
37.6239
37.4234
37.143
36.7701
36.2868
35.6718
34.9182
34.1394
37.8165
37.7531
37.6238
37.4233
37.143
36.77
36.2867
35.6717
34.9181
34.1393
37.8164
37.753
37.6237
37.4232
37.1429
36.77
36.2867
35.6717
34.918
34.1392
37.8164
37.753
37.6237
37.4232
37.1429
36.77
36.2866
35.6716
34.918
34.1392
37.8164
37.753
37.6237
37.4232
37.1429
36.7699
36.2866
35.6716
34.918
34.1392
37.8164
37.753
37.6237
37.4232
37.1429
36.7699
36.2866
35.6716
34.918
34.1392
37.8164
37.753
37.6237
37.4232
37.1429
36.77
36.2866
35.6716
34.918
34.1392
37.8164
37.753
37.6237
37.4232
37.1429
36.77
36.2867
35.6717
34.918
34.1392
37.8165
37.7531
37.6238
37.4233
37.143
36.77
36.2867
35.6717
34.9181
34.1393
37.8165
37.7531
37.6238
37.4234
37.143
36.7701
36.2868
35.6718
34.9182
34.1394
32.4558
32.3882
32.2497
32.0334
31.727
31.3102
30.7474
29.9693
28.8143
26.8168
32.4557
32.3881
32.2496
32.0333
31.7269
31.3101
30.7474
29.9692
28.8143
26.8167
32.4557
32.388
32.2496
32.0332
31.7269
31.3101
30.7473
29.9692
28.8142
26.8167
32.4557
32.388
32.2495
32.0332
31.7268
31.31
30.7473
29.9691
28.8142
26.8166
32.4556
32.388
32.2495
32.0332
31.7268
31.31
30.7473
29.9691
28.8142
26.8166
32.4556
32.388
32.2495
32.0332
31.7268
31.31
30.7473
29.9691
28.8142
26.8166
32.4556
32.388
32.2495
32.0332
31.7268
31.31
30.7473
29.9691
28.8142
26.8166
32.4557
32.388
32.2496
32.0332
31.7269
31.3101
30.7473
29.9692
28.8142
26.8167
32.4557
32.3881
32.2496
32.0333
31.7269
31.3101
30.7474
29.9692
28.8143
26.8167
32.4558
32.3881
32.2497
32.0334
31.727
31.3102
30.7474
29.9693
28.8143
26.8168
27.6321
27.5636
27.4235
27.2044
26.8941
26.472
25.9042
25.1321
24.0535
22.5103
27.632
27.5636
27.4234
27.2044
26.894
26.4719
25.9041
25.132
24.0534
22.5103
27.632
27.5635
27.4234
27.2043
26.894
26.4719
25.9041
25.1319
24.0534
22.5102
27.6319
27.5635
27.4233
27.2043
26.8939
26.4719
25.904
25.1319
24.0533
22.5102
27.6319
27.5635
27.4233
27.2043
26.8939
26.4718
25.904
25.1319
24.0533
22.5101
27.6319
27.5635
27.4233
27.2043
26.8939
26.4718
25.904
25.1319
24.0533
22.5101
27.6319
27.5635
27.4233
27.2043
26.8939
26.4719
25.904
25.1319
24.0533
22.5102
27.632
27.5635
27.4234
27.2043
26.894
26.4719
25.9041
25.1319
24.0534
22.5102
27.632
27.5636
27.4234
27.2044
26.894
26.4719
25.9041
25.132
24.0534
22.5102
27.6321
27.5636
27.4235
27.2044
26.8941
26.472
25.9042
25.1321
24.0535
22.5103
23.339
23.2734
23.1394
22.9314
22.6399
22.2506
21.7427
21.0885
20.2592
19.2577
23.339
23.2733
23.1393
22.9313
22.6398
22.2505
21.7427
21.0884
20.2591
19.2577
23.3389
23.2733
23.1393
22.9313
22.6398
22.2505
21.7426
21.0884
20.259
19.2576
23.3389
23.2732
23.1393
22.9313
22.6398
22.2505
21.7426
21.0884
20.259
19.2576
23.3389
23.2732
23.1392
22.9312
22.6397
22.2504
21.7426
21.0883
20.259
19.2576
23.3389
23.2732
23.1392
22.9312
22.6397
22.2504
21.7426
21.0883
20.259
19.2576
23.3389
23.2732
23.1393
22.9313
22.6398
22.2505
21.7426
21.0884
20.259
19.2576
23.3389
23.2733
23.1393
22.9313
22.6398
22.2505
21.7426
21.0884
20.259
19.2576
23.339
23.2733
23.1393
22.9313
22.6399
22.2505
21.7427
21.0885
20.2591
19.2577
23.339
23.2734
23.1394
22.9314
22.6399
22.2506
21.7427
21.0885
20.2592
19.2577
19.5591
19.4993
19.3783
19.1925
18.9373
18.6064
18.1939
17.6976
17.1306
16.5457
19.559
19.4993
19.3782
19.1925
18.9372
18.6064
18.1938
17.6975
17.1305
16.5456
19.559
19.4992
19.3782
19.1924
18.9372
18.6063
18.1938
17.6975
17.1304
16.5456
19.559
19.4992
19.3781
19.1924
18.9372
18.6063
18.1937
17.6975
17.1304
16.5456
19.559
19.4992
19.3781
19.1924
18.9372
18.6063
18.1937
17.6974
17.1304
16.5455
19.559
19.4992
19.3781
19.1924
18.9372
18.6063
18.1937
17.6974
17.1304
16.5455
19.559
19.4992
19.3781
19.1924
18.9372
18.6063
18.1937
17.6975
17.1304
16.5456
19.559
19.4992
19.3782
19.1924
18.9372
18.6063
18.1938
17.6975
17.1304
16.5456
19.559
19.4993
19.3782
19.1925
18.9373
18.6064
18.1938
17.6976
17.1305
16.5456
19.5591
19.4993
19.3783
19.1925
18.9373
18.6065
18.1939
17.6976
17.1306
16.5457
16.2654
16.2137
16.11
15.9537
15.7445
15.4838
15.1771
14.8382
14.4976
14.215
16.2653
16.2137
16.11
15.9536
15.7444
15.4837
15.177
14.8381
14.4975
14.2149
16.2653
16.2136
16.1099
15.9536
15.7444
15.4837
15.177
14.8381
14.4975
14.2149
16.2653
16.2136
16.1099
15.9535
15.7443
15.4837
15.177
14.8381
14.4975
14.2148
16.2652
16.2136
16.1099
15.9535
15.7443
15.4837
15.1769
14.838
14.4974
14.2148
16.2652
16.2136
16.1099
15.9535
15.7443
15.4837
15.1769
14.838
14.4974
14.2148
16.2653
16.2136
16.1099
15.9535
15.7443
15.4837
15.177
14.8381
14.4975
14.2149
16.2653
16.2136
16.1099
15.9536
15.7444
15.4837
15.177
14.8381
14.4975
14.2149
16.2653
16.2137
16.11
15.9536
15.7444
15.4837
15.177
14.8381
14.4975
14.2149
16.2654
16.2137
16.11
15.9537
15.7445
15.4838
15.1771
14.8382
14.4976
14.215
13.4238
13.3813
13.2971
13.1729
13.0124
12.8229
12.6176
12.4189
12.2631
12.2043
13.4238
13.3813
13.297
13.1728
13.0124
12.8229
12.6175
12.4188
12.2631
12.2042
13.4237
13.3812
13.297
13.1728
13.0123
12.8228
12.6175
12.4188
12.263
12.2042
13.4237
13.3812
13.297
13.1728
13.0123
12.8228
12.6174
12.4187
12.263
12.2041
13.4237
13.3812
13.297
13.1727
13.0123
12.8228
12.6174
12.4187
12.263
12.2041
13.4237
13.3812
13.297
13.1727
13.0123
12.8228
12.6174
12.4187
12.263
12.2041
13.4237
13.3812
13.297
13.1728
13.0123
12.8228
12.6175
12.4188
12.263
12.2041
13.4237
13.3812
13.297
13.1728
13.0123
12.8228
12.6175
12.4188
12.263
12.2042
13.4238
13.3813
13.297
13.1728
13.0124
12.8229
12.6175
12.4188
12.2631
12.2042
13.4238
13.3813
13.2971
13.1729
13.0124
12.8229
12.6176
12.4189
12.2631
12.2043
10.9957
10.9624
10.8975
10.8045
10.6901
10.5656
10.4491
10.3685
10.3627
10.4806
10.9956
10.9624
10.8974
10.8045
10.6901
10.5655
10.4491
10.3684
10.3627
10.4806
10.9956
10.9623
10.8974
10.8044
10.69
10.5655
10.449
10.3684
10.3626
10.4805
10.9956
10.9623
10.8974
10.8044
10.69
10.5655
10.449
10.3683
10.3626
10.4805
10.9956
10.9623
10.8974
10.8044
10.69
10.5655
10.449
10.3683
10.3626
10.4805
10.9956
10.9623
10.8974
10.8044
10.69
10.5655
10.449
10.3683
10.3626
10.4805
10.9956
10.9623
10.8974
10.8044
10.69
10.5655
10.449
10.3684
10.3626
10.4805
10.9956
10.9623
10.8974
10.8044
10.69
10.5655
10.449
10.3684
10.3627
10.4805
10.9956
10.9624
10.8975
10.8045
10.6901
10.5656
10.4491
10.3684
10.3627
10.4806
10.9957
10.9624
10.8975
10.8045
10.6901
10.5656
10.4491
10.3685
10.3628
10.4806
8.93979
8.91498
8.86754
8.80222
8.72742
8.65691
8.61216
8.62532
8.74123
9.01357
8.93975
8.91494
8.86749
8.80217
8.72738
8.65687
8.61211
8.62527
8.74118
9.01351
8.93972
8.91491
8.86746
8.80214
8.72735
8.65683
8.61208
8.62523
8.74114
9.01347
8.9397
8.91488
8.86744
8.80212
8.72733
8.65681
8.61206
8.62521
8.74111
9.01344
8.93969
8.91488
8.86743
8.80211
8.72732
8.6568
8.61205
8.6252
8.7411
9.01343
8.93969
8.91488
8.86743
8.80211
8.72732
8.6568
8.61205
8.6252
8.74111
9.01343
8.9397
8.91489
8.86745
8.80213
8.72733
8.65682
8.61207
8.62522
8.74112
9.01345
8.93972
8.91491
8.86747
8.80215
8.72736
8.65684
8.61209
8.62524
8.74115
9.01348
8.93975
8.91494
8.8675
8.80219
8.7274
8.65688
8.61213
8.62529
8.74119
9.01352
8.93979
8.91499
8.86755
8.80223
8.72745
8.65693
8.61218
8.62534
8.74125
9.01358
7.21455
7.19689
7.16398
7.12101
7.07697
7.04634
7.05192
7.12936
7.33459
7.75171
7.21451
7.19685
7.16395
7.12097
7.07693
7.0463
7.05188
7.12932
7.33454
7.75166
7.21449
7.19683
7.16392
7.12094
7.0769
7.04627
7.05185
7.12928
7.33451
7.75162
7.21447
7.19681
7.1639
7.12093
7.07688
7.04626
7.05183
7.12926
7.33448
7.7516
7.21446
7.1968
7.16389
7.12092
7.07687
7.04625
7.05182
7.12925
7.33447
7.75159
7.21446
7.1968
7.16389
7.12092
7.07687
7.04625
7.05182
7.12926
7.33448
7.75159
7.21447
7.19681
7.1639
7.12093
7.07689
7.04626
7.05184
7.12927
7.33449
7.7516
7.21449
7.19683
7.16393
7.12095
7.07691
7.04629
7.05186
7.1293
7.33452
7.75163
7.21452
7.19686
7.16396
7.12099
7.07694
7.04632
7.0519
7.12933
7.33456
7.75168
7.21455
7.1969
7.164
7.12103
7.07699
7.04637
7.05195
7.12938
7.33461
7.75173
5.77953
5.76748
5.74568
5.71907
5.69599
5.68954
5.72015
5.82093
6.05307
6.56049
5.7795
5.76744
5.74565
5.71904
5.69595
5.68951
5.72011
5.82089
6.05303
6.56045
5.77948
5.76742
5.74562
5.71902
5.69593
5.68948
5.72008
5.82086
6.053
6.56042
5.77946
5.7674
5.74561
5.719
5.69591
5.68947
5.72007
5.82084
6.05299
6.5604
5.77945
5.7674
5.7456
5.71899
5.69591
5.68946
5.72006
5.82084
6.05298
6.56039
5.77946
5.7674
5.7456
5.719
5.69591
5.68946
5.72006
5.82084
6.05298
6.56039
5.77947
5.76741
5.74561
5.71901
5.69592
5.68947
5.72007
5.82085
6.053
6.56041
5.77948
5.76742
5.74563
5.71903
5.69594
5.6895
5.7201
5.82088
6.05302
6.56043
5.77951
5.76745
5.74566
5.71906
5.69597
5.68953
5.72013
5.82091
6.05306
6.56047
5.77953
5.76749
5.7457
5.71909
5.69601
5.68957
5.72017
5.82095
6.0531
6.56052
22.3233
20.2748
19.862
20.8165
23.1081
26.8573
32.3334
40.0152
50.7644
66.289
22.3232
20.2747
19.8619
20.8164
23.1079
26.8572
32.3333
40.015
50.7642
66.2888
22.3231
20.2746
19.8618
20.8163
23.1079
26.8571
32.3331
40.0149
50.764
66.2887
22.3231
20.2746
19.8617
20.8163
23.1078
26.857
32.3331
40.0148
50.764
66.2886
22.3231
20.2746
19.8617
20.8162
23.1078
26.857
32.333
40.0148
50.7639
66.2885
22.3231
20.2746
19.8617
20.8162
23.1078
26.857
32.333
40.0148
50.7639
66.2885
22.3231
20.2746
19.8617
20.8162
23.1078
26.857
32.333
40.0148
50.7639
66.2886
22.3231
20.2746
19.8618
20.8163
23.1078
26.8571
32.3331
40.0149
50.764
66.2886
22.3232
20.2747
19.8618
20.8163
23.1079
26.8571
32.3332
40.0149
50.7641
66.2887
22.3232
20.2747
19.8619
20.8164
23.108
26.8572
32.3333
40.015
50.7642
66.2889
20.4373
19.2396
19.1422
20.1822
22.4168
25.9698
31.0491
37.9609
47.1035
58.8178
20.4372
19.2395
19.1421
20.1821
22.4166
25.9697
31.049
37.9608
47.1033
58.8176
20.4371
19.2394
19.1421
20.182
22.4166
25.9696
31.0489
37.9607
47.1032
58.8175
20.4371
19.2394
19.142
20.1819
22.4165
25.9695
31.0488
37.9606
47.1031
58.8174
20.437
19.2393
19.142
20.1819
22.4165
25.9695
31.0488
37.9605
47.1031
58.8174
20.437
19.2393
19.142
20.1819
22.4165
25.9695
31.0488
37.9605
47.1031
58.8174
20.4371
19.2394
19.142
20.1819
22.4165
25.9695
31.0488
37.9606
47.1031
58.8174
20.4371
19.2394
19.1421
20.182
22.4165
25.9696
31.0489
37.9606
47.1032
58.8175
20.4372
19.2394
19.1421
20.182
22.4166
25.9697
31.0489
37.9607
47.1033
58.8176
20.4372
19.2395
19.1422
20.1821
22.4167
25.9698
31.0491
37.9608
47.1034
58.8177
18.232
17.6991
17.9266
19.0486
21.1649
24.3852
28.8414
34.6729
41.9633
50.5595
18.232
17.6991
17.9265
19.0485
21.1648
24.3851
28.8413
34.6727
41.9631
50.5593
18.2319
17.699
17.9265
19.0484
21.1647
24.385
28.8412
34.6726
41.963
50.5592
18.2319
17.6989
17.9264
19.0484
21.1647
24.385
28.8411
34.6725
41.9629
50.5591
18.2318
17.6989
17.9264
19.0484
21.1646
24.3849
28.841
34.6725
41.9629
50.559
18.2318
17.6989
17.9264
19.0483
21.1646
24.3849
28.841
34.6725
41.9629
50.559
18.2319
17.6989
17.9264
19.0484
21.1647
24.385
28.8411
34.6725
41.9629
50.5591
18.2319
17.699
17.9265
19.0484
21.1647
24.385
28.8411
34.6726
41.963
50.5592
18.232
17.699
17.9265
19.0485
21.1648
24.3851
28.8412
34.6727
41.9631
50.5593
18.232
17.6991
17.9266
19.0486
21.1649
24.3852
28.8413
34.6728
41.9632
50.5594
16.0805
15.9822
16.4452
17.6019
19.5506
22.3746
26.1437
30.8935
36.5723
42.9429
16.0804
15.9821
16.4451
17.6018
19.5505
22.3745
26.1436
30.8934
36.5722
42.9428
16.0804
15.9821
16.4451
17.6017
19.5504
22.3744
26.1435
30.8933
36.5721
42.9426
16.0803
15.982
16.445
17.6017
19.5504
22.3744
26.1435
30.8932
36.572
42.9426
16.0803
15.982
16.445
17.6017
19.5504
22.3743
26.1434
30.8932
36.572
42.9425
16.0803
15.982
16.445
17.6017
19.5503
22.3743
26.1434
30.8932
36.5719
42.9425
16.0803
15.982
16.445
17.6017
19.5504
22.3744
26.1434
30.8932
36.572
42.9426
16.0804
15.9821
16.4451
17.6017
19.5504
22.3744
26.1435
30.8933
36.5721
42.9426
16.0804
15.9821
16.4451
17.6018
19.5505
22.3745
26.1436
30.8934
36.5722
42.9427
16.0805
15.9822
16.4452
17.6019
19.5506
22.3746
26.1437
30.8935
36.5723
42.9429
14.0927
14.2713
14.8809
16.0246
17.7801
20.2024
23.3193
27.1145
31.4975
36.2647
14.0926
14.2712
14.8808
16.0245
17.78
20.2023
23.3192
27.1144
31.4973
36.2645
14.0926
14.2711
14.8807
16.0245
17.7799
20.2022
23.3191
27.1143
31.4972
36.2644
14.0925
14.2711
14.8807
16.0244
17.7799
20.2022
23.319
27.1142
31.4971
36.2643
14.0925
14.2711
14.8807
16.0244
17.7798
20.2022
23.319
27.1142
31.4971
36.2643
14.0925
14.2711
14.8807
16.0244
17.7798
20.2022
23.319
27.1142
31.4971
36.2643
14.0925
14.2711
14.8807
16.0244
17.7799
20.2022
23.319
27.1142
31.4971
36.2643
14.0926
14.2711
14.8807
16.0244
17.7799
20.2022
23.3191
27.1143
31.4972
36.2644
14.0926
14.2712
14.8808
16.0245
17.78
20.2023
23.3192
27.1144
31.4973
36.2645
14.0927
14.2713
14.8809
16.0246
17.7801
20.2024
23.3193
27.1145
31.4975
36.2647
12.3142
12.6758
13.3716
14.4735
16.0354
18.0885
20.6341
23.6332
26.9936
30.5625
12.3141
12.6757
13.3715
14.4734
16.0353
18.0884
20.634
23.6331
26.9935
30.5623
12.3141
12.6756
13.3715
14.4733
16.0352
18.0883
20.6339
23.633
26.9934
30.5622
12.314
12.6756
13.3714
14.4733
16.0351
18.0882
20.6338
23.6329
26.9933
30.5622
12.314
12.6756
13.3714
14.4732
16.0351
18.0882
20.6338
23.6329
26.9933
30.5621
12.314
12.6756
13.3714
14.4732
16.0351
18.0882
20.6338
23.6329
26.9933
30.5621
12.314
12.6756
13.3714
14.4733
16.0351
18.0882
20.6338
23.6329
26.9934
30.5622
12.3141
12.6756
13.3715
14.4733
16.0352
18.0883
20.6339
23.633
26.9934
30.5622
12.3141
12.6757
13.3715
14.4734
16.0353
18.0884
20.634
23.6331
26.9935
30.5624
12.3142
12.6758
13.3716
14.4735
16.0354
18.0885
20.6341
23.6332
26.9937
30.5625
10.7708
11.2693
12.0218
13.075
14.4641
16.2025
18.2748
20.6305
23.1822
25.8153
10.7707
11.2693
12.0218
13.075
14.464
16.2024
18.2747
20.6303
23.1821
25.8152
10.7707
11.2692
12.0217
13.0749
14.4639
16.2023
18.2746
20.6303
23.182
25.8151
10.7707
11.2692
12.0217
13.0749
14.4639
16.2023
18.2746
20.6302
23.182
25.815
10.7706
11.2692
12.0216
13.0748
14.4638
16.2023
18.2746
20.6302
23.1819
25.815
10.7706
11.2692
12.0216
13.0748
14.4638
16.2023
18.2746
20.6302
23.1819
25.815
10.7707
11.2692
12.0217
13.0749
14.4639
16.2023
18.2746
20.6302
23.182
25.815
10.7707
11.2692
12.0217
13.0749
14.4639
16.2023
18.2746
20.6303
23.182
25.8151
10.7708
11.2693
12.0218
13.075
14.464
16.2024
18.2747
20.6304
23.1821
25.8152
10.7708
11.2694
12.0218
13.075
14.4641
16.2025
18.2748
20.6305
23.1823
25.8154
9.48081
10.1088
10.9135
11.9292
13.1811
14.6723
16.3752
18.2278
20.1374
22
9.48075
10.1087
10.9135
11.9291
13.1811
14.6723
16.3751
18.2277
20.1373
21.9999
9.48071
10.1087
10.9134
11.929
13.181
14.6722
16.375
18.2276
20.1372
21.9998
9.48068
10.1086
10.9134
11.929
13.181
14.6721
16.375
18.2276
20.1371
21.9998
9.48066
10.1086
10.9134
11.929
13.1809
14.6721
16.3749
18.2276
20.1371
21.9997
9.48067
10.1086
10.9134
11.929
13.1809
14.6721
16.3749
18.2276
20.1371
21.9998
9.48068
10.1086
10.9134
11.929
13.181
14.6721
16.375
18.2276
20.1371
21.9998
9.48072
10.1087
10.9134
11.929
13.181
14.6722
16.375
18.2276
20.1372
21.9999
9.48077
10.1087
10.9135
11.9291
13.1811
14.6723
16.3751
18.2277
20.1373
21.9999
9.48083
10.1088
10.9136
11.9292
13.1812
14.6724
16.3752
18.2278
20.1374
22.0001
8.46679
9.24897
10.1156
11.1139
12.2736
13.5937
15.0371
16.526
17.9396
19.1302
8.46673
9.24891
10.1155
11.1139
12.2735
13.5936
15.0371
16.5259
17.9395
19.1301
8.46669
9.24886
10.1155
11.1138
12.2734
13.5935
15.037
16.5258
17.9395
19.13
8.46667
9.24883
10.1154
11.1138
12.2734
13.5935
15.0369
16.5258
17.9394
19.1299
8.46665
9.24882
10.1154
11.1138
12.2734
13.5935
15.0369
16.5257
17.9394
19.1299
8.46666
9.24882
10.1154
11.1138
12.2734
13.5935
15.0369
16.5257
17.9394
19.1299
8.46668
9.24884
10.1154
11.1138
12.2734
13.5935
15.037
16.5258
17.9394
19.13
8.46671
9.24888
10.1155
11.1138
12.2735
13.5935
15.037
16.5258
17.9395
19.13
8.46675
9.24893
10.1155
11.1139
12.2735
13.5936
15.0371
16.5259
17.9396
19.1301
8.46682
9.249
10.1156
11.114
12.2736
13.5937
15.0372
16.526
17.9397
19.1302
7.79882
8.76373
9.69073
10.6885
11.803
13.0351
14.3416
15.6276
16.7272
17.3538
7.79878
8.76368
9.69068
10.6884
11.8029
13.035
14.3415
15.6276
16.7271
17.3537
7.79874
8.76364
9.69063
10.6884
11.8029
13.035
14.3415
15.6275
16.7271
17.3536
7.79872
8.76362
9.6906
10.6883
11.8028
13.0349
14.3414
15.6274
16.727
17.3536
7.79871
8.76361
9.69059
10.6883
11.8028
13.0349
14.3414
15.6274
16.727
17.3535
7.79871
8.76361
9.69059
10.6883
11.8028
13.0349
14.3414
15.6274
16.727
17.3536
7.79873
8.76363
9.69061
10.6883
11.8028
13.035
14.3414
15.6275
16.7271
17.3536
7.79876
8.76366
9.69065
10.6884
11.8029
13.035
14.3415
15.6275
16.7271
17.3536
7.7988
8.76371
9.69071
10.6884
11.803
13.0351
14.3416
15.6276
16.7272
17.3537
7.79886
8.76378
9.69078
10.6885
11.803
13.0352
14.3417
15.6277
16.7273
17.3538
90.5128
101.784
108.506
113.082
116.379
118.796
120.549
121.77
122.544
122.92
90.5126
101.784
108.506
113.082
116.379
118.795
120.548
121.77
122.544
122.92
90.5124
101.784
108.506
113.081
116.379
118.795
120.548
121.77
122.544
122.92
90.5123
101.784
108.505
113.081
116.379
118.795
120.548
121.77
122.544
122.919
90.5122
101.784
108.505
113.081
116.379
118.795
120.548
121.77
122.544
122.919
90.5122
101.784
108.505
113.081
116.379
118.795
120.548
121.77
122.544
122.919
90.5123
101.784
108.505
113.081
116.379
118.795
120.548
121.77
122.544
122.92
90.5124
101.784
108.506
113.081
116.379
118.795
120.548
121.77
122.544
122.92
90.5125
101.784
108.506
113.082
116.379
118.795
120.548
121.77
122.544
122.92
90.5126
101.784
108.506
113.082
116.379
118.796
120.548
121.77
122.545
122.92
72.513
82.3582
89.1817
94.02
97.5264
100.087
101.935
103.217
104.028
104.42
72.5128
82.358
89.1814
94.0198
97.5262
100.086
101.934
103.217
104.027
104.42
72.5126
82.3579
89.1813
94.0196
97.526
100.086
101.934
103.217
104.027
104.42
72.5125
82.3578
89.1812
94.0195
97.5259
100.086
101.934
103.217
104.027
104.419
72.5125
82.3577
89.1811
94.0194
97.5258
100.086
101.934
103.217
104.027
104.419
72.5125
82.3577
89.1811
94.0195
97.5258
100.086
101.934
103.217
104.027
104.419
72.5125
82.3578
89.1812
94.0195
97.5259
100.086
101.934
103.217
104.027
104.42
72.5126
82.3578
89.1813
94.0196
97.526
100.086
101.934
103.217
104.027
104.42
72.5127
82.358
89.1814
94.0198
97.5262
100.086
101.934
103.217
104.027
104.42
72.5129
82.3582
89.1816
94.02
97.5264
100.087
101.935
103.218
104.028
104.42
59.6586
67.3315
73.2863
77.7893
81.165
83.6732
85.5
86.774
87.5805
87.9715
59.6584
67.3313
73.2861
77.7891
81.1648
83.6729
85.4998
86.7738
87.5803
87.9713
59.6583
67.3311
73.286
77.7889
81.1647
83.6728
85.4996
86.7736
87.5802
87.9712
59.6582
67.331
73.2859
77.7888
81.1646
83.6727
85.4995
86.7736
87.5801
87.9711
59.6581
67.331
73.2858
77.7888
81.1645
83.6726
85.4995
86.7735
87.58
87.9711
59.6581
67.331
73.2858
77.7888
81.1645
83.6726
85.4995
86.7735
87.58
87.9711
59.6582
67.331
73.2859
77.7888
81.1646
83.6727
85.4995
86.7736
87.5801
87.9712
59.6582
67.3311
73.286
77.7889
81.1647
83.6728
85.4997
86.7737
87.5802
87.9713
59.6584
67.3312
73.2861
77.7891
81.1648
83.673
85.4998
86.7739
87.5804
87.9715
59.6585
67.3314
73.2863
77.7893
81.1651
83.6732
85.5001
86.7741
87.5807
87.9717
49.4625
55.3322
60.219
64.1183
67.1514
69.4604
71.1689
72.3723
73.1387
73.5115
49.4624
55.332
60.2188
64.1181
67.1512
69.4602
71.1687
72.3721
73.1385
73.5114
49.4622
55.3319
60.2186
64.1179
67.1511
69.4601
71.1685
72.3719
73.1384
73.5113
49.4621
55.3318
60.2186
64.1178
67.151
69.46
71.1684
72.3718
73.1383
73.5112
49.4621
55.3317
60.2185
64.1178
67.1509
69.46
71.1684
72.3718
73.1383
73.5112
49.4621
55.3317
60.2185
64.1178
67.1509
69.46
71.1684
72.3718
73.1383
73.5112
49.4621
55.3318
60.2186
64.1178
67.151
69.46
71.1685
72.3719
73.1384
73.5113
49.4622
55.3319
60.2187
64.1179
67.1511
69.4601
71.1686
72.372
73.1385
73.5114
49.4623
55.332
60.2188
64.1181
67.1513
69.4603
71.1688
72.3722
73.1387
73.5116
49.4625
55.3322
60.219
64.1183
67.1515
69.4605
71.169
72.3724
73.1389
73.5118
41.0806
45.5505
49.4365
52.6652
55.2603
57.2853
58.8106
59.8985
60.5971
60.9385
41.0804
45.5503
49.4363
52.665
55.2601
57.2851
58.8104
59.8984
60.5969
60.9383
41.0803
45.5502
49.4362
52.6649
55.26
57.285
58.8103
59.8982
60.5968
60.9382
41.0802
45.5501
49.4361
52.6648
55.2599
57.2849
58.8102
59.8981
60.5967
60.9382
41.0802
45.5501
49.4361
52.6648
55.2599
57.2848
58.8102
59.8981
60.5967
60.9381
41.0802
45.5501
49.4361
52.6648
55.2599
57.2848
58.8102
59.8981
60.5967
60.9382
41.0802
45.5501
49.4361
52.6648
55.2599
57.2849
58.8103
59.8982
60.5968
60.9382
41.0803
45.5502
49.4362
52.6649
55.26
57.285
58.8104
59.8983
60.5969
60.9383
41.0804
45.5503
49.4364
52.6651
55.2602
57.2852
58.8105
59.8985
60.5971
60.9385
41.0806
45.5505
49.4366
52.6653
55.2604
57.2854
58.8107
59.8987
60.5973
60.9387
34.1365
37.5069
40.5223
43.1069
45.2438
46.9506
48.26
49.2065
49.8198
50.1211
34.1364
37.5068
40.5222
43.1067
45.2436
46.9505
48.2598
49.2063
49.8197
50.121
34.1363
37.5067
40.5221
43.1066
45.2435
46.9503
48.2597
49.2062
49.8195
50.1209
34.1362
37.5066
40.522
43.1065
45.2434
46.9503
48.2596
49.2061
49.8195
50.1208
34.1362
37.5065
40.5219
43.1065
45.2433
46.9502
48.2596
49.2061
49.8194
50.1208
34.1362
37.5066
40.5219
43.1065
45.2434
46.9502
48.2596
49.2061
49.8195
50.1208
34.1362
37.5066
40.522
43.1065
45.2434
46.9503
48.2597
49.2062
49.8195
50.1209
34.1363
37.5067
40.5221
43.1066
45.2435
46.9504
48.2598
49.2063
49.8196
50.121
34.1364
37.5068
40.5222
43.1068
45.2437
46.9505
48.2599
49.2064
49.8198
50.1212
34.1366
37.507
40.5224
43.107
45.2438
46.9507
48.2601
49.2066
49.82
50.1214
28.4133
30.8888
33.1585
35.16
36.8598
38.2492
39.3348
40.1305
40.6511
40.9084
28.4131
30.8886
33.1584
35.1599
36.8597
38.249
39.3346
40.1303
40.651
40.9083
28.413
30.8885
33.1583
35.1598
36.8596
38.2489
39.3345
40.1302
40.6509
40.9082
28.413
30.8885
33.1582
35.1597
36.8595
38.2488
39.3344
40.1302
40.6508
40.9081
28.4129
30.8884
33.1582
35.1597
36.8595
38.2488
39.3344
40.1301
40.6508
40.9081
28.4129
30.8884
33.1582
35.1597
36.8595
38.2488
39.3344
40.1302
40.6508
40.9081
28.413
30.8885
33.1582
35.1597
36.8595
38.2489
39.3345
40.1302
40.6509
40.9082
28.413
30.8886
33.1583
35.1598
36.8596
38.249
39.3346
40.1303
40.651
40.9083
28.4132
30.8887
33.1584
35.1599
36.8597
38.2491
39.3347
40.1305
40.6511
40.9084
28.4133
30.8888
33.1586
35.1601
36.8599
38.2493
39.3349
40.1306
40.6513
40.9086
23.7547
25.4618
27.0888
28.5779
29.8829
30.9768
31.8485
32.4969
32.9255
33.1385
23.7546
25.4616
27.0886
28.5778
29.8828
30.9766
31.8484
32.4968
32.9254
33.1384
23.7545
25.4616
27.0885
28.5777
29.8827