/*--------------------------------*- C++ -*----------------------------------*\
  =========                 |
  \\      /  F ield         | OpenFOAM: The Open Source CFD Toolbox
   \\    /   O peration     | Website:  https://openfoam.org
    \\  /    A nd           | Version:  6
     \\/     M anipulation  |
\*---------------------------------------------------------------------------*/
FoamFile
{
    version     2.0;
    format      ascii;
    class       volScalarField;
    location    "0.88";
    object      T;
}
// * * * * * * * * * * * * * * * * * * * * * * * * * * * * * * * * * * * * * //

dimensions      [0 0 0 1 0 0 0];

internalField   nonuniform List<scalar> 
7000
(
106.584
106.583
106.58
106.577
106.572
106.568
106.563
106.559
106.556
106.554
106.584
106.583
106.58
106.577
106.572
106.568
106.563
106.559
106.556
106.554
106.584
106.583
106.58
106.577
106.572
106.568
106.563
106.559
106.556
106.554
106.584
106.583
106.58
106.577
106.572
106.568
106.563
106.559
106.556
106.554
106.584
106.583
106.58
106.577
106.572
106.568
106.563
106.559
106.556
106.554
106.584
106.583
106.58
106.577
106.572
106.568
106.563
106.559
106.556
106.554
106.584
106.583
106.58
106.577
106.572
106.568
106.563
106.559
106.556
106.554
106.584
106.583
106.58
106.577
106.572
106.568
106.563
106.559
106.556
106.554
106.584
106.583
106.58
106.577
106.572
106.568
106.563
106.559
106.556
106.554
106.584
106.583
106.58
106.577
106.572
106.568
106.563
106.559
106.556
106.554
99.7731
99.7691
99.7615
99.7507
99.7376
99.7232
99.7089
99.6962
99.6867
99.6815
99.773
99.7691
99.7615
99.7507
99.7376
99.7232
99.7089
99.6962
99.6867
99.6815
99.773
99.7691
99.7615
99.7507
99.7376
99.7232
99.7089
99.6962
99.6867
99.6815
99.773
99.7691
99.7615
99.7507
99.7376
99.7232
99.7089
99.6962
99.6867
99.6815
99.773
99.7691
99.7615
99.7507
99.7376
99.7232
99.7089
99.6962
99.6867
99.6815
99.773
99.7691
99.7615
99.7507
99.7376
99.7232
99.7089
99.6962
99.6867
99.6815
99.773
99.7691
99.7615
99.7507
99.7376
99.7232
99.7089
99.6962
99.6867
99.6815
99.773
99.7691
99.7615
99.7507
99.7376
99.7232
99.7089
99.6962
99.6867
99.6815
99.773
99.7691
99.7615
99.7507
99.7376
99.7232
99.7089
99.6962
99.6867
99.6815
99.773
99.7691
99.7615
99.7507
99.7376
99.7232
99.7089
99.6962
99.6867
99.6815
93.0238
93.0171
93.0042
92.9858
92.9633
92.9384
92.9135
92.8912
92.8743
92.8651
93.0237
93.0171
93.0041
92.9858
92.9633
92.9384
92.9135
92.8912
92.8743
92.8651
93.0237
93.0171
93.0041
92.9858
92.9633
92.9384
92.9135
92.8912
92.8742
92.8651
93.0237
93.0171
93.0041
92.9858
92.9633
92.9384
92.9135
92.8912
92.8742
92.8651
93.0237
93.017
93.0041
92.9858
92.9633
92.9384
92.9135
92.8912
92.8742
92.8651
93.0237
93.017
93.0041
92.9858
92.9633
92.9384
92.9135
92.8912
92.8742
92.8651
93.0237
93.017
93.0041
92.9858
92.9633
92.9384
92.9135
92.8912
92.8742
92.8651
93.0237
93.017
93.0041
92.9858
92.9633
92.9384
92.9135
92.8912
92.8742
92.8651
93.0237
93.0171
93.0041
92.9858
92.9633
92.9384
92.9135
92.8912
92.8742
92.8651
93.0237
93.0171
93.0041
92.9858
92.9633
92.9384
92.9135
92.8912
92.8743
92.8651
86.3767
86.3672
86.3486
86.3221
86.2894
86.2527
86.2155
86.1817
86.1557
86.1414
86.3767
86.3671
86.3486
86.3221
86.2893
86.2527
86.2155
86.1817
86.1556
86.1414
86.3767
86.3671
86.3486
86.3221
86.2893
86.2527
86.2155
86.1817
86.1556
86.1414
86.3766
86.3671
86.3486
86.3221
86.2893
86.2527
86.2155
86.1816
86.1556
86.1414
86.3766
86.3671
86.3486
86.3221
86.2893
86.2527
86.2155
86.1816
86.1556
86.1414
86.3766
86.3671
86.3486
86.3221
86.2893
86.2527
86.2155
86.1816
86.1556
86.1414
86.3766
86.3671
86.3486
86.3221
86.2893
86.2527
86.2155
86.1816
86.1556
86.1414
86.3766
86.3671
86.3486
86.3221
86.2893
86.2527
86.2155
86.1816
86.1556
86.1414
86.3766
86.3671
86.3486
86.3221
86.2893
86.2527
86.2155
86.1817
86.1556
86.1414
86.3767
86.3671
86.3486
86.3221
86.2893
86.2527
86.2155
86.1817
86.1556
86.1414
79.8712
79.8587
79.8343
79.7991
79.755
79.7049
79.6529
79.6046
79.5665
79.5453
79.8711
79.8586
79.8342
79.799
79.755
79.7049
79.6529
79.6046
79.5665
79.5453
79.8711
79.8586
79.8342
79.799
79.7549
79.7048
79.6529
79.6046
79.5665
79.5453
79.8711
79.8586
79.8342
79.799
79.7549
79.7048
79.6529
79.6045
79.5665
79.5453
79.8711
79.8586
79.8342
79.799
79.7549
79.7048
79.6529
79.6045
79.5665
79.5452
79.8711
79.8586
79.8342
79.799
79.7549
79.7048
79.6529
79.6045
79.5665
79.5452
79.8711
79.8586
79.8342
79.799
79.7549
79.7048
79.6529
79.6045
79.5665
79.5452
79.8711
79.8586
79.8342
79.799
79.7549
79.7048
79.6529
79.6046
79.5665
79.5453
79.8711
79.8586
79.8342
79.799
79.7549
79.7048
79.6529
79.6046
79.5665
79.5453
79.8711
79.8586
79.8342
79.799
79.755
79.7049
79.6529
79.6046
79.5665
79.5453
73.5448
73.5294
73.4991
73.4549
73.3986
73.3331
73.2632
73.1959
73.1408
73.109
73.5448
73.5294
73.4991
73.4549
73.3986
73.3331
73.2632
73.1958
73.1408
73.109
73.5448
73.5294
73.4991
73.4549
73.3985
73.3331
73.2631
73.1958
73.1407
73.109
73.5447
73.5293
73.499
73.4548
73.3985
73.3331
73.2631
73.1958
73.1407
73.109
73.5447
73.5293
73.499
73.4548
73.3985
73.333
73.2631
73.1958
73.1407
73.109
73.5447
73.5293
73.499
73.4548
73.3985
73.333
73.2631
73.1958
73.1407
73.109
73.5447
73.5293
73.499
73.4548
73.3985
73.333
73.2631
73.1958
73.1407
73.109
73.5447
73.5293
73.499
73.4548
73.3985
73.3331
73.2631
73.1958
73.1407
73.109
73.5448
73.5294
73.4991
73.4549
73.3986
73.3331
73.2631
73.1958
73.1408
73.109
73.5448
73.5294
73.4991
73.4549
73.3986
73.3331
73.2632
73.1958
73.1408
73.109
67.4331
67.4151
67.3794
67.3266
67.2578
67.1754
67.0837
66.9907
66.9101
66.8607
67.433
67.4151
67.3794
67.3265
67.2578
67.1753
67.0836
66.9907
66.91
66.8607
67.433
67.415
67.3793
67.3265
67.2577
67.1753
67.0836
66.9907
66.91
66.8607
67.433
67.415
67.3793
67.3265
67.2577
67.1753
67.0836
66.9906
66.91
66.8607
67.433
67.415
67.3793
67.3265
67.2577
67.1753
67.0836
66.9906
66.91
66.8606
67.433
67.415
67.3793
67.3265
67.2577
67.1753
67.0836
66.9906
66.91
66.8606
67.433
67.415
67.3793
67.3265
67.2577
67.1753
67.0836
66.9906
66.91
66.8607
67.433
67.415
67.3793
67.3265
67.2577
67.1753
67.0836
66.9906
66.91
66.8607
67.433
67.415
67.3793
67.3265
67.2577
67.1753
67.0836
66.9907
66.91
66.8607
67.433
67.4151
67.3794
67.3265
67.2578
67.1753
67.0836
66.9907
66.91
66.8607
61.5684
61.5486
61.5089
61.4491
61.3693
61.2698
61.1529
61.0253
60.9037
60.821
61.5684
61.5486
61.5088
61.4491
61.3692
61.2698
61.1529
61.0253
60.9037
60.821
61.5684
61.5485
61.5088
61.4491
61.3692
61.2697
61.1528
61.0253
60.9037
60.8209
61.5683
61.5485
61.5088
61.449
61.3692
61.2697
61.1528
61.0252
60.9036
60.8209
61.5683
61.5485
61.5088
61.449
61.3692
61.2697
61.1528
61.0252
60.9036
60.8209
61.5683
61.5485
61.5088
61.449
61.3692
61.2697
61.1528
61.0252
60.9036
60.8209
61.5683
61.5485
61.5088
61.449
61.3692
61.2697
61.1528
61.0252
60.9036
60.8209
61.5683
61.5485
61.5088
61.449
61.3692
61.2697
61.1528
61.0253
60.9037
60.8209
61.5684
61.5485
61.5088
61.4491
61.3692
61.2697
61.1528
61.0253
60.9037
60.821
61.5684
61.5486
61.5088
61.4491
61.3693
61.2698
61.1529
61.0253
60.9037
60.821
55.9796
55.9592
55.9182
55.8553
55.7687
55.6557
55.5132
55.341
55.1514
54.995
55.9795
55.9592
55.9181
55.8552
55.7686
55.6557
55.5132
55.341
55.1513
54.995
55.9795
55.9592
55.9181
55.8552
55.7686
55.6556
55.5132
55.3409
55.1513
54.995
55.9795
55.9591
55.9181
55.8552
55.7686
55.6556
55.5131
55.3409
55.1513
54.9949
55.9795
55.9591
55.9181
55.8552
55.7686
55.6556
55.5131
55.3409
55.1512
54.9949
55.9795
55.9591
55.918
55.8552
55.7686
55.6556
55.5131
55.3409
55.1512
54.9949
55.9795
55.9591
55.9181
55.8552
55.7686
55.6556
55.5131
55.3409
55.1513
54.9949
55.9795
55.9591
55.9181
55.8552
55.7686
55.6556
55.5132
55.3409
55.1513
54.9949
55.9795
55.9592
55.9181
55.8552
55.7686
55.6556
55.5132
55.341
55.1513
54.995
55.9795
55.9592
55.9181
55.8552
55.7687
55.6557
55.5132
55.341
55.1514
54.995
50.6905
50.6717
50.6334
50.5739
50.4894
50.3735
50.2146
49.9949
49.6957
49.3494
50.6905
50.6717
50.6334
50.5738
50.4894
50.3735
50.2146
49.9949
49.6957
49.3494
50.6904
50.6716
50.6334
50.5738
50.4894
50.3734
50.2145
49.9948
49.6956
49.3493
50.6904
50.6716
50.6333
50.5738
50.4893
50.3734
50.2145
49.9948
49.6956
49.3493
50.6904
50.6716
50.6333
50.5738
50.4893
50.3734
50.2145
49.9948
49.6956
49.3493
50.6904
50.6716
50.6333
50.5738
50.4893
50.3734
50.2145
49.9948
49.6956
49.3493
50.6904
50.6716
50.6333
50.5738
50.4893
50.3734
50.2145
49.9948
49.6956
49.3493
50.6904
50.6716
50.6333
50.5738
50.4893
50.3734
50.2145
49.9948
49.6956
49.3493
50.6905
50.6717
50.6334
50.5738
50.4894
50.3734
50.2145
49.9948
49.6957
49.3493
50.6905
50.6717
50.6334
50.5739
50.4894
50.3735
50.2146
49.9949
49.6957
49.3494
45.7196
45.7049
45.675
45.6279
45.5598
45.462
45.316
45.0811
44.6551
43.7391
45.7196
45.7049
45.6749
45.6279
45.5597
45.4619
45.316
45.081
44.655
43.739
45.7196
45.7049
45.6749
45.6278
45.5597
45.4619
45.3159
45.081
44.6549
43.7389
45.7195
45.7048
45.6749
45.6278
45.5597
45.4618
45.3159
45.0809
44.6549
43.7389
45.7195
45.7048
45.6748
45.6278
45.5597
45.4618
45.3159
45.0809
44.6549
43.7389
45.7195
45.7048
45.6748
45.6278
45.5597
45.4618
45.3159
45.0809
44.6549
43.7389
45.7195
45.7048
45.6748
45.6278
45.5597
45.4618
45.3159
45.0809
44.6549
43.7389
45.7195
45.7048
45.6749
45.6278
45.5597
45.4619
45.3159
45.0809
44.6549
43.7389
45.7196
45.7049
45.6749
45.6279
45.5597
45.4619
45.316
45.081
44.655
43.739
45.7196
45.7049
45.6749
45.6279
45.5598
45.4619
45.316
45.081
44.655
43.739
41.0788
41.071
41.0554
41.0314
40.9972
40.9473
40.8699
40.7397
40.5092
40.1095
41.0787
41.0709
41.0553
41.0314
40.9971
40.9473
40.8698
40.7396
40.5091
40.1095
41.0787
41.0709
41.0553
41.0313
40.9971
40.9472
40.8698
40.7396
40.5091
40.1094
41.0787
41.0709
41.0552
41.0313
40.997
40.9472
40.8697
40.7395
40.509
40.1094
41.0786
41.0708
41.0552
41.0313
40.997
40.9472
40.8697
40.7395
40.509
40.1094
41.0786
41.0708
41.0552
41.0313
40.997
40.9472
40.8697
40.7395
40.509
40.1093
41.0786
41.0708
41.0552
41.0313
40.997
40.9472
40.8697
40.7395
40.509
40.1094
41.0787
41.0709
41.0553
41.0313
40.997
40.9472
40.8698
40.7395
40.509
40.1094
41.0787
41.0709
41.0553
41.0313
40.9971
40.9472
40.8698
40.7396
40.5091
40.1094
41.0787
41.0709
41.0553
41.0314
40.9971
40.9473
40.8698
40.7396
40.5092
40.1095
36.773
36.7745
36.7787
36.7871
36.8021
36.8255
36.8584
36.9015
36.9621
37.0807
36.773
36.7745
36.7786
36.7871
36.8021
36.8255
36.8583
36.9014
36.9621
37.0807
36.7729
36.7744
36.7786
36.787
36.802
36.8254
36.8583
36.9014
36.962
37.0806
36.7729
36.7744
36.7785
36.787
36.802
36.8254
36.8582
36.9014
36.962
37.0806
36.7729
36.7744
36.7785
36.787
36.802
36.8254
36.8582
36.9013
36.962
37.0805
36.7729
36.7744
36.7785
36.787
36.802
36.8254
36.8582
36.9013
36.962
37.0805
36.7729
36.7744
36.7785
36.787
36.802
36.8254
36.8582
36.9014
36.962
37.0806
36.7729
36.7744
36.7786
36.787
36.802
36.8254
36.8583
36.9014
36.962
37.0806
36.7729
36.7745
36.7786
36.7871
36.8021
36.8255
36.8583
36.9014
36.962
37.0806
36.773
36.7745
36.7786
36.7871
36.8021
36.8255
36.8583
36.9015
36.9621
37.0807
32.8009
32.8133
32.8406
32.8874
32.9608
33.0707
33.2311
33.4629
33.8018
34.316
32.8008
32.8133
32.8406
32.8874
32.9608
33.0707
33.2311
33.4628
33.8017
34.3159
32.8008
32.8132
32.8406
32.8873
32.9607
33.0706
33.231
33.4628
33.8017
34.3158
32.8007
32.8132
32.8405
32.8873
32.9607
33.0706
33.231
33.4628
33.8016
34.3158
32.8007
32.8132
32.8405
32.8873
32.9607
33.0706
33.231
33.4627
33.8016
34.3158
32.8007
32.8132
32.8405
32.8873
32.9607
33.0706
33.231
33.4627
33.8016
34.3158
32.8007
32.8132
32.8405
32.8873
32.9607
33.0706
33.231
33.4628
33.8016
34.3158
32.8008
32.8132
32.8405
32.8873
32.9607
33.0706
33.231
33.4628
33.8016
34.3158
32.8008
32.8133
32.8406
32.8874
32.9607
33.0707
33.2311
33.4628
33.8017
34.3159
32.8008
32.8133
32.8406
32.8874
32.9608
33.0707
33.2311
33.4629
33.8018
34.3159
29.1553
29.1791
29.2305
29.3169
29.4504
29.648
29.934
30.3418
30.9184
31.7303
29.1552
29.179
29.2304
29.3169
29.4503
29.6479
29.9339
30.3417
30.9183
31.7302
29.1552
29.179
29.2304
29.3168
29.4503
29.6479
29.9339
30.3417
30.9183
31.7301
29.1551
29.179
29.2304
29.3168
29.4502
29.6479
29.9338
30.3416
30.9182
31.7301
29.1551
29.179
29.2304
29.3168
29.4502
29.6479
29.9338
30.3416
30.9182
31.7301
29.1551
29.179
29.2304
29.3168
29.4502
29.6479
29.9338
30.3416
30.9182
31.7301
29.1551
29.179
29.2304
29.3168
29.4502
29.6479
29.9338
30.3416
30.9182
31.7301
29.1551
29.179
29.2304
29.3168
29.4503
29.6479
29.9339
30.3416
30.9183
31.7301
29.1552
29.179
29.2304
29.3169
29.4503
29.6479
29.9339
30.3417
30.9183
31.7302
29.1552
29.1791
29.2305
29.3169
29.4503
29.648
29.934
30.3418
30.9184
31.7302
25.8248
25.8592
25.9328
26.0557
26.2439
26.5206
26.9179
27.4781
28.2537
29.3038
25.8247
25.8591
25.9328
26.0557
26.2438
26.5205
26.9178
27.478
28.2536
29.3038
25.8247
25.8591
25.9327
26.0556
26.2438
26.5205
26.9178
27.478
28.2536
29.3037
25.8247
25.8591
25.9327
26.0556
26.2437
26.5204
26.9177
27.4779
28.2535
29.3037
25.8247
25.859
25.9327
26.0556
26.2437
26.5204
26.9177
27.4779
28.2535
29.3036
25.8247
25.859
25.9327
26.0556
26.2437
26.5204
26.9177
27.4779
28.2535
29.3036
25.8247
25.8591
25.9327
26.0556
26.2437
26.5204
26.9177
27.4779
28.2535
29.3037
25.8247
25.8591
25.9327
26.0556
26.2438
26.5205
26.9178
27.478
28.2535
29.3037
25.8247
25.8591
25.9328
26.0557
26.2438
26.5205
26.9178
27.478
28.2536
29.3037
25.8247
25.8592
25.9328
26.0557
26.2439
26.5206
26.9179
27.4781
28.2537
29.3038
22.7953
22.8382
22.9298
23.0819
23.3135
23.6526
24.1383
24.8219
25.7649
27.0278
22.7952
22.8382
22.9298
23.0818
23.3134
23.6526
24.1382
24.8218
25.7648
27.0277
22.7952
22.8382
22.9297
23.0818
23.3134
23.6525
24.1382
24.8217
25.7648
27.0277
22.7952
22.8381
22.9297
23.0818
23.3133
23.6525
24.1382
24.8217
25.7647
27.0277
22.7952
22.8381
22.9297
23.0818
23.3133
23.6525
24.1382
24.8217
25.7647
27.0276
22.7952
22.8381
22.9297
23.0818
23.3133
23.6525
24.1382
24.8217
25.7647
27.0276
22.7952
22.8381
22.9297
23.0818
23.3133
23.6525
24.1382
24.8217
25.7647
27.0277
22.7952
22.8381
22.9297
23.0818
23.3134
23.6525
24.1382
24.8217
25.7648
27.0277
22.7952
22.8382
22.9298
23.0818
23.3134
23.6526
24.1382
24.8218
25.7648
27.0277
22.7953
22.8382
22.9298
23.0819
23.3135
23.6526
24.1383
24.8218
25.7649
27.0278
20.0513
20.0999
20.2033
20.3739
20.6326
21.0104
21.5522
22.3207
23.3985
24.8752
20.0513
20.0999
20.2032
20.3739
20.6326
21.0104
21.5521
22.3206
23.3985
24.8751
20.0512
20.0999
20.2032
20.3738
20.6325
21.0103
21.5521
22.3206
23.3984
24.8751
20.0512
20.0998
20.2031
20.3738
20.6325
21.0103
21.5521
22.3206
23.3984
24.875
20.0512
20.0998
20.2031
20.3738
20.6325
21.0103
21.552
22.3205
23.3984
24.875
20.0512
20.0998
20.2031
20.3738
20.6325
21.0103
21.552
22.3205
23.3984
24.875
20.0512
20.0998
20.2031
20.3738
20.6325
21.0103
21.5521
22.3206
23.3984
24.875
20.0512
20.0999
20.2032
20.3738
20.6325
21.0103
21.5521
22.3206
23.3984
24.8751
20.0513
20.0999
20.2032
20.3739
20.6326
21.0104
21.5521
22.3206
23.3985
24.8751
20.0513
20.0999
20.2032
20.3739
20.6326
21.0104
21.5522
22.3207
23.3985
24.8752
17.5775
17.6284
17.7361
17.9128
18.1788
18.5649
19.1182
19.9117
21.0625
22.7537
17.5774
17.6284
17.736
17.9128
18.1787
18.5649
19.1181
19.9116
21.0624
22.7537
17.5774
17.6283
17.736
17.9127
18.1787
18.5648
19.1181
19.9116
21.0624
22.7536
17.5774
17.6283
17.736
17.9127
18.1787
18.5648
19.1181
19.9115
21.0624
22.7536
17.5774
17.6283
17.736
17.9127
18.1786
18.5648
19.1181
19.9115
21.0623
22.7536
17.5774
17.6283
17.736
17.9127
18.1786
18.5648
19.1181
19.9115
21.0623
22.7536
17.5774
17.6283
17.736
17.9127
18.1787
18.5648
19.1181
19.9115
21.0624
22.7536
17.5774
17.6283
17.736
17.9127
18.1787
18.5648
19.1181
19.9116
21.0624
22.7536
17.5774
17.6283
17.736
17.9128
18.1787
18.5649
19.1182
19.9116
21.0624
22.7537
17.5775
17.6284
17.7361
17.9128
18.1788
18.5649
19.1182
19.9117
21.0625
22.7537
15.3595
15.4093
15.514
15.6842
15.9367
16.2976
16.8063
17.5288
18.5963
20.3525
15.3594
15.4093
15.514
15.6841
15.9367
16.2975
16.8063
17.5287
18.5963
20.3525
15.3594
15.4092
15.514
15.6841
15.9366
16.2975
16.8063
17.5287
18.5962
20.3524
15.3594
15.4092
15.5139
15.6841
15.9366
16.2975
16.8062
17.5287
18.5962
20.3524
15.3594
15.4092
15.5139
15.6841
15.9366
16.2975
16.8062
17.5287
18.5962
20.3524
15.3594
15.4092
15.5139
15.6841
15.9366
16.2975
16.8062
17.5287
18.5962
20.3524
15.3594
15.4092
15.5139
15.6841
15.9366
16.2975
16.8062
17.5287
18.5962
20.3524
15.3594
15.4092
15.514
15.6841
15.9366
16.2975
16.8063
17.5287
18.5963
20.3524
15.3594
15.4093
15.514
15.6841
15.9367
16.2976
16.8063
17.5287
18.5963
20.3525
15.3594
15.4093
15.514
15.6842
15.9367
16.2976
16.8064
17.5288
18.5964
20.3525
41.2806
41.0298
42.3596
45.0717
49.1614
54.7531
62.1069
71.684
84.3223
101.704
41.2805
41.0297
42.3595
45.0716
49.1613
54.753
62.1068
71.6839
84.3221
101.704
41.2805
41.0297
42.3594
45.0716
49.1612
54.7529
62.1067
71.6838
84.3221
101.704
41.2804
41.0296
42.3594
45.0715
49.1611
54.7528
62.1066
71.6837
84.322
101.704
41.2804
41.0296
42.3593
45.0715
49.1611
54.7528
62.1066
71.6837
84.322
101.704
41.2804
41.0296
42.3593
45.0715
49.1611
54.7528
62.1066
71.6837
84.3219
101.704
41.2804
41.0296
42.3594
45.0715
49.1611
54.7528
62.1066
71.6837
84.322
101.704
41.2805
41.0296
42.3594
45.0715
49.1612
54.7529
62.1067
71.6837
84.322
101.704
41.2805
41.0297
42.3594
45.0716
49.1612
54.7529
62.1067
71.6838
84.3221
101.704
41.2806
41.0297
42.3595
45.0716
49.1613
54.753
62.1068
71.6839
84.3222
101.704
39.5737
40.001
41.5744
44.3333
48.3373
53.7048
60.63
69.3976
80.3766
93.8661
39.5736
40.0009
41.5743
44.3332
48.3372
53.7047
60.6299
69.3975
80.3764
93.866
39.5735
40.0008
41.5742
44.3331
48.3371
53.7046
60.6298
69.3974
80.3763
93.8659
39.5735
40.0008
41.5742
44.3331
48.3371
53.7046
60.6297
69.3974
80.3763
93.8658
39.5735
40.0007
41.5742
44.333
48.337
53.7046
60.6297
69.3973
80.3763
93.8658
39.5735
40.0007
41.5742
44.333
48.337
53.7046
60.6297
69.3973
80.3762
93.8658
39.5735
40.0008
41.5742
44.3331
48.3371
53.7046
60.6297
69.3974
80.3763
93.8658
39.5735
40.0008
41.5742
44.3331
48.3371
53.7046
60.6298
69.3974
80.3763
93.8659
39.5736
40.0008
41.5743
44.3332
48.3372
53.7047
60.6298
69.3975
80.3764
93.866
39.5736
40.0009
41.5743
44.3332
48.3373
53.7048
60.6299
69.3976
80.3765
93.8661
37.4135
38.381
40.202
42.9887
46.8271
51.812
58.0561
65.6742
74.7185
84.9953
37.4134
38.381
40.2019
42.9886
46.827
51.8119
58.0559
65.6741
74.7184
84.9952
37.4133
38.3809
40.2018
42.9886
46.8269
51.8118
58.0559
65.674
74.7183
84.9951
37.4133
38.3808
40.2018
42.9885
46.8269
51.8117
58.0558
65.6739
74.7183
84.995
37.4133
38.3808
40.2018
42.9885
46.8268
51.8117
58.0558
65.6739
74.7182
84.995
37.4133
38.3808
40.2018
42.9885
46.8268
51.8117
58.0558
65.6739
74.7182
84.995
37.4133
38.3808
40.2018
42.9885
46.8269
51.8117
58.0558
65.6739
74.7182
84.995
37.4133
38.3809
40.2018
42.9885
46.8269
51.8118
58.0558
65.674
74.7183
84.995
37.4134
38.3809
40.2019
42.9886
46.827
51.8118
58.0559
65.674
74.7184
84.9951
37.4135
38.381
40.202
42.9887
46.8271
51.8119
58.056
65.6742
74.7185
84.9952
35.1357
36.4658
38.4626
41.2307
44.8461
49.3708
54.8512
61.2966
68.6251
76.5662
35.1356
36.4657
38.4625
41.2306
44.846
49.3707
54.8511
61.2965
68.625
76.5661
35.1356
36.4657
38.4624
41.2305
44.8459
49.3706
54.851
61.2964
68.6249
76.566
35.1355
36.4656
38.4624
41.2305
44.8459
49.3705
54.8509
61.2963
68.6249
76.5659
35.1355
36.4656
38.4624
41.2304
44.8458
49.3705
54.8509
61.2963
68.6249
76.5659
35.1355
36.4656
38.4624
41.2304
44.8458
49.3705
54.8509
61.2963
68.6248
76.5659
35.1355
36.4656
38.4624
41.2304
44.8458
49.3705
54.8509
61.2963
68.6249
76.5659
35.1356
36.4656
38.4624
41.2305
44.8459
49.3706
54.851
61.2964
68.6249
76.566
35.1356
36.4657
38.4625
41.2306
44.846
49.3706
54.8511
61.2964
68.625
76.566
35.1357
36.4658
38.4626
41.2306
44.8461
49.3707
54.8512
61.2966
68.6251
76.5662
32.8685
34.4431
36.55
39.2615
42.6288
46.6813
51.4209
56.804
62.7128
68.9183
32.8684
34.443
36.5499
39.2615
42.6287
46.6812
51.4208
56.8039
62.7127
68.9182
32.8684
34.443
36.5498
39.2614
42.6286
46.6812
51.4207
56.8038
62.7126
68.9181
32.8683
34.4429
36.5497
39.2613
42.6286
46.6811
51.4206
56.8037
62.7126
68.918
32.8683
34.4429
36.5497
39.2613
42.6285
46.6811
51.4206
56.8037
62.7125
68.918
32.8683
34.4429
36.5497
39.2613
42.6285
46.6811
51.4206
56.8037
62.7125
68.918
32.8683
34.4429
36.5497
39.2613
42.6286
46.6811
51.4206
56.8037
62.7126
68.918
32.8684
34.443
36.5498
39.2614
42.6286
46.6811
51.4207
56.8038
62.7126
68.9181
32.8684
34.443
36.5498
39.2614
42.6287
46.6812
51.4207
56.8039
62.7127
68.9181
32.8685
34.4431
36.5499
39.2615
42.6288
46.6813
51.4209
56.804
62.7128
68.9183
30.6858
32.4461
34.6283
37.2699
40.3954
44.0081
48.0814
52.5484
57.2916
62.1396
30.6857
32.446
34.6282
37.2698
40.3953
44.008
48.0813
52.5483
57.2915
62.1395
30.6857
32.446
34.6282
37.2698
40.3952
44.0079
48.0812
52.5482
57.2914
62.1394
30.6856
32.4459
34.6281
37.2697
40.3952
44.0078
48.0812
52.5481
57.2913
62.1393
30.6856
32.4459
34.6281
37.2697
40.3951
44.0078
48.0811
52.5481
57.2913
62.1393
30.6856
32.4459
34.6281
37.2697
40.3951
44.0078
48.0811
52.5481
57.2913
62.1393
30.6856
32.4459
34.6281
37.2697
40.3952
44.0078
48.0812
52.5481
57.2913
62.1393
30.6856
32.446
34.6282
37.2698
40.3952
44.0079
48.0812
52.5482
57.2914
62.1394
30.6857
32.446
34.6282
37.2698
40.3953
44.008
48.0813
52.5483
57.2915
62.1395
30.6858
32.4461
34.6283
37.2699
40.3954
44.0081
48.0814
52.5484
57.2916
62.1396
28.642
30.5816
32.8392
35.4234
38.3393
41.5721
45.0768
48.7725
52.5455
56.2665
28.6419
30.5815
32.8391
35.4233
38.3392
41.572
45.0767
48.7724
52.5454
56.2664
28.6418
30.5814
32.839
35.4232
38.3391
41.5719
45.0766
48.7723
52.5453
56.2663
28.6418
30.5814
32.839
35.4232
38.3391
41.5719
45.0766
48.7723
52.5452
56.2663
28.6418
30.5814
32.839
35.4232
38.339
41.5719
45.0765
48.7723
52.5452
56.2662
28.6418
30.5814
32.839
35.4232
38.339
41.5719
45.0765
48.7723
52.5452
56.2662
28.6418
30.5814
32.839
35.4232
38.3391
41.5719
45.0766
48.7723
52.5452
56.2663
28.6418
30.5814
32.839
35.4232
38.3391
41.5719
45.0766
48.7723
52.5453
56.2663
28.6419
30.5815
32.8391
35.4233
38.3392
41.572
45.0767
48.7724
52.5454
56.2664
28.6419
30.5816
32.8392
35.4234
38.3393
41.5721
45.0768
48.7725
52.5455
56.2665
26.7833
28.9477
31.3102
33.8693
36.6257
39.5567
42.6033
45.6679
48.6221
51.3417
26.7832
28.9476
31.3102
33.8692
36.6256
39.5566
42.6032
45.6678
48.622
51.3416
26.7832
28.9475
31.3101
33.8691
36.6256
39.5565
42.6031
45.6677
48.6219
51.3415
26.7831
28.9475
31.3101
33.8691
36.6255
39.5564
42.6031
45.6676
48.6219
51.3415
26.7831
28.9475
31.31
33.8691
36.6255
39.5564
42.603
45.6676
48.6218
51.3415
26.7831
28.9475
31.31
33.8691
36.6255
39.5564
42.603
45.6676
48.6218
51.3415
26.7831
28.9475
31.3101
33.8691
36.6255
39.5564
42.6031
45.6676
48.6219
51.3415
26.7832
28.9475
31.3101
33.8691
36.6256
39.5565
42.6031
45.6677
48.6219
51.3416
26.7832
28.9476
31.3102
33.8692
36.6257
39.5566
42.6032
45.6678
48.622
51.3416
26.7833
28.9477
31.3102
33.8693
36.6258
39.5567
42.6033
45.6679
48.6221
51.3418
25.1697
27.6572
30.1661
32.737
35.3924
38.1127
40.828
43.4145
45.6948
47.4645
25.1696
27.6571
30.166
32.7369
35.3924
38.1126
40.8279
43.4144
45.6947
47.4644
25.1696
27.6571
30.1659
32.7368
35.3923
38.1125
40.8278
43.4144
45.6946
47.4644
25.1695
27.657
30.1659
32.7368
35.3922
38.1125
40.8278
43.4143
45.6945
47.4643
25.1695
27.657
30.1659
32.7368
35.3922
38.1124
40.8278
43.4143
45.6945
47.4643
25.1695
27.657
30.1659
32.7368
35.3922
38.1124
40.8278
43.4143
45.6945
47.4643
25.1695
27.657
30.1659
32.7368
35.3923
38.1125
40.8278
43.4143
45.6946
47.4643
25.1696
27.6571
30.166
32.7369
35.3923
38.1125
40.8279
43.4144
45.6946
47.4644
25.1696
27.6571
30.166
32.7369
35.3924
38.1126
40.8279
43.4145
45.6947
47.4645
25.1697
27.6572
30.1661
32.737
35.3925
38.1127
40.828
43.4146
45.6948
47.4646
23.9744
26.8796
29.536
32.1352
34.7452
37.3567
39.8928
42.2024
44.031
44.9433
23.9743
26.8796
29.536
32.1352
34.7452
37.3566
39.8928
42.2023
44.0309
44.9432
23.9743
26.8795
29.5359
32.1351
34.7451
37.3565
39.8927
42.2023
44.0308
44.9431
23.9743
26.8795
29.5359
32.1351
34.7451
37.3565
39.8927
42.2022
44.0308
44.9431
23.9742
26.8795
29.5359
32.135
34.745
37.3565
39.8926
42.2022
44.0308
44.9431
23.9742
26.8795
29.5359
32.135
34.745
37.3565
39.8926
42.2022
44.0308
44.9431
23.9743
26.8795
29.5359
32.1351
34.7451
37.3565
39.8927
42.2022
44.0308
44.9431
23.9743
26.8795
29.5359
32.1351
34.7451
37.3565
39.8927
42.2023
44.0309
44.9431
23.9743
26.8796
29.536
32.1352
34.7452
37.3566
39.8928
42.2024
44.0309
44.9432
23.9744
26.8797
29.5361
32.1353
34.7453
37.3567
39.8929
42.2025
44.031
44.9433
127.738
140.197
147.891
153.315
157.354
160.404
162.675
164.293
165.334
165.845
127.738
140.197
147.891
153.315
157.354
160.404
162.675
164.293
165.334
165.845
127.738
140.197
147.891
153.315
157.354
160.404
162.675
164.293
165.334
165.844
127.738
140.197
147.891
153.315
157.354
160.404
162.675
164.293
165.334
165.844
127.738
140.197
147.891
153.315
157.354
160.404
162.675
164.293
165.334
165.844
127.738
140.197
147.891
153.315
157.354
160.404
162.675
164.293
165.334
165.844
127.738
140.197
147.891
153.315
157.354
160.404
162.675
164.293
165.334
165.844
127.738
140.197
147.891
153.315
157.354
160.404
162.675
164.293
165.334
165.844
127.738
140.197
147.891
153.315
157.354
160.404
162.675
164.293
165.334
165.845
127.738
140.197
147.891
153.315
157.354
160.404
162.675
164.293
165.334
165.845
109.206
120.4
128.355
134.162
138.496
141.751
144.161
145.87
146.967
147.503
109.205
120.4
128.355
134.162
138.496
141.751
144.161
145.87
146.967
147.503
109.205
120.4
128.355
134.161
138.496
141.751
144.161
145.87
146.967
147.503
109.205
120.4
128.355
134.161
138.496
141.751
144.161
145.87
146.967
147.503
109.205
120.4
128.355
134.161
138.496
141.751
144.161
145.87
146.967
147.503
109.205
120.4
128.355
134.161
138.496
141.751
144.161
145.87
146.967
147.503
109.205
120.4
128.355
134.161
138.496
141.751
144.161
145.87
146.967
147.503
109.205
120.4
128.355
134.161
138.496
141.751
144.161
145.87
146.967
147.503
109.205
120.4
128.355
134.162
138.496
141.751
144.161
145.87
146.967
147.503
109.206
120.4
128.355
134.162
138.496
141.751
144.161
145.87
146.967
147.503
95.6482
104.685
111.822
117.343
121.588
124.823
127.235
128.951
130.054
130.594
95.648
104.685
111.822
117.343
121.588
124.823
127.235
128.951
130.054
130.594
95.648
104.685
111.822
117.343
121.588
124.823
127.235
128.951
130.054
130.594
95.6479
104.685
111.821
117.343
121.588
124.823
127.235
128.951
130.054
130.594
95.6479
104.685
111.821
117.343
121.588
124.823
127.235
128.951
130.054
130.594
95.6479
104.685
111.821
117.343
121.588
124.823
127.235
128.951
130.054
130.594
95.6479
104.685
111.821
117.343
121.588
124.823
127.235
128.951
130.054
130.594
95.6479
104.685
111.822
117.343
121.588
124.823
127.235
128.951
130.054
130.594
95.648
104.685
111.822
117.343
121.588
124.823
127.235
128.951
130.054
130.594
95.6481
104.685
111.822
117.343
121.588
124.823
127.235
128.951
130.054
130.594
84.5413
91.7208
97.7652
102.674
106.574
109.609
111.903
113.548
114.611
115.133
84.5412
91.7207
97.7651
102.674
106.574
109.609
111.903
113.548
114.611
115.133
84.5411
91.7206
97.765
102.674
106.574
109.609
111.902
113.548
114.611
115.133
84.541
91.7205
97.7649
102.674
106.574
109.609
111.902
113.548
114.611
115.133
84.541
91.7205
97.7649
102.674
106.574
109.609
111.902
113.548
114.611
115.133
84.541
91.7205
97.7649
102.674
106.574
109.609
111.902
113.548
114.611
115.133
84.541
91.7205
97.7649
102.674
106.574
109.609
111.902
113.548
114.611
115.133
84.5411
91.7206
97.765
102.674
106.574
109.609
111.902
113.548
114.611
115.133
84.5412
91.7207
97.765
102.674
106.574
109.609
111.903
113.548
114.611
115.133
84.5413
91.7208
97.7652
102.674
106.574
109.609
111.903
113.548
114.611
115.133
75.0638
80.741
85.7074
89.8891
93.3096
96.0306
98.1193
99.6342
100.62
101.105
75.0637
80.7408
85.7072
89.889
93.3095
96.0304
98.1192
99.6341
100.62
101.105
75.0636
80.7407
85.7071
89.8889
93.3094
96.0303
98.1191
99.634
100.62
101.105
75.0635
80.7407
85.7071
89.8888
93.3093
96.0303
98.119
99.634
100.62
101.105
75.0635
80.7406
85.707
89.8888
93.3093
96.0302
98.119
99.6339
100.62
101.105
75.0635
80.7406
85.707
89.8888
93.3093
96.0302
98.119
99.6339
100.62
101.105
75.0635
80.7407
85.7071
89.8888
93.3093
96.0303
98.119
99.634
100.62
101.105
75.0636
80.7407
85.7071
89.8889
93.3094
96.0303
98.1191
99.6341
100.62
101.105
75.0637
80.7408
85.7072
89.889
93.3095
96.0304
98.1192
99.6342
100.62
101.105
75.0638
80.741
85.7074
89.8891
93.3096
96.0306
98.1193
99.6343
100.62
101.106
66.8825
71.3156
75.2917
78.7348
81.6244
83.9724
85.8048
87.1499
88.0321
88.4688
66.8823
71.3155
75.2916
78.7347
81.6243
83.9723
85.8047
87.1497
88.032
88.4687
66.8822
71.3154
75.2915
78.7346
81.6242
83.9722
85.8046
87.1497
88.0319
88.4686
66.8822
71.3153
75.2914
78.7345
81.6241
83.9721
85.8045
87.1496
88.0318
88.4686
66.8822
71.3153
75.2914
78.7345
81.6241
83.9721
85.8045
87.1496
88.0318
88.4685
66.8822
71.3153
75.2914
78.7345
81.6241
83.9721
85.8045
87.1496
88.0318
88.4685
66.8822
71.3153
75.2914
78.7345
81.6241
83.9722
85.8045
87.1496
88.0319
88.4686
66.8823
71.3154
75.2915
78.7346
81.6242
83.9722
85.8046
87.1497
88.0319
88.4687
66.8823
71.3155
75.2916
78.7347
81.6243
83.9723
85.8047
87.1498
88.032
88.4688
66.8825
71.3156
75.2917
78.7348
81.6244
83.9725
85.8048
87.1499
88.0322
88.4689
59.8289
63.1803
66.255
68.9912
71.3476
73.3049
74.8591
76.0149
76.7798
77.1604
59.8287
63.1802
66.2548
68.991
71.3475
73.3048
74.859
76.0148
76.7797
77.1603
59.8286
63.1801
66.2548
68.9909
71.3474
73.3047
74.8589
76.0147
76.7796
77.1602
59.8286
63.18
66.2547
68.9909
71.3473
73.3046
74.8589
76.0147
76.7796
77.1602
59.8286
63.18
66.2547
68.9909
71.3473
73.3046
74.8588
76.0147
76.7795
77.1602
59.8286
63.18
66.2547
68.9909
71.3473
73.3046
74.8588
76.0147
76.7795
77.1602
59.8286
63.18
66.2547
68.9909
71.3474
73.3046
74.8589
76.0147
76.7796
77.1602
59.8287
63.1801
66.2548
68.991
71.3474
73.3047
74.859
76.0148
76.7797
77.1603
59.8287
63.1802
66.2549
68.9911
71.3475
73.3048
74.8591
76.0149
76.7798
77.1604
59.8289
63.1803
66.255
68.9912
71.3476
73.3049
74.8592
76.015
76.7799
77.1605
53.7911
56.1398
58.3862
60.4667
62.3182
63.8959
65.1735
66.1372
66.7812
67.1034
53.791