/*--------------------------------*- C++ -*----------------------------------*\
  =========                 |
  \\      /  F ield         | OpenFOAM: The Open Source CFD Toolbox
   \\    /   O peration     | Website:  https://openfoam.org
    \\  /    A nd           | Version:  6
     \\/     M anipulation  |
\*---------------------------------------------------------------------------*/
FoamFile
{
    version     2.0;
    format      ascii;
    class       volScalarField;
    location    "0.45";
    object      T;
}
// * * * * * * * * * * * * * * * * * * * * * * * * * * * * * * * * * * * * * //

dimensions      [0 0 0 1 0 0 0];

internalField   nonuniform List<scalar> 
7000
(
105.329
105.327
105.323
105.318
105.312
105.305
105.297
105.291
105.286
105.284
105.329
105.327
105.323
105.318
105.312
105.305
105.297
105.291
105.286
105.284
105.329
105.327
105.323
105.318
105.312
105.304
105.297
105.291
105.286
105.284
105.329
105.327
105.323
105.318
105.312
105.304
105.297
105.291
105.286
105.284
105.329
105.327
105.323
105.318
105.312
105.304
105.297
105.291
105.286
105.284
105.329
105.327
105.323
105.318
105.312
105.304
105.297
105.291
105.286
105.284
105.329
105.327
105.323
105.318
105.312
105.304
105.297
105.291
105.286
105.284
105.329
105.327
105.323
105.318
105.312
105.304
105.297
105.291
105.286
105.284
105.329
105.327
105.323
105.318
105.312
105.304
105.297
105.291
105.286
105.284
105.329
105.327
105.323
105.318
105.312
105.305
105.297
105.291
105.286
105.284
96.0374
96.0315
96.0202
96.0041
95.9841
95.962
95.9397
95.9196
95.9044
95.8962
96.0373
96.0315
96.0202
96.004
95.9841
95.962
95.9396
95.9196
95.9044
95.8961
96.0373
96.0315
96.0202
96.004
95.9841
95.9619
95.9396
95.9196
95.9044
95.8961
96.0373
96.0315
96.0202
96.004
95.9841
95.9619
95.9396
95.9196
95.9044
95.8961
96.0373
96.0315
96.0201
96.004
95.9841
95.9619
95.9396
95.9196
95.9044
95.8961
96.0373
96.0315
96.0201
96.004
95.9841
95.9619
95.9396
95.9196
95.9044
95.8961
96.0373
96.0315
96.0201
96.004
95.9841
95.9619
95.9396
95.9196
95.9044
95.8961
96.0373
96.0315
96.0202
96.004
95.9841
95.9619
95.9396
95.9196
95.9044
95.8961
96.0373
96.0315
96.0202
96.004
95.9841
95.9619
95.9396
95.9196
95.9044
95.8961
96.0373
96.0315
96.0202
96.004
95.9841
95.962
95.9397
95.9196
95.9044
95.8962
86.8971
86.8869
86.867
86.8384
86.8029
86.7632
86.7227
86.686
86.6579
86.6426
86.8971
86.8868
86.8669
86.8384
86.8029
86.7631
86.7227
86.686
86.6579
86.6426
86.897
86.8868
86.8669
86.8383
86.8028
86.7631
86.7227
86.686
86.6579
86.6425
86.897
86.8868
86.8669
86.8383
86.8028
86.7631
86.7226
86.686
86.6578
86.6425
86.897
86.8868
86.8669
86.8383
86.8028
86.7631
86.7226
86.686
86.6578
86.6425
86.897
86.8868
86.8669
86.8383
86.8028
86.7631
86.7226
86.686
86.6578
86.6425
86.897
86.8868
86.8669
86.8383
86.8028
86.7631
86.7226
86.686
86.6578
86.6425
86.897
86.8868
86.8669
86.8383
86.8028
86.7631
86.7226
86.686
86.6579
86.6425
86.897
86.8868
86.8669
86.8383
86.8029
86.7631
86.7227
86.686
86.6579
86.6426
86.897
86.8868
86.8669
86.8384
86.8029
86.7631
86.7227
86.686
86.6579
86.6426
78.0037
77.9884
77.9583
77.9149
77.8604
77.7986
77.7348
77.6759
77.6301
77.6049
78.0037
77.9883
77.9583
77.9149
77.8604
77.7985
77.7347
77.6759
77.6301
77.6048
78.0036
77.9883
77.9583
77.9148
77.8604
77.7985
77.7347
77.6758
77.6301
77.6048
78.0036
77.9883
77.9582
77.9148
77.8603
77.7985
77.7347
77.6758
77.63
77.6048
78.0036
77.9883
77.9582
77.9148
77.8603
77.7985
77.7346
77.6758
77.63
77.6048
78.0036
77.9882
77.9582
77.9148
77.8603
77.7985
77.7346
77.6758
77.63
77.6048
78.0036
77.9883
77.9582
77.9148
77.8603
77.7985
77.7346
77.6758
77.63
77.6048
78.0036
77.9883
77.9582
77.9148
77.8603
77.7985
77.7347
77.6758
77.6301
77.6048
78.0036
77.9883
77.9583
77.9148
77.8604
77.7985
77.7347
77.6759
77.6301
77.6048
78.0037
77.9883
77.9583
77.9149
77.8604
77.7986
77.7347
77.6759
77.6301
77.6049
69.4457
69.4242
69.3821
69.3205
69.2421
69.1516
69.0562
68.9661
68.8944
68.8541
69.4456
69.4242
69.382
69.3204
69.2421
69.1516
69.0561
68.9661
68.8944
68.8541
69.4455
69.4241
69.3819
69.3204
69.242
69.1515
69.0561
68.966
68.8943
68.854
69.4455
69.4241
69.3819
69.3203
69.242
69.1515
69.056
68.966
68.8943
68.854
69.4455
69.4241
69.3819
69.3203
69.242
69.1515
69.056
68.966
68.8943
68.854
69.4455
69.4241
69.3819
69.3203
69.242
69.1515
69.056
68.966
68.8943
68.854
69.4455
69.4241
69.3819
69.3203
69.242
69.1515
69.056
68.966
68.8943
68.854
69.4455
69.4241
69.3819
69.3203
69.242
69.1515
69.0561
68.966
68.8943
68.854
69.4455
69.4241
69.382
69.3204
69.242
69.1515
69.0561
68.9661
68.8944
68.8541
69.4456
69.4242
69.382
69.3204
69.2421
69.1516
69.0562
68.9661
68.8944
68.8541
61.3016
61.273
61.2164
61.1328
61.0245
60.8965
60.7576
60.6221
60.5104
60.4456
61.3015
61.273
61.2164
61.1327
61.0244
60.8964
60.7575
60.6221
60.5103
60.4456
61.3014
61.2729
61.2163
61.1327
61.0244
60.8964
60.7575
60.622
60.5103
60.4455
61.3014
61.2729
61.2163
61.1326
61.0243
60.8963
60.7574
60.622
60.5102
60.4455
61.3014
61.2729
61.2163
61.1326
61.0243
60.8963
60.7574
60.622
60.5102
60.4455
61.3014
61.2729
61.2163
61.1326
61.0243
60.8963
60.7574
60.622
60.5102
60.4455
61.3014
61.2729
61.2163
61.1326
61.0243
60.8963
60.7574
60.622
60.5102
60.4455
61.3014
61.2729
61.2163
61.1327
61.0244
60.8963
60.7575
60.622
60.5103
60.4455
61.3014
61.2729
61.2163
61.1327
61.0244
60.8964
60.7575
60.6221
60.5103
60.4456
61.3015
61.273
61.2164
61.1328
61.0245
60.8965
60.7576
60.6221
60.5104
60.4457
53.6386
53.6021
53.5289
53.4193
53.2743
53.0979
52.8994
52.6967
52.5204
52.4129
53.6385
53.602
53.5288
53.4192
53.2742
53.0978
52.8993
52.6966
52.5204
52.4128
53.6385
53.6019
53.5288
53.4191
53.2741
53.0978
52.8992
52.6966
52.5203
52.4128
53.6384
53.6019
53.5287
53.4191
53.2741
53.0978
52.8992
52.6965
52.5203
52.4128
53.6384
53.6019
53.5287
53.4191
53.2741
53.0977
52.8992
52.6965
52.5203
52.4127
53.6384
53.6019
53.5287
53.4191
53.2741
53.0977
52.8992
52.6965
52.5203
52.4127
53.6384
53.6019
53.5287
53.4191
53.2741
53.0977
52.8992
52.6966
52.5203
52.4128
53.6385
53.6019
53.5288
53.4191
53.2741
53.0978
52.8992
52.6966
52.5203
52.4128
53.6385
53.602
53.5288
53.4192
53.2742
53.0978
52.8993
52.6966
52.5204
52.4128
53.6386
53.602
53.5289
53.4192
53.2743
53.0979
52.8994
52.6967
52.5205
52.4129
46.511
46.4659
46.3749
46.2361
46.0484
45.8123
45.5339
45.2317
44.9474
44.7575
46.511
46.4659
46.3748
46.2361
46.0484
45.8122
45.5339
45.2317
44.9474
44.7574
46.5109
46.4658
46.3747
46.236
46.0483
45.8122
45.5338
45.2316
44.9473
44.7574
46.5109
46.4658
46.3747
46.236
46.0483
45.8121
45.5338
45.2316
44.9473
44.7574
46.5108
46.4657
46.3747
46.236
46.0482
45.8121
45.5337
45.2316
44.9473
44.7574
46.5108
46.4657
46.3746
46.236
46.0482
45.8121
45.5337
45.2316
44.9473
44.7574
46.5109
46.4658
46.3747
46.236
46.0483
45.8121
45.5338
45.2316
44.9473
44.7574
46.5109
46.4658
46.3747
46.236
46.0483
45.8122
45.5338
45.2316
44.9473
44.7574
46.5109
46.4658
46.3748
46.2361
46.0483
45.8122
45.5339
45.2317
44.9474
44.7575
46.511
46.4659
46.3748
46.2361
46.0484
45.8123
45.5339
45.2317
44.9475
44.7575
39.9592
39.9057
39.7968
39.6285
39.3951
39.0906
38.7117
38.2664
37.7965
37.428
39.9591
39.9056
39.7968
39.6284
39.395
39.0905
38.7116
38.2663
37.7964
37.4279
39.959
39.9056
39.7967
39.6284
39.3949
39.0904
38.7115
38.2663
37.7963
37.4279
39.959
39.9055
39.7967
39.6283
39.3949
39.0904
38.7115
38.2662
37.7963
37.4279
39.9589
39.9055
39.7966
39.6283
39.3949
39.0904
38.7115
38.2662
37.7963
37.4278
39.9589
39.9055
39.7966
39.6283
39.3949
39.0904
38.7115
38.2662
37.7963
37.4278
39.959
39.9055
39.7967
39.6283
39.3949
39.0904
38.7115
38.2662
37.7963
37.4279
39.959
39.9056
39.7967
39.6284
39.3949
39.0904
38.7116
38.2663
37.7964
37.4279
39.959
39.9056
39.7968
39.6284
39.395
39.0905
38.7116
38.2663
37.7964
37.428
39.9591
39.9057
39.7968
39.6285
39.3951
39.0906
38.7117
38.2664
37.7965
37.428
34.0087
33.9482
33.8241
33.6295
33.3539
32.9818
32.4921
31.8605
31.0781
30.2641
34.0086
33.9481
33.824
33.6294
33.3538
32.9817
32.4921
31.8604
31.078
30.264
34.0086
33.9481
33.8239
33.6294
33.3538
32.9816
32.492
31.8604
31.078
30.264
34.0085
33.948
33.8239
33.6294
33.3537
32.9816
32.492
31.8604
31.078
30.2639
34.0085
33.948
33.8239
33.6293
33.3537
32.9816
32.492
31.8603
31.0779
30.2639
34.0085
33.948
33.8239
33.6293
33.3537
32.9816
32.492
31.8603
31.0779
30.2639
34.0085
33.948
33.8239
33.6294
33.3538
32.9816
32.492
31.8604
31.078
30.264
34.0086
33.9481
33.8239
33.6294
33.3538
32.9817
32.492
31.8604
31.078
30.264
34.0086
33.9481
33.824
33.6294
33.3539
32.9817
32.4921
31.8605
31.0781
30.2641
34.0087
33.9482
33.8241
33.6295
33.3539
32.9818
32.4922
31.8605
31.0781
30.2641
28.6707
28.6056
28.4712
28.259
27.9542
27.533
26.9552
26.1451
24.9317
22.8282
28.6707
28.6055
28.4711
28.2589
27.9541
27.5329
26.9551
26.1451
24.9316
22.8281
28.6706
28.6054
28.4711
28.2589
27.9541
27.5328
26.955
26.145
24.9316
22.8281
28.6706
28.6054
28.471
28.2588
27.954
27.5328
26.955
26.145
24.9315
22.8281
28.6705
28.6054
28.471
28.2588
27.954
27.5328
26.955
26.145
24.9315
22.828
28.6705
28.6054
28.471
28.2588
27.954
27.5328
26.955
26.145
24.9315
22.828
28.6706
28.6054
28.471
28.2588
27.954
27.5328
26.955
26.145
24.9315
22.8281
28.6706
28.6054
28.4711
28.2589
27.9541
27.5328
26.955
26.145
24.9316
22.8281
28.6706
28.6055
28.4711
28.2589
27.9541
27.5329
26.9551
26.1451
24.9316
22.8282
28.6707
28.6055
28.4712
28.259
27.9542
27.533
26.9552
26.1452
24.9317
22.8282
23.9416
23.8749
23.7375
23.5202
23.2077
22.7754
22.1839
21.367
20.212
18.5448
23.9415
23.8749
23.7374
23.5201
23.2076
22.7753
22.1838
21.3669
20.212
18.5447
23.9414
23.8748
23.7374
23.5201
23.2075
22.7753
22.1837
21.3669
20.2119
18.5446
23.9414
23.8748
23.7373
23.52
23.2075
22.7752
22.1837
21.3669
20.2119
18.5446
23.9414
23.8747
23.7373
23.52
23.2075
22.7752
22.1837
21.3668
20.2119
18.5446
23.9414
23.8747
23.7373
23.52
23.2075
22.7752
22.1837
21.3668
20.2119
18.5446
23.9414
23.8748
23.7373
23.52
23.2075
22.7752
22.1837
21.3669
20.2119
18.5446
23.9414
23.8748
23.7374
23.5201
23.2075
22.7753
22.1838
21.3669
20.2119
18.5447
23.9415
23.8748
23.7374
23.5201
23.2076
22.7753
22.1838
21.367
20.212
18.5447
23.9415
23.8749
23.7375
23.5202
23.2077
22.7754
22.1839
21.367
20.2121
18.5448
19.8037
19.7391
19.6062
19.3972
19.0994
18.694
18.1544
17.4451
16.5278
15.3936
19.8036
19.739
19.6061
19.3971
19.0993
18.694
18.1543
17.4451
16.5277
15.3936
19.8035
19.7389
19.606
19.3971
19.0993
18.6939
18.1543
17.445
16.5277
15.3935
19.8035
19.7389
19.606
19.397
19.0992
18.6939
18.1543
17.445
16.5276
15.3935
19.8035
19.7389
19.606
19.397
19.0992
18.6939
18.1542
17.445
16.5276
15.3935
19.8035
19.7389
19.606
19.397
19.0992
18.6939
18.1542
17.445
16.5276
15.3935
19.8035
19.7389
19.606
19.397
19.0992
18.6939
18.1543
17.445
16.5276
15.3935
19.8035
19.7389
19.606
19.3971
19.0993
18.6939
18.1543
17.445
16.5277
15.3935
19.8036
19.739
19.6061
19.3971
19.0993
18.694
18.1544
17.4451
16.5277
15.3936
19.8036
19.739
19.6062
19.3972
19.0994
18.694
18.1544
17.4452
16.5278
15.3937
16.2275
16.1679
16.0461
15.8564
15.5907
15.2379
14.7861
14.2259
13.5614
12.8365
16.2274
16.1678
16.046
15.8564
15.5906
15.2379
14.7861
14.2258
13.5614
12.8364
16.2274
16.1678
16.046
15.8563
15.5905
15.2378
14.786
14.2258
13.5613
12.8364
16.2273
16.1678
16.0459
15.8563
15.5905
15.2378
14.786
14.2257
13.5613
12.8364
16.2273
16.1678
16.0459
15.8563
15.5905
15.2378
14.786
14.2257
13.5613
12.8363
16.2273
16.1678
16.0459
15.8563
15.5905
15.2378
14.786
14.2257
13.5613
12.8363
16.2274
16.1678
16.0459
15.8563
15.5905
15.2378
14.786
14.2257
13.5613
12.8364
16.2274
16.1678
16.046
15.8563
15.5906
15.2378
14.786
14.2258
13.5613
12.8364
16.2274
16.1679
16.046
15.8564
15.5906
15.2379
14.7861
14.2258
13.5614
12.8365
16.2275
16.1679
16.0461
15.8565
15.5907
15.238
14.7862
14.2259
13.5614
12.8365
13.1738
13.1214
13.0151
12.8518
12.6279
12.3398
11.9868
11.5755
11.1284
10.6976
13.1737
13.1213
13.015
12.8518
12.6278
12.3397
11.9867
11.5754
11.1284
10.6975
13.1737
13.1213
13.015
12.8517
12.6278
12.3397
11.9867
11.5754
11.1283
10.6975
13.1737
13.1213
13.0149
12.8517
12.6278
12.3397
11.9866
11.5753
11.1283
10.6974
13.1737
13.1213
13.0149
12.8517
12.6278
12.3396
11.9866
11.5753
11.1283
10.6974
13.1737
13.1213
13.0149
12.8517
12.6278
12.3396
11.9866
11.5753
11.1283
10.6974
13.1737
13.1213
13.0149
12.8517
12.6278
12.3397
11.9867
11.5754
11.1283
10.6974
13.1737
13.1213
13.015
12.8517
12.6278
12.3397
11.9867
11.5754
11.1283
10.6975
13.1737
13.1213
13.015
12.8518
12.6279
12.3398
11.9867
11.5754
11.1284
10.6975
13.1738
13.1214
13.0151
12.8519
12.6279
12.3398
11.9868
11.5755
11.1285
10.6976
10.5966
10.5525
10.4639
10.33
10.151
9.92894
9.67074
9.39148
9.11964
8.90219
10.5965
10.5524
10.4638
10.33
10.1509
9.92889
9.67068
9.39143
9.11958
8.90212
10.5965
10.5524
10.4638
10.3299
10.1509
9.92885
9.67064
9.39139
9.11954
8.90208
10.5965
10.5524
10.4637
10.3299
10.1509
9.92883
9.67062
9.39136
9.11952
8.90205
10.5965
10.5524
10.4637
10.3299
10.1508
9.92882
9.67061
9.39135
9.1195
8.90204
10.5965
10.5524
10.4637
10.3299
10.1508
9.92882
9.67061
9.39135
9.11951
8.90204
10.5965
10.5524
10.4637
10.3299
10.1509
9.92884
9.67063
9.39137
9.11953
8.90206
10.5965
10.5524
10.4638
10.3299
10.1509
9.92887
9.67066
9.3914
9.11956
8.90209
10.5966
10.5525
10.4638
10.33
10.1509
9.92892
9.67071
9.39145
9.11961
8.90214
10.5966
10.5525
10.4639
10.33
10.151
9.92898
9.67077
9.39151
9.11967
8.90221
8.44607
8.41045
8.33964
8.23478
8.09871
7.93752
7.76271
7.59399
7.46174
7.40708
8.44602
8.41041
8.33959
8.23473
8.09866
7.93747
7.76266
7.59394
7.46169
7.40702
8.44599
8.41037
8.33956
8.23469
8.09863
7.93744
7.76263
7.59391
7.46165
7.40698
8.44596
8.41035
8.33954
8.23467
8.09861
7.93741
7.76261
7.59389
7.46163
7.40695
8.44595
8.41034
8.33953
8.23466
8.0986
7.9374
7.7626
7.59388
7.46162
7.40694
8.44596
8.41034
8.33953
8.23467
8.0986
7.93741
7.7626
7.59388
7.46162
7.40695
8.44597
8.41036
8.33955
8.23468
8.09862
7.93742
7.76262
7.5939
7.46164
7.40696
8.44599
8.41038
8.33957
8.23471
8.09864
7.93745
7.76265
7.59393
7.46167
7.407
8.44603
8.41042
8.33961
8.23475
8.09869
7.93749
7.76269
7.59397
7.46171
7.40704
8.44607
8.41047
8.33966
8.2348
8.09874
7.93755
7.76274
7.59403
7.46177
7.4071
6.67119
6.6435
6.58915
6.51047
6.41213
6.30258
6.1962
6.11589
6.09515
6.17609
6.67115
6.64346
6.58911
6.51043
6.41209
6.30254
6.19616
6.11585
6.09511
6.17604
6.67112
6.64343
6.58908
6.5104
6.41206
6.30251
6.19613
6.11582
6.09507
6.17601
6.6711
6.64341
6.58906
6.51038
6.41204
6.30249
6.19611
6.1158
6.09505
6.17598
6.67109
6.64341
6.58905
6.51037
6.41203
6.30248
6.1961
6.11579
6.09505
6.17597
6.67109
6.64341
6.58905
6.51037
6.41203
6.30249
6.19611
6.11579
6.09505
6.17598
6.6711
6.64342
6.58907
6.51039
6.41205
6.3025
6.19612
6.11581
6.09506
6.17599
6.67112
6.64344
6.58909
6.51041
6.41207
6.30253
6.19615
6.11583
6.09509
6.17602
6.67115
6.64348
6.58912
6.51045
6.41211
6.30256
6.19619
6.11587
6.09513
6.17606
6.67119
6.64352
6.58917
6.5105
6.41216
6.30261
6.19624
6.11592
6.09518
6.17612
5.22194
5.20116
5.16091
5.10415
5.03637
4.96698
4.91159
4.89547
4.95884
5.16222
5.22191
5.20112
5.16087
5.10411
5.03633
4.96695
4.91156
4.89544
4.9588
5.16217
5.22188
5.2011
5.16085
5.10409
5.03631
4.96692
4.91153
4.89541
4.95877
5.16214
5.22187
5.20108
5.16083
5.10407
5.03629
4.9669
4.91152
4.89539
4.95875
5.16212
5.22186
5.20107
5.16082
5.10407
5.03628
4.9669
4.91151
4.89538
4.95875
5.16211
5.22186
5.20108
5.16083
5.10407
5.03629
4.9669
4.91151
4.89539
4.95875
5.16212
5.22187
5.20109
5.16084
5.10408
5.0363
4.96691
4.91153
4.8954
4.95877
5.16213
5.22189
5.20111
5.16086
5.1041
5.03632
4.96694
4.91155
4.89543
4.95879
5.16216
5.22192
5.20114
5.16089
5.10413
5.03635
4.96697
4.91158
4.89546
4.95883
5.1622
5.22195
5.20117
5.16093
5.10418
5.0364
4.96701
4.91163
4.8955
4.95887
5.16224
4.05099
4.03583
4.00689
3.9672
3.92209
3.88041
3.85646
3.874
3.97672
4.26461
4.05096
4.0358
4.00686
3.96717
3.92206
3.88038
3.85643
3.87397
3.97668
4.26458
4.05094
4.03578
4.00684
3.96715
3.92204
3.88036
3.85641
3.87394
3.97666
4.26455
4.05092
4.03576
4.00683
3.96713
3.92202
3.88034
3.8564
3.87393
3.97664
4.26454
4.05092
4.03576
4.00682
3.96713
3.92202
3.88034
3.85639
3.87392
3.97664
4.26453
4.05092
4.03576
4.00683
3.96713
3.92202
3.88034
3.85639
3.87393
3.97664
4.26453
4.05093
4.03577
4.00684
3.96714
3.92203
3.88035
3.85641
3.87394
3.97665
4.26455
4.05095
4.03579
4.00686
3.96716
3.92205
3.88037
3.85643
3.87396
3.97668
4.26457
4.05097
4.03581
4.00688
3.96719
3.92208
3.8804
3.85646
3.87399
3.97671
4.2646
4.051
4.03585
4.00692
3.96722
3.92212
3.88044
3.85649
3.87403
3.97675
4.26465
18.1166
15.8048
15.0614
15.6059
17.4
20.5593
25.3495
32.2461
42.1026
56.6034
18.1166
15.8047
15.0613
15.6058
17.3999
20.5592
25.3494
32.2459
42.1024
56.6032
18.1165
15.8046
15.0613
15.6058
17.3998
20.5591
25.3493
32.2458
42.1022
56.603
18.1165
15.8046
15.0612
15.6057
17.3998
20.559
25.3492
32.2457
42.1021
56.6029
18.1164
15.8045
15.0612
15.6057
17.3997
20.559
25.3492
32.2456
42.1021
56.6029
18.1164
15.8045
15.0612
15.6057
17.3997
20.559
25.3491
32.2456
42.1021
56.6029
18.1165
15.8045
15.0612
15.6057
17.3997
20.559
25.3492
32.2457
42.1021
56.6029
18.1165
15.8046
15.0612
15.6057
17.3998
20.559
25.3492
32.2457
42.1022
56.603
18.1166
15.8046
15.0613
15.6058
17.3998
20.5591
25.3493
32.2458
42.1023
56.6031
18.1166
15.8047
15.0614
15.6059
17.3999
20.5592
25.3494
32.2459
42.1024
56.6032
16.2785
14.8253
14.4026
15.0391
16.7863
19.7645
24.1806
30.3425
38.6531
49.4668
16.2784
14.8252
14.4025
15.039
16.7861
19.7644
24.1805
30.3423
38.6529
49.4666
16.2784
14.8252
14.4025
15.0389
16.7861
19.7643
24.1804
30.3422
38.6527
49.4664
16.2783
14.8251
14.4024
15.0389
16.786
19.7642
24.1803
30.3421
38.6527
49.4663
16.2783
14.8251
14.4024
15.0389
16.786
19.7642
24.1803
30.342
38.6526
49.4663
16.2783
14.8251
14.4024
15.0389
16.786
19.7642
24.1803
30.342
38.6526
49.4663
16.2783
14.8251
14.4024
15.0389
16.786
19.7642
24.1803
30.3421
38.6526
49.4663
16.2784
14.8252
14.4025
15.0389
16.786
19.7642
24.1803
30.3421
38.6527
49.4664
16.2784
14.8252
14.4025
15.039
16.7861
19.7643
24.1804
30.3422
38.6528
49.4665
16.2785
14.8253
14.4026
15.0391
16.7862
19.7644
24.1805
30.3424
38.653
49.4667
14.1786
13.3949
13.3039
14.0339
15.6808
18.3534
22.1853
27.3224
33.8607
41.6712
14.1785
13.3948
13.3038
14.0338
15.6807
18.3532
22.1851
27.3222
33.8606
41.671
14.1785
13.3948
13.3037
14.0337
15.6806
18.3531
22.185
27.3221
33.8604
41.6708
14.1784
13.3947
13.3037
14.0336
15.6806
18.3531
22.185
27.322
33.8604
41.6707
14.1784
13.3947
13.3036
14.0336
15.6806
18.3531
22.1849
27.322
33.8603
41.6707
14.1784
13.3947
13.3036
14.0336
15.6806
18.353
22.1849
27.322
33.8603
41.6707
14.1784
13.3947
13.3037
14.0336
15.6806
18.3531
22.185
27.322
33.8603
41.6707
14.1785
13.3948
13.3037
14.0337
15.6806
18.3531
22.185
27.3221
33.8604
41.6708
14.1785
13.3948
13.3038
14.0337
15.6807
18.3532
22.1851
27.3222
33.8605
41.6709
14.1786
13.3949
13.3038
14.0338
15.6808
18.3533
22.1852
27.3223
33.8607
41.6711
12.1799
11.8328
11.9845
12.7635
14.2664
16.5772
19.7704
23.8904
28.9002
34.5855
12.1798
11.8328
11.9844
12.7634
14.2663
16.5771
19.7703
23.8902
28.9001
34.5854
12.1798
11.8327
11.9844
12.7634
14.2662
16.577
19.7702
23.8901
28.9
34.5852
12.1797
11.8327
11.9843
12.7633
14.2661
16.577
19.7701
23.89
28.8999
34.5852
12.1797
11.8326
11.9843
12.7633
14.2661
16.5769
19.7701
23.89
28.8999
34.5851
12.1797
11.8326
11.9843
12.7633
14.2661
16.5769
19.7701
23.89
28.8999
34.5851
12.1797
11.8327
11.9843
12.7633
14.2661
16.577
19.7701
23.89
28.8999
34.5852
12.1798
11.8327
11.9844
12.7634
14.2662
16.577
19.7702
23.8901
28.9
34.5852
12.1798
11.8328
11.9844
12.7634
14.2662
16.5771
19.7702
23.8902
28.9001
34.5854
12.1799
11.8328
11.9845
12.7635
14.2663
16.5772
19.7704
23.8903
28.9002
34.5855
10.3787
10.3081
10.6127
11.3938
12.7292
14.6766
17.2699
20.5028
24.2992
28.4742
10.3786
10.308
10.6126
11.3937
12.7291
14.6765
17.2697
20.5027
24.2991
28.474
10.3786
10.3079
10.6126
11.3937
12.729
14.6764
17.2697
20.5026
24.299
28.4739
10.3786
10.3079
10.6125
11.3936
12.729
14.6764
17.2696
20.5025
24.2989
28.4738
10.3785
10.3079
10.6125
11.3936
12.729
14.6763
17.2696
20.5025
24.2989
28.4738
10.3785
10.3079
10.6125
11.3936
12.729
14.6763
17.2696
20.5025
24.2989
28.4738
10.3786
10.3079
10.6125
11.3936
12.729
14.6764
17.2696
20.5025
24.2989
28.4738
10.3786
10.3079
10.6126
11.3937
12.729
14.6764
17.2697
20.5026
24.299
28.4739
10.3786
10.308
10.6126
11.3937
12.7291
14.6765
17.2697
20.5027
24.2991
28.474
10.3787
10.3081
10.6127
11.3938
12.7292
14.6766
17.2699
20.5028
24.2992
28.4742
8.8066
8.91477
9.3093
10.0622
11.2293
12.8457
14.9203
17.4246
20.2797
23.3473
8.80653
8.9147
9.30922
10.0621
11.2292
12.8456
14.9202
17.4244
20.2796
23.3471
8.80648
8.91465
9.30917
10.0621
11.2291
12.8456
14.9201
17.4243
20.2795
23.347
8.80645
8.91462
9.30913
10.062
11.2291
12.8455
14.9201
17.4243
20.2794
23.347
8.80644
8.9146
9.30911
10.062
11.229
12.8455
14.92
17.4243
20.2794
23.3469
8.80644
8.91461
9.30911
10.062
11.229
12.8455
14.92
17.4243
20.2794
23.3469
8.80646
8.91463
9.30913
10.062
11.2291
12.8455
14.9201
17.4243
20.2794
23.347
8.8065
8.91466
9.30917
10.0621
11.2291
12.8456
14.9201
17.4244
20.2795
23.347
8.80655
8.91472
9.30923
10.0621
11.2292
12.8456
14.9202
17.4244
20.2796
23.3472
8.80661
8.91479
9.30931
10.0622
11.2293
12.8457
14.9203
17.4246
20.2797
23.3473
7.47617
7.71085
8.16083
8.8751
9.89152
11.2288
12.8798
14.8056
16.9323
19.1569
7.47611
7.71079
8.16075
8.87502
9.89143
11.2287
12.8797
14.8055
16.9322
19.1568
7.47607
7.71074
8.1607
8.87497
9.89137
11.2286
12.8796
14.8054
16.9321
19.1567
7.47604
7.71071
8.16067
8.87493
9.89133
11.2286
12.8796
14.8053
16.932
19.1567
7.47603
7.71069
8.16065
8.87491
9.89131
11.2286
12.8795
14.8053
16.932
19.1566
7.47603
7.7107
8.16066
8.87492
9.89131
11.2286
12.8795
14.8053
16.932
19.1566
7.47605
7.71072
8.16068
8.87494
9.89134
11.2286
12.8796
14.8053
16.932
19.1567
7.47608
7.71075
8.16071
8.87498
9.89138
11.2286
12.8796
14.8054
16.9321
19.1567
7.47613
7.7108
8.16077
8.87504
9.89144
11.2287
12.8797
14.8055
16.9322
19.1569
7.47619
7.71087
8.16084
8.87511
9.89153
11.2288
12.8798
14.8056
16.9323
19.157
6.39359
6.73679
7.23089
7.91235
8.80894
9.92888
11.2542
12.7368
14.2998
15.8527
6.39354
6.73673
7.23083
7.91228
8.80886
9.92879
11.2541
12.7367
14.2997
15.8526
6.3935
6.73668
7.23078
7.91223
8.8088
9.92873
11.254
12.7366
14.2996
15.8525
6.39348
6.73666
7.23075
7.91219
8.80877
9.92869
11.254
12.7366
14.2995
15.8524
6.39347
6.73664
7.23074
7.91218
8.80875
9.92867
11.254
12.7365
14.2995
15.8524
6.39347
6.73665
7.23074
7.91218
8.80875
9.92868
11.254
12.7365
14.2995
15.8524
6.39349
6.73666
7.23076
7.9122
8.80878
9.9287
11.254
12.7366
14.2996
15.8524
6.39352
6.7367
7.23079
7.91224
8.80882
9.92875
11.2541
12.7366
14.2996
15.8525
6.39356
6.73675
7.23085
7.9123
8.80888
9.92882
11.2541
12.7367
14.2997
15.8526
6.39362
6.73681
7.23091
7.91237
8.80896
9.9289
11.2542
12.7368
14.2998
15.8527
5.56843
6.02935
6.56976
7.23336
8.04863
9.01933
10.1192
11.2877
12.4275
13.4158
5.56838
6.02929
6.5697
7.23329
8.04856
9.01925
10.1192
11.2876
12.4274
13.4157
5.56834
6.02926
6.56966
7.23324
8.04851
9.0192
10.1191
11.2875
12.4273
13.4157
5.56832
6.02923
6.56963
7.23321
8.04848
9.01916
10.1191
11.2875
12.4273
13.4156
5.56831
6.02922
6.56962
7.2332
8.04846
9.01915
10.119
11.2875
12.4272
13.4156
5.56832
6.02922
6.56962
7.2332
8.04847
9.01915
10.119
11.2875
12.4272
13.4156
5.56833
6.02924
6.56964
7.23323
8.04849
9.01918
10.1191
11.2875
12.4273
13.4156
5.56836
6.02927
6.56968
7.23326
8.04853
9.01922
10.1191
11.2876
12.4273
13.4157
5.5684
6.02932
6.56972
7.23332
8.04859
9.01928
10.1192
11.2876
12.4274
13.4158
5.56846
6.02938
6.56979
7.23339
8.04867
9.01937
10.1193
11.2877
12.4275
13.4159
5.04482
5.63783
6.22136
6.88117
7.6563
8.55067
9.53283
10.5291
11.4076
11.9385
5.04478
5.63779
6.22131
6.88112
7.65624
8.55061
9.53277
10.5291
11.4075
11.9384
5.04475
5.63776
6.22128
6.88107
7.6562
8.55056
9.53272
10.529
11.4075
11.9384
5.04473
5.63773
6.22125
6.88105
7.65617
8.55053
9.53268
10.529
11.4074
11.9383
5.04472
5.63772
6.22124
6.88103
7.65616
8.55051
9.53267
10.5289
11.4074
11.9383
5.04473
5.63773
6.22124
6.88104
7.65616
8.55052
9.53267
10.5289
11.4074
11.9383
5.04474
5.63775
6.22126
6.88106
7.65618
8.55054
9.5327
10.529
11.4075
11.9384
5.04477
5.63778
6.2213
6.8811
7.65622
8.55059
9.53274
10.529
11.4075
11.9384
5.04481
5.63782
6.22134
6.88115
7.65628
8.55065
9.53281
10.5291
11.4076
11.9385
5.04486
5.63788
6.22141
6.88122
7.65636
8.55073
9.5329
10.5292
11.4077
11.9386
79.5982
90.1582
96.3481
100.486
103.416
105.527
107.035
108.073
108.724
109.038
79.598
90.158
96.3478
100.486
103.415
105.526
107.035
108.073
108.724
109.038
79.5978
90.1578
96.3476
100.486
103.415
105.526
107.034
108.072
108.724
109.037
79.5977
90.1576
96.3475
100.486
103.415
105.526
107.034
108.072
108.723
109.037
79.5976
90.1576
96.3474
100.485
103.415
105.526
107.034
108.072
108.723
109.037
79.5976
90.1576
96.3474
100.485
103.415
105.526
107.034
108.072
108.723
109.037
79.5976
90.1576
96.3475
100.486
103.415
105.526
107.034
108.072
108.723
109.037
79.5977
90.1577
96.3476
100.486
103.415
105.526
107.034
108.072
108.724
109.038
79.5979
90.1579
96.3478
100.486
103.415
105.526
107.035
108.073
108.724
109.038
79.5981
90.1581
96.348
100.486
103.416
105.527
107.035
108.073
108.724
109.038
62.2411
71.3505
77.5824
81.9336
85.036
87.2653
88.8508
89.9375
90.6171
90.9442
62.2408
71.3503
77.5821
81.9333
85.0358
87.265
88.8505
89.9372
90.6168
90.944
62.2407
71.3501
77.5819
81.9331
85.0356
87.2648
88.8503
89.937
90.6166
90.9438
62.2406
71.35
77.5818
81.933
85.0354
87.2647
88.8502
89.9369
90.6165
90.9437
62.2405
71.3499
77.5817
81.9329
85.0354
87.2646
88.8501
89.9369
90.6165
90.9436
62.2405
71.3499
77.5817
81.933
85.0354
87.2646
88.8502
89.9369
90.6165
90.9437
62.2406
71.35
77.5818
81.933
85.0355
87.2647
88.8502
89.937
90.6166
90.9438
62.2407
71.3501
77.5819
81.9331
85.0356
87.2648
88.8504
89.9371
90.6167
90.9439
62.2408
71.3502
77.5821
81.9333
85.0358
87.265
88.8506
89.9373
90.617
90.9441
62.241
71.3504
77.5823
81.9336
85.036
87.2653
88.8509
89.9376
90.6172
90.9444
49.9967
56.9846
62.354
66.3622
69.3241
71.4926
73.0503
74.1235
74.7966
75.1209
49.9965
56.9844
62.3538
66.3619
69.3238
71.4924
73.05
74.1233
74.7963
75.1207
49.9964
56.9842
62.3536
66.3618
69.3236
71.4922
73.0499
74.1231
74.7962
75.1206
49.9963
56.9841
62.3535
66.3617
69.3235
71.4921
73.0498
74.123
74.7961
75.1205
49.9962
56.9841
62.3535
66.3616
69.3235
71.492
73.0497
74.123
74.796
75.1205
49.9962
56.9841
62.3535
66.3616
69.3235
71.492
73.0497
74.123
74.796
75.1205
49.9963
56.9841
62.3535
66.3617
69.3236
71.4921
73.0498
74.1231
74.7961
75.1206
49.9964
56.9842
62.3537
66.3618
69.3237
71.4922
73.0499
74.1232
74.7963
75.1207
49.9965
56.9844
62.3538
66.362
69.3239
71.4924
73.0501
74.1234
74.7965
75.1209
49.9967
56.9846
62.354
66.3622
69.3241
71.4927
73.0504
74.1237
74.7968
75.1212
40.4359
45.6896
50.0302
53.4564
56.0881
58.065
59.5091
60.5148
61.1497
61.4568
40.4357
45.6894
50.03
53.4562
56.0879
58.0648
59.5089
60.5146
61.1495
61.4566
40.4356
45.6892
50.0298
53.456
56.0877
58.0646
59.5087
60.5144
61.1493
61.4565
40.4355
45.6891
50.0297
53.4559
56.0876
58.0645
59.5086
60.5143
61.1492
61.4564
40.4354
45.6891
50.0297
53.4559
56.0875
58.0645
59.5085
60.5143
61.1492
61.4563
40.4354
45.6891
50.0297
53.4559
56.0876
58.0645
59.5086
60.5143
61.1492
61.4564
40.4355
45.6891
50.0297
53.4559
56.0876
58.0646
59.5086
60.5144
61.1493
61.4565
40.4356
45.6892
50.0298
53.456
56.0877
58.0647
59.5088
60.5145
61.1494
61.4566
40.4357
45.6894
50.03
53.4562
56.0879
58.0649
59.509
60.5147
61.1496
61.4568
40.4359
45.6896
50.0302
53.4564
56.0882
58.0651
59.5092
60.515
61.1499
61.4571
32.7138
36.6443
40.0413
42.8379
45.0606
46.7743
48.0499
48.9502
49.5235
49.8022
32.7136
36.6441
40.0411
42.8377
45.0604
46.7741
48.0497
48.95
49.5233
49.802
32.7135
36.644
40.041
42.8375
45.0603
46.7739
48.0496
48.9499
49.5232
49.8019
32.7134
36.6439
40.0409
42.8374
45.0602
46.7738
48.0495
48.9498
49.5231
49.8018
32.7134
36.6439
40.0408
42.8374
45.0602
46.7738
48.0495
48.9498
49.5231
49.8018
32.7134
36.6439
40.0408
42.8374
45.0602
46.7738
48.0495
48.9498
49.5231
49.8018
32.7134
36.6439
40.0409
42.8375
45.0602
46.7739
48.0496
48.9499
49.5232
49.8019
32.7135
36.644
40.041
42.8376
45.0603
46.774
48.0497
48.95
49.5233
49.8021
32.7136
36.6442
40.0411
42.8377
45.0605
46.7742
48.0499
48.9502
49.5235
49.8022
32.7138
36.6443
40.0413
42.8379
45.0607
46.7744
48.0501
48.9504
49.5237
49.8025
26.4373
29.3511
31.9457
34.1516
35.9569
37.3829
38.4649
39.2393
39.7372
39.9806
26.4371
29.351
31.9455
34.1514
35.9567
37.3827
38.4647
39.2391
39.737
39.9805
26.437
29.3509
31.9454
34.1513
35.9566
37.3826
38.4646
39.239
39.7369
39.9803
26.437
29.3508
31.9453
34.1512
35.9565
37.3825
38.4645
39.2389
39.7368
39.9803
26.4369
29.3508
31.9453
34.1512
35.9565
37.3825
38.4644
39.2389
39.7368
39.9803
26.4369
29.3508
31.9453
34.1512
35.9565
37.3825
38.4645
39.2389
39.7368
39.9803
26.437
29.3508
31.9454
34.1513
35.9565
37.3826
38.4645
39.239
39.7369
39.9804
26.4371
29.3509
31.9455
34.1514
35.9566
37.3827
38.4646
39.2391
39.737
39.9805
26.4372
29.351
31.9456
34.1515
35.9568
37.3829
38.4648
39.2392
39.7372
39.9807
26.4373
29.3512
31.9458
34.1517
35.957
37.3831
38.465
39.2395
39.7374
39.9809
21.3687
23.4778
25.4029
27.087
28.5032
29.6484
30.5339
31.1768
31.5944
31.7998
21.3686
23.4777
25.4027
27.0869
28.5031
29.6482
30.5337
31.1767
31.5943
31.7997
21.3685
23.4776
25.4026
27.0867
28.5029
29.6481
30.5336
31.1766
31.5942
31.7996
21.3685
23.4775
25.4026
27.0867
28.5029
29.6481
30.5335
31.1765
31.5941
31.7995
21.3684
23.4775
25.4025
27.0866
28.5028
29.648
30.5335
31.1765
31.5941
31.7995
21.3684
23.4775
25.4025
27.0867
28.5029
29.648
30.5335
31.1765
31.5941
31.7996
21.3685
23.4775
25.4026
27.0867
28.5029
29.6481
30.5336
31.1766
31.5942
31.7996
21.3685
23.4776
25.4027
27.0868
28.503
29.6482
30.5337
31.1767
31.5943
31.7997
21.3687
23.4777
25.4028
27.0869
28.5031
29.6483
30.5338
31.1768
31.5945
31.7999
21.3688
23.4779
25.403
27.0871
28.5033
29.6485
30.534
31.177
31.5947
31.8001
17.3337
18.7744
20.1384
21.3753
22.4478
23.3371
24.0384
24.5554
24.8946
25.0625
17.3336
18.7742
20.1383
21.3752
22.4477
23.337
24.0383
24.5552