/*--------------------------------*- C++ -*----------------------------------*\
  =========                 |
  \\      /  F ield         | OpenFOAM: The Open Source CFD Toolbox
   \\    /   O peration     | Website:  https://openfoam.org
    \\  /    A nd           | Version:  6
     \\/     M anipulation  |
\*---------------------------------------------------------------------------*/
FoamFile
{
    version     2.0;
    format      ascii;
    class       volScalarField;
    location    "0.125";
    object      p;
}
// * * * * * * * * * * * * * * * * * * * * * * * * * * * * * * * * * * * * * //

dimensions      [0 2 -2 0 0 0 0];

internalField   nonuniform List<scalar> 
56000
(
0.00303953
0.0332602
0.0793581
0.130321
0.180991
0.233784
0.294069
0.36289
0.429088
0.467111
-0.00875724
0.0346562
0.0888904
0.141199
0.189376
0.237913
0.294462
0.363166
0.437961
0.495322
-0.0453253
0.0169548
0.0847162
0.144077
0.195734
0.246512
0.306709
0.383529
0.475048
0.556552
-0.0955586
-0.0161464
0.0668401
0.137539
0.19831
0.257804
0.328543
0.419736
0.531055
0.634423
-0.147618
-0.0544095
0.0426633
0.125624
0.197488
0.268129
0.351686
0.458492
0.588253
0.709132
-0.195339
-0.0919728
0.0167197
0.110983
0.193777
0.275643
0.371726
0.492813
0.637752
0.77147
-0.235562
-0.125243
-0.00772057
0.0959283
0.188229
0.279981
0.386867
0.519706
0.676145
0.818643
-0.266641
-0.151886
-0.0281621
0.0825565
0.182255
0.281764
0.397003
0.538623
0.703121
0.851242
-0.287724
-0.170401
-0.0427884
0.0725985
0.177293
0.282066
0.402917
0.550303
0.719853
0.871248
-0.298365
-0.179877
-0.0504014
0.0672947
0.174493
0.281914
0.40557
0.555797
0.727769
0.880658
-0.298365
-0.179877
-0.0504015
0.0672944
0.174492
0.281913
0.405569
0.555797
0.727768
0.880658
-0.287723
-0.1704
-0.0427885
0.0725976
0.177291
0.282065
0.402916
0.550301
0.719852
0.871246
-0.26664
-0.151885
-0.0281621
0.082555
0.182253
0.28176
0.396999
0.53862
0.703118
0.851239
-0.235559
-0.12524
-0.00772011
0.095926
0.188225
0.279976
0.386862
0.519701
0.67614
0.81864
-0.195331
-0.0919669
0.0167207
0.110979
0.193771
0.275636
0.371719
0.492806
0.637746
0.771465
-0.147602
-0.0543976
0.0426661
0.125619
0.197479
0.268119
0.351676
0.458484
0.588246
0.709126
-0.0955166
-0.0161166
0.0668503
0.137534
0.198298
0.257791
0.328531
0.419725
0.531045
0.634415
-0.0451603
0.0170403
0.0847478
0.144076
0.195721
0.246497
0.306695
0.383517
0.475037
0.556543
-0.00805239
0.0348912
0.0889621
0.141206
0.189363
0.237897
0.294447
0.363153
0.437948
0.495311
0.0072644
0.0339581
0.0795024
0.130334
0.180979
0.233767
0.294054
0.362876
0.429075
0.467099
-35.0416
-34.963
-34.8032
-34.5945
-34.3637
-34.1193
-33.8633
-33.6084
-33.397
-33.2973
-35.0697
-34.9567
-34.7805
-34.5736
-34.3555
-34.128
-33.8853
-33.6299
-33.3908
-33.2341
-35.1676
-35.0073
-34.7974
-34.5729
-34.3462
-34.1123
-33.8573
-33.5751
-33.2846
-33.0577
-35.3102
-35.1043
-34.8523
-34.5942
-34.338
-34.0741
-33.7828
-33.4532
-33.1016
-32.8109
-35.4614
-35.2172
-34.9241
-34.6272
-34.3334
-34.0299
-33.6936
-33.3115
-32.9019
-32.5592
-35.6009
-35.3277
-34.9992
-34.6652
-34.333
-33.9889
-33.6078
-33.1769
-32.7183
-32.337
-35.718
-35.4247
-35.0685
-34.7027
-34.3364
-33.9558
-33.5354
-33.0636
-32.5674
-32.1595
-35.8076
-35.5014
-35.1254
-34.735
-34.3417
-33.932
-33.4809
-32.9779
-32.455
-32.0301
-35.8677
-35.5542
-35.1654
-34.7586
-34.3468
-33.9172
-33.4451
-32.9215
-32.3816
-31.9469
-35.8978
-35.581
-35.1861
-34.7711
-34.3499
-33.9102
-33.4275
-32.8937
-32.3457
-31.9065
-35.8978
-35.581
-35.1861
-34.7711
-34.3499
-33.9102
-33.4275
-32.8937
-32.3457
-31.9065
-35.8677
-35.5542
-35.1654
-34.7586
-34.3468
-33.9172
-33.4451
-32.9215
-32.3816
-31.9469
-35.8076
-35.5014
-35.1254
-34.735
-34.3417
-33.932
-33.4809
-32.9779
-32.455
-32.0301
-35.718
-35.4247
-35.0685
-34.7027
-34.3364
-33.9558
-33.5354
-33.0636
-32.5674
-32.1595
-35.6009
-35.3277
-34.9992
-34.6652
-34.333
-33.9889
-33.6078
-33.1769
-32.7184
-32.337
-35.4614
-35.2172
-34.9241
-34.6272
-34.3334
-34.0299
-33.6936
-33.3116
-32.9019
-32.5592
-35.3101
-35.1043
-34.8523
-34.5942
-34.338
-34.0741
-33.7828
-33.4532
-33.1017
-32.8109
-35.1674
-35.0072
-34.7973
-34.5729
-34.3462
-34.1123
-33.8573
-33.5751
-33.2846
-33.0577
-35.0694
-34.9565
-34.7805
-34.5736
-34.3555
-34.1281
-33.8853
-33.6299
-33.3908
-33.2341
-35.0405
-34.9626
-34.8031
-34.5945
-34.3637
-34.1193
-33.8633
-33.6084
-33.397
-33.2973
-70.1132
-69.9663
-69.6801
-69.3187
-68.9278
-68.519
-68.0888
-67.6491
-67.2637
-67.0709
-70.1802
-69.9619
-69.6421
-69.283
-68.9147
-68.5357
-68.1278
-67.683
-67.2343
-66.9135
-70.3739
-70.0619
-69.6764
-69.2838
-68.8985
-68.506
-68.0726
-67.5728
-67.0152
-66.5443
-70.6466
-70.2454
-69.7795
-69.3239
-68.8837
-68.4345
-67.9313
-67.3382
-66.6553
-66.0506
-70.9317
-70.4559
-69.9119
-69.3845
-68.8748
-68.352
-67.7639
-67.0696
-66.2696
-65.5568
-71.1925
-70.6601
-70.0493
-69.4534
-68.8734
-68.2757
-67.6041
-66.8164
-65.919
-65.1258
-71.4101
-70.8382
-70.175
-69.5207
-68.8784
-68.2139
-67.4695
-66.6044
-65.6322
-64.7834
-71.5759
-70.9784
-70.2777
-69.5784
-68.8868
-68.1694
-67.3682
-66.4445
-65.4194
-64.5344
-71.6869
-71.0744
-70.3498
-69.6203
-68.8951
-68.1413
-67.3017
-66.3393
-65.2806
-64.3745
-71.7423
-71.1231
-70.3869
-69.6424
-68.9001
-68.128
-67.269
-66.2874
-65.2125
-64.2968
-71.7423
-71.1231
-70.3869
-69.6424
-68.9001
-68.128
-67.269
-66.2874
-65.2125
-64.2968
-71.6869
-71.0744
-70.3498
-69.6203
-68.8951
-68.1413
-67.3017
-66.3393
-65.2806
-64.3745
-71.5759
-70.9784
-70.2777
-69.5784
-68.8868
-68.1694
-67.3682
-66.4445
-65.4194
-64.5344
-71.4101
-70.8382
-70.175
-69.5207
-68.8784
-68.2139
-67.4695
-66.6044
-65.6322
-64.7834
-71.1925
-70.6601
-70.0493
-69.4534
-68.8734
-68.2757
-67.6041
-66.8165
-65.919
-65.1259
-70.9317
-70.4559
-69.9119
-69.3845
-68.8748
-68.352
-67.764
-67.0696
-66.2696
-65.5568
-70.6466
-70.2454
-69.7795
-69.3239
-68.8837
-68.4345
-67.9313
-67.3382
-66.6553
-66.0506
-70.3738
-70.0618
-69.6764
-69.2838
-68.8986
-68.506
-68.0727
-67.5728
-67.0152
-66.5444
-70.18
-69.9618
-69.642
-69.283
-68.9147
-68.5357
-68.1278
-67.683
-67.2343
-66.9135
-70.1129
-69.9661
-69.68
-69.3187
-68.9278
-68.519
-68.0888
-67.6491
-67.2638
-67.0709
-105.207
-104.962
-104.531
-104.031
-103.524
-103.011
-102.46
-101.856
-101.256
-100.918
-105.357
-104.972
-104.474
-103.972
-103.496
-103.025
-102.505
-101.881
-101.147
-100.543
-105.707
-105.15
-104.534
-103.974
-103.467
-102.969
-102.401
-101.676
-100.73
-99.8286
-106.175
-105.459
-104.705
-104.04
-103.444
-102.853
-102.168
-101.28
-100.1
-98.9406
-106.654
-105.807
-104.92
-104.14
-103.433
-102.726
-101.902
-100.842
-99.4501
-98.0846
-107.088
-106.141
-105.143
-104.253
-103.436
-102.612
-101.655
-100.44
-98.8736
-97.3554
-107.447
-106.43
-105.345
-104.363
-103.45
-102.522
-101.45
-100.109
-98.4104
-96.7855
-107.719
-106.657
-105.51
-104.457
-103.468
-102.459
-101.299
-99.8625
-98.0709
-96.3759
-107.901
-106.811
-105.625
-104.525
-103.485
-102.421
-101.201
-99.7019
-97.8514
-96.1146
-107.992
-106.89
-105.684
-104.561
-103.495
-102.403
-101.153
-99.6231
-97.7443
-95.988
-107.992
-106.89
-105.684
-104.561
-103.495
-102.403
-101.153
-99.6231
-97.7443
-95.988
-107.901
-106.811
-105.625
-104.525
-103.485
-102.421
-101.201
-99.7019
-97.8514
-96.1146
-107.719
-106.657
-105.51
-104.457
-103.468
-102.459
-101.299
-99.8625
-98.0709
-96.3759
-107.447
-106.43
-105.345
-104.363
-103.45
-102.522
-101.45
-100.109
-98.4104
-96.7855
-107.088
-106.141
-105.143
-104.253
-103.436
-102.612
-101.655
-100.44
-98.8736
-97.3554
-106.654
-105.807
-104.92
-104.14
-103.433
-102.726
-101.902
-100.842
-99.4501
-98.0846
-106.175
-105.459
-104.705
-104.04
-103.444
-102.853
-102.168
-101.28
-100.1
-98.9406
-105.707
-105.15
-104.534
-103.974
-103.467
-102.969
-102.401
-101.676
-100.73
-99.8286
-105.356
-104.972
-104.474
-103.972
-103.496
-103.025
-102.505
-101.881
-101.147
-100.543
-105.207
-104.962
-104.531
-104.031
-103.524
-103.011
-102.46
-101.856
-101.256
-100.919
-140.26
-139.876
-139.282
-138.683
-138.151
-137.66
-137.118
-136.43
-135.588
-135.045
-140.559
-139.92
-139.202
-138.588
-138.092
-137.653
-137.142
-136.403
-135.289
-134.212
-141.154
-140.219
-139.301
-138.589
-138.039
-137.551
-136.956
-136.036
-134.527
-132.888
-141.912
-140.709
-139.566
-138.692
-138.006
-137.377
-136.597
-135.409
-133.483
-131.368
-142.672
-141.251
-139.897
-138.849
-138
-137.198
-136.209
-134.747
-132.453
-129.963
-143.351
-141.764
-140.236
-139.026
-138.018
-137.046
-135.86
-134.158
-131.569
-128.802
-143.91
-142.207
-140.544
-139.198
-138.053
-136.934
-135.581
-133.685
-130.874
-127.913
-144.333
-142.553
-140.793
-139.345
-138.093
-136.86
-135.379
-133.34
-130.374
-127.283
-144.615
-142.788
-140.968
-139.451
-138.127
-136.816
-135.251
-133.119
-130.055
-126.886
-144.756
-142.907
-141.057
-139.507
-138.146
-136.797
-135.19
-133.011
-129.9
-126.695
-144.756
-142.907
-141.058
-139.507
-138.146
-136.797
-135.19
-133.011
-129.9
-126.695
-144.615
-142.788
-140.968
-139.451
-138.127
-136.816
-135.251
-133.119
-130.055
-126.886
-144.333
-142.553
-140.793
-139.345
-138.093
-136.86
-135.379
-133.34
-130.374
-127.283
-143.91
-142.207
-140.544
-139.198
-138.053
-136.934
-135.581
-133.685
-130.874
-127.913
-143.351
-141.764
-140.236
-139.026
-138.018
-137.046
-135.86
-134.158
-131.569
-128.802
-142.672
-141.251
-139.897
-138.849
-138
-137.198
-136.209
-134.747
-132.453
-129.963
-141.912
-140.709
-139.566
-138.692
-138.006
-137.377
-136.597
-135.409
-133.483
-131.368
-141.154
-140.219
-139.301
-138.589
-138.039
-137.551
-136.956
-136.036
-134.527
-132.889
-140.559
-139.92
-139.202
-138.588
-138.092
-137.653
-137.142
-136.403
-135.289
-134.212
-140.26
-139.876
-139.282
-138.684
-138.151
-137.66
-137.118
-136.43
-135.588
-135.045
-175.112
-174.541
-173.779
-173.164
-172.777
-172.55
-172.294
-171.754
-170.737
-169.974
-175.65
-174.646
-173.668
-173.014
-172.662
-172.489
-172.251
-171.592
-170.044
-168.261
-176.608
-175.12
-173.821
-173.011
-172.57
-172.314
-171.932
-170.967
-168.711
-165.912
-177.778
-175.863
-174.217
-173.167
-172.53
-172.068
-171.411
-170.023
-167.055
-163.415
-178.928
-176.669
-174.705
-173.405
-172.54
-171.838
-170.882
-169.081
-165.502
-161.212
-179.945
-177.427
-175.202
-173.673
-172.591
-171.66
-170.43
-168.274
-164.216
-159.448
-180.779
-178.076
-175.651
-173.934
-172.667
-171.54
-170.083
-167.648
-163.234
-158.129
-181.408
-178.582
-176.015
-174.156
-172.747
-171.469
-169.841
-167.203
-162.542
-157.212
-181.827
-178.926
-176.269
-174.317
-172.812
-171.433
-169.692
-166.923
-162.107
-156.638
-182.036
-179.1
-176.399
-174.401
-172.848
-171.419
-169.622
-166.788
-161.898
-156.364
-182.036
-179.1
-176.399
-174.401
-172.848
-171.419
-169.622
-166.788
-161.898
-156.364
-181.827
-178.926
-176.269
-174.317
-172.812
-171.433
-169.692
-166.923
-162.107
-156.638
-181.408
-178.582
-176.015
-174.156
-172.747
-171.469
-169.841
-167.203
-162.542
-157.212
-180.779
-178.076
-175.651
-173.934
-172.667
-171.54
-170.083
-167.648
-163.234
-158.129
-179.945
-177.427
-175.202
-173.673
-172.591
-171.66
-170.43
-168.274
-164.216
-159.448
-178.928
-176.669
-174.705
-173.405
-172.54
-171.838
-170.882
-169.081
-165.502
-161.212
-177.778
-175.863
-174.217
-173.167
-172.53
-172.068
-171.411
-170.023
-167.055
-163.415
-176.608
-175.12
-173.821
-173.011
-172.57
-172.314
-171.932
-170.967
-168.711
-165.912
-175.65
-174.646
-173.668
-173.014
-172.662
-172.489
-172.251
-171.592
-170.044
-168.261
-175.112
-174.541
-173.779
-173.164
-172.777
-172.55
-172.294
-171.754
-170.737
-169.974
-209.457
-208.651
-207.738
-207.254
-207.3
-207.766
-208.333
-208.493
-207.664
-206.94
-210.346
-208.849
-207.59
-207.026
-207.093
-207.599
-208.145
-208.051
-206.229
-203.676
-211.805
-209.563
-207.816
-207.018
-206.946
-207.319
-207.636
-207.05
-204.027
-199.764
-213.527
-210.642
-208.382
-207.248
-206.907
-207
-206.933
-205.721
-201.545
-195.903
-215.194
-211.794
-209.077
-207.598
-206.958
-206.738
-206.272
-204.474
-199.342
-192.651
-216.657
-212.869
-209.779
-207.994
-207.074
-206.563
-205.743
-203.458
-197.592
-190.135
-217.851
-213.785
-210.412
-208.377
-207.223
-206.469
-205.363
-202.702
-196.299
-188.302
-218.75
-214.497
-210.924
-208.703
-207.37
-206.431
-205.113
-202.184
-195.41
-187.05
-219.348
-214.981
-211.281
-208.938
-207.486
-206.425
-204.968
-201.867
-194.861
-186.279
-219.647
-215.226
-211.464
-209.061
-207.55
-206.428
-204.903
-201.718
-194.601
-185.913
-219.647
-215.226
-211.464
-209.061
-207.55
-206.428
-204.903
-201.718
-194.601
-185.913
-219.348
-214.981
-211.281
-208.938
-207.486
-206.425
-204.968
-201.867
-194.861
-186.279
-218.75
-214.497
-210.924
-208.703
-207.37
-206.431
-205.113
-202.184
-195.41
-187.05
-217.851
-213.785
-210.412
-208.377
-207.223
-206.469
-205.363
-202.702
-196.299
-188.302
-216.657
-212.869
-209.779
-207.994
-207.074
-206.563
-205.743
-203.458
-197.592
-190.135
-215.194
-211.794
-209.077
-207.598
-206.958
-206.738
-206.272
-204.474
-199.342
-192.651
-213.527
-210.642
-208.382
-207.248
-206.908
-207
-206.933
-205.721
-201.545
-195.903
-211.805
-209.563
-207.816
-207.018
-206.946
-207.319
-207.636
-207.05
-204.027
-199.764
-210.346
-208.849
-207.59
-207.026
-207.093
-207.599
-208.145
-208.051
-206.229
-203.676
-209.457
-208.651
-207.738
-207.254
-207.3
-207.766
-208.333
-208.493
-207.664
-206.94
-242.79
-241.71
-240.701
-240.57
-241.477
-243.305
-245.62
-247.573
-247.864
-247.754
-244.152
-242.04
-240.508
-240.237
-241.132
-242.961
-245.169
-246.616
-244.994
-241.337
-246.254
-243.059
-240.827
-240.223
-240.917
-242.547
-244.415
-245.107
-241.486
-234.922
-248.671
-244.556
-241.608
-240.555
-240.904
-242.181
-243.555
-243.38
-237.971
-229.161
-250.983
-246.136
-242.559
-241.059
-241.037
-241.94
-242.83
-241.886
-235.05
-224.56
-253
-247.601
-243.518
-241.625
-241.266
-241.831
-242.307
-240.75
-232.843
-221.141
-254.64
-248.846
-244.379
-242.171
-241.534
-241.823
-241.974
-239.956
-231.28
-218.726
-255.874
-249.811
-245.074
-242.634
-241.787
-241.87
-241.784
-239.444
-230.242
-217.112
-256.694
-250.467
-245.558
-242.967
-241.981
-241.929
-241.691
-239.146
-229.617
-216.133
-257.104
-250.798
-245.807
-243.141
-242.087
-241.967
-241.654
-239.011
-229.326
-215.673
-257.104
-250.798
-245.807
-243.141
-242.087
-241.967
-241.654
-239.011
-229.326
-215.673
-256.694
-250.467
-245.558
-242.967
-241.981
-241.929
-241.691
-239.146
-229.617
-216.133
-255.874
-249.811
-245.074
-242.634
-241.787
-241.87
-241.784
-239.444
-230.242
-217.112
-254.64
-248.846
-244.379
-242.171
-241.534
-241.823
-241.974
-239.956
-231.28
-218.726
-253
-247.601
-243.518
-241.625
-241.266
-241.831
-242.307
-240.75
-232.843
-221.141
-250.983
-246.136
-242.559
-241.059
-241.037
-241.94
-242.83
-241.886
-235.05
-224.56
-248.671
-244.556
-241.608
-240.555
-240.904
-242.181
-243.555
-243.38
-237.971
-229.161
-246.254
-243.059
-240.827
-240.223
-240.917
-242.547
-244.415
-245.107
-241.486
-234.922
-244.152
-242.04
-240.508
-240.237
-241.132
-242.961
-245.169
-246.616
-244.994
-241.337
-242.79
-241.71
-240.701
-240.57
-241.477
-243.305
-245.62
-247.574
-247.864
-247.754
-274.37
-272.998
-271.979
-272.482
-274.794
-278.907
-284.399
-290.173
-293.749
-293.002
-276.308
-273.491
-271.737
-272.02
-274.267
-278.303
-283.534
-288.374
-288.048
-277.346
-279.172
-274.873
-272.167
-272.004
-273.979
-277.736
-282.476
-286.165
-282.368
-264.51
-282.401
-276.855
-273.202
-272.472
-274.034
-277.388
-281.551
-284.133
-277.605
-254.747
-285.464
-278.931
-274.457
-273.174
-274.312
-277.266
-280.912
-282.595
-274.019
-247.558
-288.123
-280.847
-275.716
-273.958
-274.718
-277.325
-280.554
-281.56
-271.5
-242.459
-290.281
-282.47
-276.845
-274.71
-275.164
-277.493
-280.409
-280.929
-269.822
-238.964
-291.903
-283.727
-277.754
-275.344
-275.57
-277.697
-280.39
-280.579
-268.765
-236.672
-292.982
-284.58
-278.388
-275.798
-275.875
-277.87
-280.423
-280.407
-268.156
-235.295
-293.519
-285.011
-278.712
-276.034
-276.038
-277.968
-280.453
-280.339
-267.88
-234.651
-293.519
-285.011
-278.712
-276.034
-276.038
-277.968
-280.453
-280.339
-267.88
-234.651
-292.982
-284.58
-278.388
-275.798
-275.875
-277.87
-280.423
-280.407
-268.156
-235.295
-291.903
-283.727
-277.754
-275.344
-275.57
-277.697
-280.39
-280.579
-268.765
-236.672
-290.281
-282.47
-276.845
-274.71
-275.164
-277.493
-280.409
-280.929
-269.822
-238.964
-288.123
-280.847
-275.716
-273.958
-274.718
-277.325
-280.554
-281.56
-271.5
-242.459
-285.464
-278.931
-274.457
-273.174
-274.312
-277.266
-280.912
-282.595
-274.019
-247.558
-282.401
-276.855
-273.202
-272.472
-274.034
-277.388
-281.551
-284.133
-277.605
-254.747
-279.172
-274.873
-272.167
-272.004
-273.979
-277.736
-282.476
-286.165
-282.369
-264.51
-276.308
-273.491
-271.737
-272.02
-274.267
-278.303
-283.534
-288.374
-288.048
-277.346
-274.37
-272.998
-271.979
-272.482
-274.794
-278.907
-284.399
-290.173
-293.749
-293.002
-303.211
-301.561
-300.637
-302.049
-306.362
-313.979
-325.098
-339.673
-356.409
-363.498
-305.779
-302.237
-300.347
-301.456
-305.656
-313.147
-323.961
-337.638
-349.916
-338.134
-309.462
-304.009
-300.907
-301.466
-305.355
-312.572
-322.955
-335.699
-344.773
-320.466
-313.559
-306.513
-302.226
-302.115
-305.573
-312.453
-322.445
-334.524
-341.629
-309.608
-317.423
-309.118
-303.815
-303.066
-306.094
-312.66
-322.355
-334.003
-339.849
-302.591
-320.769
-311.516
-305.404
-304.113
-306.767
-313.071
-322.554
-333.94
-338.972
-298.045
-323.482
-313.544
-306.826
-305.109
-307.463
-313.565
-322.903
-334.136
-338.646
-295.152
-325.52
-315.113
-307.969
-305.943
-308.076
-314.033
-323.278
-334.426
-338.605
-293.368
-326.876
-316.178
-308.765
-306.538
-308.528
-314.392
-323.582
-334.685
-338.67
-292.348
-327.552
-316.715
-309.171
-306.846
-308.766
-314.585
-323.75
-334.834
-338.729
-291.886
-327.552
-316.715
-309.171
-306.846
-308.766
-314.585
-323.75
-334.834
-338.729
-291.886
-326.876
-316.178
-308.765
-306.538
-308.528
-314.392
-323.582
-334.685
-338.67
-292.348
-325.52
-315.113
-307.969
-305.943
-308.076
-314.033
-323.278
-334.426
-338.606
-293.368
-323.482
-313.544
-306.826
-305.109
-307.463
-313.565
-322.903
-334.136
-338.646
-295.152
-320.769
-311.516
-305.404
-304.113
-306.767
-313.071
-322.554
-333.94
-338.972
-298.045
-317.423
-309.118
-303.815
-303.066
-306.094
-312.66
-322.355
-334.003
-339.849
-302.592
-313.559
-306.513
-302.226
-302.115
-305.573
-312.453
-322.445
-334.524
-341.629
-309.608
-309.462
-304.009
-300.907
-301.466
-305.355
-312.572
-322.955
-335.699
-344.773
-320.466
-305.779
-302.237
-300.347
-301.456
-305.656
-313.147
-323.961
-337.638
-349.916
-338.134
-303.211
-301.561
-300.637
-302.049
-306.362
-313.979
-325.099
-339.673
-356.409
-363.498
-328.158
-326.264
-325.474
-327.863
-334.403
-346.287
-365.326
-394.688
-439.92
-513.084
-331.32
-327.114
-325.15
-327.18
-333.627
-345.533
-364.731
-394.611
-441.51
-520.515
-335.781
-329.264
-325.853
-327.269
-333.462
-345.367
-364.905
-395.911
-445.765
-530.664
-340.706
-332.27
-327.46
-328.14
-333.966
-345.815
-365.716
-397.908
-450.719
-541.609
-345.338
-335.386
-329.383
-329.367
-334.823
-346.611
-366.858
-400.133
-455.524
-551.658
-349.347
-338.25
-331.301
-330.697
-335.83
-347.566
-368.121
-402.322
-459.831
-560.195
-352.597
-340.671
-333.012
-331.949
-336.825
-348.521
-369.332
-404.275
-463.431
-567.026
-355.04
-342.543
-334.386
-332.99
-337.677
-349.348
-370.353
-405.847
-466.201
-572.11
-356.665
-343.813
-335.34
-333.73
-338.294
-349.95
-371.086
-406.943
-468.073
-575.469
-357.476
-344.453
-335.828
-334.113
-338.617
-350.266
-371.467
-407.504
-469.016
-577.138
-357.476
-344.453
-335.828
-334.113
-338.617
-350.266
-371.467
-407.504
-469.016
-577.138
-356.665
-343.813
-335.34
-333.73
-338.294
-349.95
-371.086
-406.943
-468.073
-575.469
-355.04
-342.543
-334.386
-332.99
-337.677
-349.348
-370.353
-405.847
-466.201
-572.11
-352.597
-340.671
-333.012
-331.949
-336.825
-348.521
-369.332
-404.275
-463.431
-567.026
-349.347
-338.25
-331.301
-330.697
-335.83
-347.566
-368.121
-402.322
-459.831
-560.195
-345.338
-335.386
-329.383
-329.367
-334.823
-346.611
-366.858
-400.133
-455.524
-551.658
-340.706
-332.27
-327.461
-328.14
-333.966
-345.815
-365.717
-397.908
-450.719
-541.609
-335.781
-329.264
-325.853
-327.269
-333.463
-345.367
-364.905
-395.911
-445.765
-530.664
-331.32
-327.114
-325.15
-327.18
-333.627
-345.533
-364.731
-394.611
-441.51
-520.515
-328.158
-326.264
-325.474
-327.863
-334.403
-346.287
-365.326
-394.688
-439.92
-513.084
-348.071
-345.947
-345.132
-347.976
-355.559
-369.147
-390.425
-421.767
-466.372
-529.346
-351.686
-346.923
-344.761
-347.176
-354.609
-368.132
-389.376
-420.769
-465.934
-530.999
-356.766
-349.367
-345.556
-347.264
-354.379
-367.816
-389.193
-421.076
-467.432
-534.736
-362.367
-352.779
-347.382
-348.26
-354.957
-368.303
-389.948
-422.636
-470.714
-541.141
-367.638
-356.318
-349.567
-349.668
-355.958
-369.227
-391.178
-424.715
-474.521
-548.003
-372.205
-359.571
-351.746
-351.195
-357.134
-370.347
-392.591
-426.903
-478.222
-554.307
-375.912
-362.321
-353.691
-352.63
-358.291
-371.467
-393.963
-428.92
-481.464
-559.603
-378.701
-364.45
-355.252
-353.822
-359.28
-372.434
-395.127
-430.574
-484.029
-563.672
-380.558
-365.895
-356.336
-354.668
-359.995
-373.138
-395.964
-431.738
-485.794
-566.415
-381.484
-366.623
-356.891
-355.106
-360.369
-373.506
-396.4
-432.337
-486.69
-567.794
-381.484
-366.623
-356.891
-355.106
-360.369
-373.506
-396.4
-432.337
-486.69
-567.794
-380.558
-365.895
-356.336
-354.668
-359.995
-373.138
-395.964
-431.738
-485.794
-566.415
-378.701
-364.45
-355.252
-353.822
-359.28
-372.434
-395.127
-430.574
-484.029
-563.672
-375.912
-362.321
-353.691
-352.63
-358.291
-371.467
-393.963
-428.92
-481.464
-559.603
-372.205
-359.571
-351.746
-351.195
-357.134
-370.347
-392.591
-426.903
-478.222
-554.307
-367.638
-356.318
-349.567
-349.669
-355.958
-369.227
-391.178
-424.715
-474.521
-548.003
-362.367
-352.779
-347.382
-348.26
-354.958
-368.303
-389.948
-422.636
-470.714
-541.141
-356.766
-349.367
-345.556
-347.264
-354.379
-367.816
-389.193
-421.076
-467.432
-534.736
-351.687
-346.923
-344.761
-347.176
-354.609
-368.132
-389.376
-420.769
-465.934
-530.999
-348.071
-345.947
-345.132
-347.976
-355.559
-369.147
-390.425
-421.767
-466.372
-529.346
-362.167
-359.864
-358.89
-361.706
-369.35
-382.923
-403.669
-432.996
-472.251
-522.601
-366.041
-360.903
-358.479
-360.824
-368.291
-381.763
-402.407
-431.633
-470.921
-521.539
-371.512
-363.535
-359.33
-360.902
-368.001
-381.325
-401.986
-431.426
-471.227
-522.684
-377.569
-367.223
-361.301
-361.969
-368.593
-381.759
-402.563
-432.508
-473.304
-526.316
-383.286
-371.057
-363.665
-363.486
-369.647
-382.673
-403.666
-434.192
-476.07
-530.731
-388.252
-374.588
-366.025
-365.131
-370.893
-383.808
-404.995
-436.075
-478.946
-535.081
-392.292
-377.579
-368.134
-366.68
-372.124
-384.957
-406.319
-437.871
-481.571
-538.908
-395.336
-379.896
-369.828
-367.968
-373.179
-385.956
-407.457
-439.375
-483.703
-541.941
-397.365
-381.469
-371.005
-368.882
-373.942
-386.684
-408.282
-440.447
-485.195
-544.028
-398.379
-382.263
-371.607
-369.355
-374.341
-387.067
-408.713
-441.003
-485.96
-545.088
-398.379
-382.263
-371.607
-369.355
-374.341
-387.067
-408.713
-441.003
-485.96
-545.088
-397.365
-381.469
-371.005
-368.882
-373.942
-386.684
-408.282
-440.447
-485.195
-544.028
-395.336
-379.896
-369.828
-367.968
-373.179
-385.956
-407.457
-439.375
-483.703
-541.941
-392.292
-377.579
-368.134
-366.68
-372.124
-384.957
-406.319
-437.871
-481.571
-538.908
-388.252
-374.588
-366.025
-365.131
-370.893
-383.808
-404.995
-436.075
-478.946
-535.081
-383.286
-371.057
-363.665
-363.486
-369.647
-382.673
-403.666
-434.192
-476.07
-530.731
-377.569
-367.223
-361.301
-361.969
-368.593
-381.759
-402.563
-432.508
-473.304
-526.316
-371.512
-363.536
-359.33
-360.902
-368.001
-381.325
-401.986
-431.426
-471.227
-522.684
-366.041
-360.903
-358.479
-360.824
-368.291
-381.763
-402.407
-431.633
-470.921
-521.539
-362.167
-359.864
-358.89
-361.706
-369.35
-382.923
-403.669
-432.996
-472.251
-522.601
-370.089
-367.683
-366.482
-368.923
-375.942
-388.412
-407.145
-432.828
-465.758
-505.486
-374.016
-368.723
-366.042
-368
-374.838
-387.204
-405.829
-431.377
-464.2
-503.888
-379.633
-371.427
-366.913
-368.067
-374.51
-386.692
-405.266
-430.889
-463.954
-504.06
-385.897
-375.245
-368.952
-369.159
-375.083
-387.043
-405.645
-431.55
-465.19
-506.15
-391.841
-379.233
-371.407
-370.719
-376.129
-387.878
-406.544
-432.8
-467.098
-509
-397.024
-382.916
-373.864
-372.416
-377.378
-388.947
-407.692
-434.293
-469.216
-511.986
-401.253
-386.043
-376.062
-374.015
-378.617
-390.045
-408.868
-435.771
-471.227
-514.723
-404.447
-388.47
-377.829
-375.345
-379.681
-391.007
-409.895
-437.037
-472.903
-516.951
-406.579
-390.119
-379.058
-376.29
-380.452
-391.713
-410.648
-437.951
-474.095
-518.512
-407.645
-390.952
-379.686
-376.779
-380.856
-392.085
-411.044
-438.429
-474.712
-519.313
-407.645
-390.952
-379.686
-376.779
-380.856
-392.085
-411.044
-438.429
-474.712
-519.313
-406.579
-390.119
-379.058
-376.29
-380.452
-391.713
-410.648
-437.951
-474.095
-518.512
-404.447
-388.47
-377.829
-375.345
-379.681
-391.007
-409.895
-437.037
-472.903
-516.951
-401.253
-386.043
-376.062
-374.015
-378.617
-390.045
-408.868
-435.771
-471.227
-514.723
-397.024
-382.916
-373.864
-372.416
-377.378
-388.947
-407.692
-434.293
-469.216
-511.986
-391.841
-379.233
-371.407
-370.719
-376.129
-387.878
-406.544
-432.8
-467.098
-509
-385.897
-375.245
-368.952
-369.159
-375.083
-387.043
-405.645
-431.55
-465.19
-506.15
-379.633
-371.427
-366.913
-368.067
-374.51
-386.692
-405.266
-430.889
-463.954
-504.06
-374.016
-368.723
-366.042
-368
-374.838
-387.205
-405.829
-431.377
-464.2
-503.888
-370.089
-367.683
-366.482
-368.923
-375.942
-388.412
-407.146
-432.828
-465.758
-505.486
-371.868
-369.445
-368.016
-369.896
-375.905
-386.709
-402.785
-424.349
-451.166
-482.258
-375.673
-370.434
-367.558
-368.969
-374.812
-385.531
-401.522
-422.973
-449.672
-480.681
-381.209
-373.103
-368.417
-369.027
-374.47
-384.991
-400.897
-422.346
-449.134
-480.332
-387.447
-376.914
-370.456
-370.108
-375.008
-385.26
-401.106
-422.675
-449.759
-481.4
-393.405
-380.917
-372.919
-371.659
-376.012
-385.994
-401.799
-423.536
-450.98
-483.129
-398.626
-384.63
-375.391
-373.349
-377.219
-386.96
-402.742
-424.651
-452.45
-485.084
-402.902
-387.791
-377.607
-374.945
-378.421
-387.967
-403.736
-425.803
-453.909
-486.957
-406.14
-390.25
-379.392
-376.273
-379.456
-388.857
-404.62
-426.813
-455.161
-488.529
-408.305
-391.924
-380.634
-377.218
-380.207
-389.513
-405.275
-427.555
-456.067
-489.65
-409.388
-392.769
-381.27
-377.708
-380.601
-389.859
-405.621
-427.945
-456.541
-490.232
-409.388
-392.769
-381.27
-377.708
-380.601
-389.859
-405.621
-427.945
-456.541
-490.232
-408.305
-391.924
-380.634
-377.218
-380.207
-389.513
-405.275
-427.555
-456.067
-489.65
-406.14
-390.25
-379.392
-376.273
-379.456
-388.857
-404.62
-426.813
-455.161
-488.529
-402.902
-387.791
-377.607
-374.945
-378.421
-387.967
-403.736
-425.803
-453.909
-486.957
-398.626
-384.63
-375.391
-373.349
-377.219
-386.96
-402.742
-424.651
-452.45
-485.084
-393.405
-380.917
-372.919
-371.659
-376.012
-385.994
-401.8
-423.536
-450.98
-483.129
-387.447
-376.914
-370.456
-370.108
-375.008
-385.26
-401.106
-422.676
-449.759
-481.4
-381.209
-373.103
-368.417
-369.027
-374.47
-384.991
-400.897
-422.346
-449.134
-480.332
-375.673
-370.434
-367.558
-368.969
-374.812
-385.531
-401.522
-422.973
-449.672
-480.681
-371.868
-369.445
-368.016
-369.896
-375.906
-386.709
-402.785
-424.349
-451.166
-482.258
-367.835
-365.476
-363.865
-365.134
-370.001
-378.967
-392.292
-409.935
-431.446
-455.809
-371.386
-366.377
-363.402
-364.234
-368.957
-377.867
-391.144
-408.715
-430.141
-454.431
-376.661
-368.926
-364.224
-364.285
-368.623
-377.339
-390.523
-408.062
-429.508
-453.872
-382.677
-372.613
-366.201
-365.329
-369.122
-377.547
-390.616
-408.176
-429.752
-454.328
-388.467
-376.512
-368.604
-366.83
-370.066
-378.183
-391.139
-408.742
-430.491
-455.322
-393.569
-380.146
-371.022
-368.47
-371.205
-379.04
-391.897
-409.552
-431.474
-456.556
-397.766
-383.251
-373.195
-370.02
-372.343
-379.943
-392.719
-410.424
-432.501
-457.801
-400.953
-385.672
-374.948
-371.312
-373.325
-380.747
-393.462
-411.209
-433.409
-458.88
-403.089
-387.323
-376.17
-372.232
-374.039
-381.341
-394.017
-411.794
-434.078
-459.665
-404.159
-388.158
-376.795
-372.709
-374.413
-381.656
-394.313
-412.104
-434.431
-460.076
-404.159
-388.158
-376.795
-372.709
-374.413
-381.656
-394.313
-412.104
-434.431
-460.076
-403.089
-387.323
-376.17
-372.232
-374.039
-381.341
-394.017
-411.794
-434.078
-459.665
-400.953
-385.672
-374.948
-371.312
-373.325
-380.747
-393.462
-411.209
-433.409
-458.88
-397.766
-383.251
-373.195
-370.02
-372.343
-379.943
-392.719
-410.424
-432.501
-457.801
-393.569
-380.146
-371.022
-368.47
-371.205
-379.04
-391.897
-409.552
-431.474
-456.556
-388.467
-376.512
-368.604
-366.83
-370.066
-378.183
-391.139
-408.742
-430.491
-455.322
-382.677
-372.613
-366.201
-365.329
-369.123
-377.547
-390.616
-408.176
-429.753
-454.328
-376.661
-368.926
-364.224
-364.285
-368.623
-377.339
-390.523
-408.062
-429.508
-453.872
-371.386
-366.377
-363.402
-364.234
-368.957
-377.867
-391.144
-408.715
-430.141
-454.432
-367.835
-365.476
-363.865
-365.134
-370.001
-378.967
-392.292
-409.935
-431.446
-455.809
-358.509
-356.28
-354.558
-355.26
-359.016
-366.216
-376.993
-391.191
-408.324
-427.505
-361.726
-357.073
-354.101
-354.407
-358.046
-365.219
-375.983
-390.153
-407.241
-426.381
-366.615
-359.441
-354.866
-354.453
-357.733
-364.728
-375.406
-389.54
-406.626
-425.794
-372.261
-362.915
-356.738
-355.439
-358.195
-364.894
-375.431
-389.53
-406.659
-425.921
-377.742
-366.617
-359.024
-356.861
-359.07
-365.446
-375.827
-389.896
-407.086
-426.465
-382.602
-370.085
-361.334
-358.418
-360.128
-366.201
-376.436
-390.478
-407.732
-427.227
-386.617
-373.061
-363.415
-359.892
-361.187
-367.003
-377.111
-391.133
-408.445
-428.041
-389.678
-375.387
-365.097
-361.123
-362.102
-367.719
-377.73
-391.737
-409.094
-428.77
-391.733
-376.976
-366.271
-361.999
-362.768
-368.252
-378.196
-392.193
-409.581