/*--------------------------------*- C++ -*----------------------------------*\
  =========                 |
  \\      /  F ield         | OpenFOAM: The Open Source CFD Toolbox
   \\    /   O peration     | Website:  https://openfoam.org
    \\  /    A nd           | Version:  6
     \\/     M anipulation  |
\*---------------------------------------------------------------------------*/
FoamFile
{
    version     2.0;
    format      ascii;
    class       surfaceScalarField;
    location    "0.125";
    object      phi;
}
// * * * * * * * * * * * * * * * * * * * * * * * * * * * * * * * * * * * * * //

dimensions      [0 3 -1 0 0 0 0];

internalField   nonuniform List<scalar> 
162400
(
-2.99023e-10
1.46151e-09
5.50819e-06
7.37088e-10
2.35976e-09
1.14805e-05
2.7867e-09
2.17066e-09
1.5098e-05
4.78333e-09
1.52259e-09
1.72373e-05
5.59957e-09
6.52127e-10
1.82349e-05
4.6917e-09
-3.74619e-10
1.82156e-05
2.46198e-09
-1.5228e-09
1.71812e-05
1.97312e-10
-2.63979e-09
1.50131e-05
-6.29324e-10
-3.27497e-09
1.13869e-05
-2.31717e-09
5.44775e-06
8.4017e-10
3.5885e-09
1.15381e-05
5.15399e-09
6.18607e-09
2.67755e-05
1.17722e-08
6.08886e-09
3.67671e-05
1.78072e-08
4.60685e-09
4.28672e-05
2.04266e-08
2.35964e-09
4.57538e-05
1.82155e-08
-3.81048e-10
4.57122e-05
1.20127e-08
-3.39938e-09
4.27474e-05
4.83168e-09
-6.17474e-09
3.65884e-05
4.0699e-10
-7.48824e-09
2.65846e-05
-4.92866e-09
1.14255e-05
2.08952e-09
5.21889e-09
1.53742e-05
9.73692e-09
9.57924e-09
3.73004e-05
2.06028e-08
9.952e-09
5.23316e-05
3.02568e-08
8.0076e-09
6.17318e-05
3.4505e-08
4.69165e-09
6.62356e-05
3.12307e-08
5.18284e-10
6.61785e-05
2.15591e-08
-4.05431e-09
6.15675e-05
9.82029e-09
-8.13369e-09
5.20876e-05
1.68745e-09
-9.91709e-09
3.70428e-05
-6.34393e-09
1.52264e-05
3.03023e-09
6.08562e-09
1.79921e-05
1.33157e-08
1.17513e-08
4.47036e-05
2.75619e-08
1.27695e-08
6.35349e-05
4.0079e-08
1.08391e-08
7.55198e-05
4.55857e-08
7.07576e-09
8.13172e-05
4.14201e-08
2.1753e-09
8.12458e-05
2.8956e-08
-3.21156e-09
7.53146e-05
1.36014e-08
-7.96527e-09
6.32315e-05
2.60635e-09
-1.00495e-08
4.4385e-05
-6.38154e-09
1.78112e-05
3.58853e-09
6.21321e-09
1.983e-05
1.56758e-08
1.24938e-08
4.99637e-05
3.23329e-08
1.40885e-08
7.15913e-05
4.69124e-08
1.25133e-08
8.55242e-05
5.32962e-08
8.8912e-09
9.23101e-05
4.8419e-08
3.99242e-09
9.22243e-05
3.38804e-08
-1.44762e-09
8.52782e-05
1.59502e-08
-6.26574e-09
7.1229e-05
3.0683e-09
-8.50696e-09
4.95852e-05
-5.47024e-09
1.96165e-05
3.84193e-09
5.71703e-09
2.1128e-05
1.70176e-08
1.18646e-08
5.36967e-05
3.52438e-08
1.37803e-08
7.73442e-05
5.11961e-08
1.26964e-08
9.27043e-05
5.81438e-08
9.6176e-09
0.00010022
5.2736e-08
5.27894e-09
0.00010012
3.67657e-08
3.88091e-10
9.24189e-05
1.71591e-08
-4.00204e-09
7.69257e-05
3.1935e-09
-6.2249e-09
5.32618e-05
-4.14011e-09
2.08843e-05
3.9027e-09
4.72506e-09
2.2034e-05
1.76582e-08
1.00387e-08
5.63076e-05
3.68238e-08
1.19236e-08
8.13803e-05
5.36278e-08
1.12967e-08
9.7755e-05
6.09137e-08
8.9613e-09
0.000105791
5.51368e-08
5.53132e-09
0.000105679
3.82432e-08
1.59835e-09
9.74343e-05
1.76307e-08
-1.99565e-09
8.09119e-05
3.12978e-09
-3.97625e-09
5.58234e-05
-2.79664e-09
2.17644e-05
3.86938e-09
3.36027e-09
2.26438e-05
1.78906e-08
7.25503e-09
5.80665e-05
3.75736e-08
8.75277e-09
8.41034e-05
5.48705e-08
8.4556e-09
0.000101167
6.23461e-08
6.91805e-09
0.000109557
5.63309e-08
4.57562e-09
0.000109435
3.88811e-08
1.84714e-09
0.000100818
1.77116e-08
-6.8942e-10
8.35951e-05
2.99573e-09
-2.18597e-09
5.75433e-05
-1.65425e-09
2.2354e-05
3.81231e-09
1.74378e-09
2.30196e-05
1.79331e-08
3.80052e-09
5.91506e-05
3.78734e-08
4.62734e-09
8.57829e-05
5.54306e-08
4.5217e-09
0.000103273
6.3004e-08
3.76555e-09
0.000111882
5.68499e-08
2.58363e-09
0.000111752
3.90947e-08
1.19156e-09
0.000102904
1.76457e-08
-1.18478e-10
8.52468e-05
2.87003e-09
-9.25567e-10
5.86005e-05
-7.51261e-10
2.2716e-05
3.77403e-09
-2.49308e-13
2.31987e-05
1.79222e-08
-3.1292e-13
5.96673e-05
3.79656e-08
-4.75383e-13
8.65835e-05
5.56331e-08
-4.86298e-13
0.000104277
6.32471e-08
-4.12984e-13
0.000112991
5.70298e-08
-3.17211e-13
0.000112857
3.91415e-08
-2.25255e-13
0.000103898
1.75793e-08
-1.34145e-13
8.60333e-05
2.79738e-09
-1.45632e-14
5.91035e-05
-7.12069e-14
2.28882e-05
3.77406e-09
-1.74432e-09
2.31987e-05
1.79223e-08
-3.8012e-09
5.96673e-05
3.79658e-08
-4.62835e-09
8.65835e-05
5.56332e-08
-4.52271e-09
0.000104277
6.32472e-08
-3.7664e-09
0.000112991
5.70299e-08
-2.58428e-09
0.000112857
3.91415e-08
-1.19202e-09
0.000103898
1.75793e-08
1.1821e-10
8.60333e-05
2.79739e-09
9.25539e-10
5.91035e-05
7.51119e-10
2.28882e-05
3.81242e-09
-3.36093e-09
2.30196e-05
1.79334e-08
-7.25592e-09
5.91506e-05
3.78738e-08
-8.75398e-09
8.57829e-05
5.5431e-08
-8.45674e-09
0.000103273
6.30043e-08
-6.91897e-09
0.000111882
5.68501e-08
-4.57629e-09
0.000111752
3.90949e-08
-1.8476e-09
0.000102904
1.76457e-08
6.89154e-10
8.52468e-05
2.87005e-09
2.18595e-09
5.86005e-05
1.65411e-09
2.2716e-05
3.86961e-09
-4.72598e-09
2.26438e-05
1.78912e-08
-1.00399e-08
5.80665e-05
3.75743e-08
-1.19251e-08
8.41034e-05
5.48711e-08
-1.1298e-08
0.000101167
6.23467e-08
-8.96233e-09
0.000109557
5.63313e-08
-5.53203e-09
0.000109435
3.88814e-08
-1.59882e-09
0.000100818
1.77117e-08
1.99539e-09
8.35951e-05
2.99576e-09
3.97624e-09
5.75433e-05
2.79651e-09
2.2354e-05
3.90318e-09
-5.71848e-09
2.2034e-05
1.76592e-08
-1.18665e-08
5.63076e-05
3.6825e-08
-1.37823e-08
8.13803e-05
5.36289e-08
-1.26981e-08
9.7755e-05
6.09146e-08
-9.61877e-09
0.000105791
5.51374e-08
-5.2797e-09
0.000105679
3.82436e-08
-3.88557e-10
9.74343e-05
1.76309e-08
4.0018e-09
8.09119e-05
3.12982e-09
6.22491e-09
5.58234e-05
4.13998e-09
2.17644e-05
3.84294e-09
-6.21584e-09
2.1128e-05
1.70194e-08
-1.24969e-08
5.36967e-05
3.52459e-08
-1.40914e-08
7.73442e-05
5.11979e-08
-1.25154e-08
9.27043e-05
5.81451e-08
-8.89253e-09
0.00010022
5.27368e-08
-3.9932e-09
0.00010012
3.67662e-08
1.44718e-09
9.24189e-05
1.71593e-08
6.26554e-09
7.69257e-05
3.19356e-09
8.507e-09
5.32618e-05
5.47013e-09
2.08843e-05
3.59069e-09
-6.09113e-09
1.983e-05
1.56791e-08
-1.17566e-08
4.99637e-05
3.23363e-08
-1.27738e-08
7.15913e-05
4.6915e-08
-1.08418e-08
8.55242e-05
5.32981e-08
-7.07725e-09
9.23101e-05
4.84202e-08
-2.17608e-09
9.22243e-05
3.3881e-08
3.21117e-09
8.52782e-05
1.59505e-08
7.96512e-09
7.1229e-05
3.06839e-09
1.00496e-08
4.95852e-05
6.38145e-09
1.96165e-05
3.03477e-09
-5.23135e-09
1.79921e-05
1.33217e-08
-9.58916e-09
4.47036e-05
2.75672e-08
-9.95845e-09
6.35349e-05
4.00829e-08
-8.01099e-09
7.55198e-05
4.55882e-08
-4.69327e-09
8.13172e-05
4.14215e-08
-5.19007e-10
8.12458e-05
2.89568e-08
4.05401e-09
7.53146e-05
1.36017e-08
8.13363e-09
6.32315e-05
2.60645e-09
9.91722e-09
4.4385e-05
6.34387e-09
1.78112e-05
2.09851e-09
-3.61751e-09
1.53742e-05
9.74828e-09
-6.20645e-09
3.73004e-05
2.06111e-08
-6.09806e-09
5.23316e-05
3.0262e-08
-4.61083e-09
6.17318e-05
3.45079e-08
-2.36132e-09
6.62356e-05
3.12322e-08
3.80385e-10
6.61785e-05
2.15599e-08
3.39914e-09
6.15675e-05
9.82062e-09
6.17469e-09
5.20876e-05
1.68754e-09
7.48827e-09
3.70428e-05
4.92862e-09
1.52264e-05
8.71834e-10
-1.54991e-09
1.15381e-05
5.17634e-09
-2.39067e-09
2.67755e-05
1.17837e-08
-2.17873e-09
3.67671e-05
1.7813e-08
-1.52632e-09
4.28672e-05
2.04293e-08
-6.53683e-10
4.57538e-05
1.82167e-08
3.74012e-10
4.57122e-05
1.20132e-08
1.52256e-09
4.27474e-05
4.83182e-09
2.63972e-09
3.65884e-05
4.07137e-10
3.27498e-09
2.65846e-05
2.31719e-09
1.14255e-05
-2.10265e-10
5.50825e-06
7.66798e-10
1.14805e-05
2.7996e-09
1.5098e-05
4.78886e-09
1.72373e-05
5.60191e-09
1.82349e-05
4.69268e-09
1.82156e-05
2.4624e-09
1.71812e-05
1.97456e-10
1.50131e-05
-6.29218e-10
1.13869e-05
5.44775e-06
-2.24258e-09
4.12088e-09
5.50631e-06
-2.39578e-09
6.53998e-09
1.14741e-05
4.52376e-10
5.80166e-09
1.50893e-05
4.14085e-09
3.44394e-09
1.72302e-05
5.96179e-09
2.04231e-10
1.82329e-05
4.43962e-09
-3.54368e-09
1.82206e-05
3.89988e-10
-7.44167e-09
1.71927e-05
-3.16958e-09
-1.07527e-08
1.50274e-05
-2.93946e-09
-1.18796e-08
1.13985e-05
-7.54608e-09
5.45236e-06
-1.04031e-09
1.00444e-08
1.15332e-05
4.97704e-09
1.71853e-08
2.67589e-05
1.77272e-08
1.60803e-08
3.67441e-05
3.09148e-08
1.01816e-08
4.28473e-05
3.74375e-08
1.48408e-09
4.5746e-05
3.33138e-08
-8.71362e-09
4.57215e-05
2.02165e-08
-1.90645e-08
4.27721e-05
5.50695e-09
-2.72602e-08
3.66196e-05
-1.70767e-09
-2.90634e-08
2.6609e-05
-1.72789e-08
1.14335e-05
1.5342e-09
1.47667e-08
1.53679e-05
1.54034e-08
2.65862e-08
3.72771e-05
3.87405e-08
2.59602e-08
5.22984e-05
6.13204e-08
1.73992e-08
6.1702e-05
7.23095e-08
3.99869e-09
6.62221e-05
6.56418e-08
-1.18956e-08
6.61884e-05
4.36254e-08
-2.77674e-08
6.15982e-05
1.72188e-08
-3.97483e-08
5.21265e-05
9.08498e-10
-4.15361e-08
3.70715e-05
-2.38283e-08
1.52338e-05
3.75409e-09
1.72543e-08
1.79858e-05
2.43369e-08
3.24203e-08
4.46772e-05
5.66098e-08
3.28643e-08
6.34957e-05
8.6957e-08
2.32435e-08
7.54836e-05
1.01453e-07
7.2835e-09
8.12994e-05
9.23988e-08
-1.18753e-08
8.12548e-05
6.27599e-08
-3.08106e-08
7.53473e-05
2.65995e-08
-4.4653e-08
6.32725e-05
2.91469e-09
-4.61719e-08
4.44133e-05
-2.58323e-08
1.78161e-05
5.07427e-09
1.75363e-08
1.98246e-05
3.0364e-08
3.41453e-08
4.99366e-05
6.91667e-08
3.57644e-08
7.15496e-05
1.0521e-07
2.65668e-08
8.54849e-05
1.22143e-07
1.038e-08
9.22901e-05
1.1106e-07
-9.30544e-09
9.22328e-05
7.55861e-08
-2.86575e-08
8.53116e-05
3.23438e-08
-4.25348e-08
7.12701e-05
3.78363e-09
-4.38517e-08
4.96114e-05
-2.41258e-08
1.96186e-05
5.56974e-09
1.60032e-08
2.11239e-05
3.3636e-08
3.20764e-08
5.36707e-05
7.66647e-08
3.45368e-08
7.73024e-05
1.16482e-07
2.67606e-08
9.26643e-05
1.34944e-07
1.22325e-08
0.000100199
1.223e-07
-5.67755e-09
0.000100129
8.27706e-08
-2.32597e-08
9.2453e-05
3.49569e-08
-3.57545e-08
7.69667e-05
3.74553e-09
-3.69855e-08
5.32861e-05
-2.01413e-08
2.08841e-05
5.51539e-09
1.31035e-08
2.20313e-05
3.4911e-08
2.68607e-08
5.62834e-05
8.03634e-08
2.95615e-08
8.13398e-05
1.2245e-07
2.36915e-08
9.7716e-05
1.41781e-07
1.2077e-08
0.000105772
1.28042e-07
-2.43068e-09
0.000105689
8.59364e-08
-1.66901e-08
9.74699e-05
3.54948e-08
-2.68045e-08
8.09534e-05
3.19489e-09
-2.79472e-08
5.58467e-05
-1.51403e-08
2.17626e-05
5.20339e-09
9.24216e-09
2.26425e-05
3.50397e-08
1.92503e-08
5.80443e-05
8.17049e-08
2.15244e-08
8.40648e-05
1.25023e-07
1.76765e-08
0.00010113
1.44797e-07
9.67775e-09
0.00010954
1.30357e-07
-4.25586e-10
0.000109447
8.67582e-08
-1.03796e-08
0.000100855
3.49886e-08
-1.74531e-08
8.36375e-05
2.48867e-09
-1.83747e-08
5.75663e-05
-9.93645e-09
2.23513e-05
4.86767e-09
4.76964e-09
2.30192e-05
3.47281e-08
1.00299e-08
5.913e-05
8.19048e-08
1.13225e-08
8.57459e-05
1.25814e-07
9.43617e-09
0.000103237
1.45787e-07
5.37917e-09
0.000111866
1.30946e-07
2.15861e-10
0.000111766
8.65724e-08
-4.88181e-09
0.000102943
3.42301e-08
-8.5135e-09
8.52902e-05
1.88645e-09
-9.03533e-09
5.86236e-05
-4.88538e-09
2.27129e-05
4.66237e-09
-2.48934e-13
2.31988e-05
3.44541e-08
-3.00752e-13
5.96475e-05
8.17969e-08
-4.71215e-13
8.65475e-05
1.25933e-07
-4.85428e-13
0.000104242
1.45976e-07
-4.10012e-13
0.000112976
1.30957e-07
-3.08563e-13
0.000112872
8.62634e-08
-2.09735e-13
0.000103938
3.37287e-08
-1.11561e-13
8.60773e-05
1.54811e-09
1.03648e-14
5.91267e-05
-6.13258e-14
2.28848e-05
4.6624e-09
-4.77018e-09
2.31988e-05
3.44542e-08
-1.00306e-08
5.96475e-05
8.17971e-08
-1.13235e-08
8.65475e-05
1.25933e-07
-9.43718e-09
0.000104242
1.45976e-07
-5.38002e-09
0.000112976
1.30957e-07
-2.16491e-10
0.000112872
8.62635e-08
4.88138e-09
0.000103938
3.37287e-08
8.51327e-09
8.60773e-05
1.54811e-09
9.03535e-09
5.91267e-05
4.88526e-09
2.28848e-05
4.86778e-09
-9.24282e-09
2.30192e-05
3.47284e-08
-1.92512e-08
5.913e-05
8.19052e-08
-2.15256e-08
8.57459e-05
1.25814e-07
-1.76776e-08
0.000103237
1.45787e-07
-9.67867e-09
0.000111866
1.30946e-07
4.24921e-10
0.000111766
8.65725e-08
1.03791e-08
0.000102943
3.42302e-08
1.74529e-08
8.52902e-05
1.88647e-09
1.83748e-08
5.86236e-05
9.93632e-09
2.27129e-05
5.20362e-09
-1.31044e-08
2.26425e-05
3.50403e-08
-2.68619e-08
5.80443e-05
8.17056e-08
-2.95631e-08
8.40648e-05
1.25023e-07
-2.36929e-08
0.00010113
1.44798e-07
-1.2078e-08
0.00010954
1.30357e-07
2.42996e-09
0.000109447
8.67585e-08
1.66897e-08
0.000100855
3.49888e-08
2.68043e-08
8.36375e-05
2.4887e-09
2.79472e-08
5.75663e-05
1.51402e-08
2.23513e-05
5.51584e-09
-1.60046e-08
2.20313e-05
3.4912e-08
-3.20783e-08
5.62834e-05
8.03647e-08
-3.45389e-08
8.13398e-05
1.22451e-07
-2.67623e-08
9.7716e-05
1.41782e-07
-1.22337e-08
0.000105772
1.28042e-07
5.67679e-09
0.000105689
8.59368e-08
2.32592e-08
9.74699e-05
3.5495e-08
3.57543e-08
8.09534e-05
3.19493e-09
3.69855e-08
5.58467e-05
2.01412e-08
2.17626e-05
5.57065e-09
-1.75387e-08
2.11239e-05
3.36378e-08
-3.41483e-08
5.36707e-05
7.66667e-08
-3.57674e-08
7.73024e-05
1.16484e-07
-2.6569e-08
9.26643e-05
1.34946e-07
-1.03813e-08
0.000100199
1.22301e-07
9.30464e-09
0.000100129
8.27712e-08
2.86571e-08
9.2453e-05
3.49572e-08
4.25346e-08
7.69667e-05
3.7456e-09
4.38518e-08
5.32861e-05
2.41257e-08
2.08841e-05
5.07608e-09
-1.72589e-08
1.98246e-05
3.03671e-08
-3.24254e-08
4.99366e-05
6.917e-08
-3.28686e-08
7.15496e-05
1.05213e-07
-2.32463e-08
8.54849e-05
1.22145e-07
-7.28505e-09
9.22901e-05
1.11061e-07
1.18746e-08
9.22328e-05
7.55869e-08
3.08102e-08
8.53116e-05
3.23441e-08
4.46529e-08
7.12701e-05
3.78372e-09
4.61721e-08
4.96114e-05
2.58323e-08
1.96186e-05
3.75765e-09
-1.47756e-08
1.79858e-05
2.43425e-08
-2.65947e-08
4.46772e-05
5.66151e-08
-2.59663e-08
6.34957e-05
8.69609e-08
-1.74026e-08
7.54836e-05
1.01455e-07
-4.00035e-09
8.12994e-05
9.24004e-08
1.18949e-08
8.12548e-05
6.27607e-08
2.77672e-08
7.53473e-05
2.65998e-08
3.97483e-08
6.32725e-05
2.91479e-09
4.15363e-08
4.44133e-05
2.38282e-08
1.78161e-05
1.54085e-09
-1.00608e-08
1.53679e-05
1.54131e-08
-1.7199e-08
3.72771e-05
3.87484e-08
-1.6088e-08
5.22984e-05
6.13257e-08
-1.01853e-08
6.1702e-05
7.23125e-08
-1.48561e-09
6.62221e-05
6.56435e-08
8.71308e-09
6.61884e-05
4.36263e-08
1.90643e-08
6.15982e-05
1.72192e-08
2.72603e-08
5.21265e-05
9.08608e-10
2.90636e-08
3.70715e-05
1.72789e-08
1.52338e-05
-1.02641e-09
-4.14461e-09
1.15333e-05
4.99259e-09
-6.55307e-09
2.67589e-05
1.77373e-08
-5.80743e-09
3.67441e-05
3.09204e-08
-3.44667e-09
4.28473e-05
3.74403e-08
-2.05385e-10
4.5746e-05
3.33151e-08
3.54324e-09
4.57215e-05
2.02171e-08
7.44154e-09
4.27721e-05
5.50719e-09
1.07527e-08
3.66196e-05
-1.70761e-09
1.18797e-08
2.6609e-05
7.54608e-09
1.14335e-05
-2.21851e-09
5.50632e-06
-2.37876e-09
1.14741e-05
4.61765e-10
1.50893e-05
4.1455e-09
1.72302e-05
5.96398e-09
1.82329e-05
4.44061e-09
1.82206e-05
3.9041e-10
1.71927e-05
-3.16942e-09
1.50274e-05
-2.93942e-09
1.13985e-05
5.45236e-06
-3.17088e-09
7.89696e-09
5.50157e-06
-1.60583e-09
1.21967e-08
1.14603e-05
5.84121e-09
1.0622e-08
1.50713e-05
1.47656e-08
6.16168e-09
1.72151e-05
1.97513e-08
1.08164e-10
1.82278e-05
1.74946e-08
-6.91782e-09
1.82298e-05
8.9131e-09
-1.43286e-08
1.72156e-05
-4.86662e-10
-2.08246e-08
1.50576e-05
-3.44197e-09
-2.34451e-08
1.14249e-05
-1.53134e-08
5.46423e-06
4.45205e-10
1.87835e-08
1.15219e-05
1.60709e-08
3.16054e-08
2.67238e-05
4.48856e-08
2.91656e-08
3.66968e-05
7.43896e-08
1.80859e-08
4.28058e-05
9.04634e-08
1.94937e-09
4.5728e-05
8.43234e-08
-1.69951e-08
4.57378e-05
5.76044e-08
-3.64208e-08
4.28209e-05
2.36886e-08
-5.21825e-08
3.66849e-05
1.92798e-09
-5.62959e-08
2.66636e-05
-3.40655e-08
1.14542e-05
6.16053e-09
2.72463e-08
1.53533e-05
3.8183e-08
4.84285e-08
3.72283e-05
8.87599e-08
4.67371e-08
5.22302e-05
1.37786e-07
3.07233e-08
6.16403e-05
1.63826e-07
5.98274e-09
6.6192e-05
1.53625e-07
-2.33458e-08
6.62049e-05
1.09366e-07
-5.28266e-08
6.16588e-05
5.0969e-08
-7.54693e-08
5.22082e-05
8.7938e-09
-7.94374e-08
3.71369e-05
-4.61367e-08
1.52547e-05
1.09485e-08
3.15475e-08
1.79706e-05
5.67523e-08
5.86273e-08
4.46212e-05
1.25459e-07
5.87993e-08
6.3415e-05
1.90414e-07
4.0829e-08
7.54085e-05
2.24141e-07
1.14627e-08
8.12602e-05
2.09914e-07
-2.37048e-08
8.12694e-05
1.50703e-07
-5.85827e-08
7.54122e-05
7.21562e-08
-8.43646e-08
6.336e-05
1.3835e-08
-8.75668e-08
4.44798e-05
-4.94342e-08
1.78332e-05
1.39076e-08
3.18439e-08
1.98104e-05
6.94623e-08
6.13841e-08
4.98783e-05
1.51473e-07
6.36468e-08
7.14627e-05
2.28134e-07
4.64513e-08
8.54026e-05
2.67227e-07
1.67317e-08
9.22457e-05
2.49465e-07
-1.92596e-08
9.22461e-05
1.78749e-07
-5.46699e-08
8.53784e-05
8.55053e-08
-8.02108e-08
7.13592e-05
1.63572e-08
-8.27637e-08
4.96757e-05
-4.58364e-08
1.96314e-05
1.5232e-08
2.89036e-08
2.11117e-05
7.67489e-08
5.73871e-08
5.36132e-05
1.67538e-07
6.11843e-08
7.72141e-05
2.52077e-07
4.66041e-08
9.25796e-05
2.94629e-07
1.99607e-08
0.000100154
2.74098e-07
-1.26913e-08
0.000100143
1.95293e-07
-4.47003e-08
9.25218e-05
9.23604e-08
-6.74812e-08
7.70569e-05
1.69564e-08
-6.96668e-08
5.33485e-05
-3.81205e-08
2.08933e-05
1.5452e-08
2.3567e-08
2.20212e-05
8.00781e-08
4.78713e-08
5.62283e-05
1.76102e-07
5.21786e-08
8.12528e-05
2.65527e-07
4.1126e-08
9.76321e-05
3.10151e-07
1.98344e-08
0.000105727
2.87658e-07
-6.56369e-09
0.000105706
2.03617e-07
-3.24275e-08
9.75416e-05
9.48788e-08
-5.07374e-08
8.10454e-05
1.64412e-08
-5.26504e-08
5.59081e-05
-2.86168e-08
2.17695e-05
1.51144e-08
1.65714e-08
2.26344e-05
8.10431e-08
3.42112e-08
5.7992e-05
1.79871e-07
3.78896e-08
8.39803e-05
2.72081e-07
3.06114e-08
0.000101048
3.17858e-07
1.59476e-08
0.000109498
2.94102e-07
-2.4143e-09
0.000109467
2.06942e-07
-2.04236e-08
0.000100931
9.50541e-08
-3.3165e-08
8.37318e-05
1.5503e-08
-3.46635e-08
5.76278e-05
-1.87837e-08
2.2357e-05
1.46531e-08
8.5361e-09
2.30126e-05
8.09522e-08
1.77941e-08
5.90801e-05
1.81101e-07
1.98982e-08
8.56638e-05
2.7474e-07
1.63174e-08
0.000103158
3.21101e-07
8.87851e-09
0.000111827
2.9662e-07
-4.99361e-10
0.000111789
2.07788e-07
-9.70901e-09
0.000103021
9.43832e-08
-1.62315e-08
8.53867e-05
1.46321e-08
-1.70697e-08
5.86857e-05
-9.24108e-09
2.27179e-05
1.43531e-08
-2.34459e-13
2.3193e-05
8.06886e-08
-2.68425e-13
5.9599e-05
1.81332e-07
-4.40843e-13
8.64668e-05
2.75557e-07
-4.61032e-13
0.000104165
3.22156e-07
-3.89488e-13
0.000112938
2.97352e-07
-2.88185e-13
0.000112897
2.07809e-07
-1.8622e-13
0.000104018
9.38199e-08
-8.453e-14
8.61751e-05
1.41274e-08
3.86824e-14
5.91893e-05
-4.95301e-14
2.28897e-05
1.43532e-08
-8.53661e-09
2.3193e-05
8.06887e-08
-1.77947e-08
5.9599e-05
1.81332e-07
-1.98991e-08
8.64668e-05
2.75557e-07
-1.63184e-08
0.000104165
3.22156e-07
-8.87932e-09
0.000112938
2.97352e-07
4.98772e-10
0.000112897
2.07809e-07
9.70863e-09
0.000104018
9.382e-08
1.62313e-08
8.61751e-05
1.41274e-08
1.70698e-08
5.91893e-05
9.24098e-09
2.28897e-05
1.46532e-08
-1.6572e-08
2.30126e-05
8.09525e-08
-3.4212e-08
5.90801e-05
1.81102e-07
-3.78907e-08
8.56638e-05
2.7474e-07
-3.06125e-08
0.000103158
3.21101e-07
-1.59485e-08
0.000111827
2.9662e-07
2.41368e-09
0.000111789
2.07789e-07
2.04232e-08
0.000103021
9.43833e-08
3.31649e-08
8.53867e-05
1.46321e-08
3.46636e-08
5.86857e-05
1.87836e-08
2.27179e-05
1.51146e-08
-2.35679e-08
2.26344e-05
8.10436e-08
-4.78723e-08
5.7992e-05
1.79872e-07
-5.218e-08
8.39803e-05
2.72081e-07
-4.11273e-08
0.000101048
3.17859e-07
-1.98354e-08
0.000109498
2.94102e-07
6.56302e-09
0.000109467
2.06942e-07
3.24271e-08
0.000100931
9.50542e-08
5.07373e-08
8.37318e-05
1.5503e-08
5.26505e-08
5.76278e-05
2.86167e-08
2.2357e-05
1.54524e-08
-2.89048e-08
2.20212e-05
8.0079e-08
-5.73887e-08
5.62283e-05
1.76103e-07
-6.11862e-08
8.12528e-05
2.65528e-07
-4.66058e-08
9.76321e-05
3.10152e-07
-1.99619e-08
0.000105727
2.87659e-07
1.26906e-08
0.000105706
2.03617e-07
4.46999e-08
9.75416e-05
9.4879e-08
6.7481e-08
8.10454e-05
1.64413e-08
6.96669e-08
5.59081e-05
3.81204e-08
2.17695e-05
1.52327e-08
-3.18459e-08
2.11117e-05
7.67505e-08
-6.13866e-08
5.36132e-05
1.6754e-07
-6.36494e-08
7.72141e-05
2.52079e-07
-4.64533e-08
9.25796e-05
2.9463e-07
-1.6733e-08
0.000100154
2.74099e-07
1.92588e-08
0.000100143
1.95293e-07
5.46695e-08
9.25218e-05
9.23607e-08
8.02107e-08
7.70569e-05
1.69564e-08
8.27639e-08
5.33485e-05
4.58363e-08
2.08933e-05
1.39089e-08
-3.15508e-08
1.98104e-05
6.94651e-08
-5.86314e-08
4.98783e-05
1.51476e-07
-5.8803e-08
7.14627e-05
2.28136e-07
-4.08315e-08
8.54026e-05
2.67229e-07
-1.14641e-08
9.22457e-05
2.49467e-07
2.37041e-08
9.22461e-05
1.7875e-07
5.85824e-08
8.53784e-05
8.55056e-08
8.43646e-08
7.13592e-05
1.63573e-08
8.7567e-08
4.96757e-05
4.94341e-08
1.96314e-05
1.09509e-08
-2.72519e-08
1.79706e-05
5.67569e-08
-4.84349e-08
4.46212e-05
1.25464e-07
-4.67421e-08
6.3415e-05
1.90418e-07
-3.07263e-08
7.54085e-05
2.24143e-07
-5.9842e-09
8.12602e-05
2.09916e-07
2.33452e-08
8.12694e-05
1.50704e-07
5.28264e-08
7.54122e-05
7.21566e-08
7.54693e-08
6.336e-05
1.38351e-08
7.94377e-08
4.44798e-05
4.61367e-08
1.78332e-05
6.16489e-09
-1.87917e-08
1.53533e-05
3.81905e-08
-3.16141e-08
3.72283e-05
8.87665e-08
-2.91713e-08
5.22302e-05
1.3779e-07
-1.80888e-08
6.16403e-05
1.63829e-07
-1.95064e-09
6.6192e-05
1.53627e-07
1.69947e-08
6.62049e-05
1.09367e-07
3.64207e-08
6.16588e-05
5.09693e-08
5.21826e-08
5.22082e-05
8.79388e-09
5.62961e-08
3.71369e-05
3.40655e-08
1.52547e-05
4.52439e-10
-7.90476e-09
1.15219e-05
1.60812e-08
-1.22033e-08
2.67238e-05
4.48934e-08
-1.06257e-08
3.66968e-05
7.43943e-08
-6.1635e-09
4.28058e-05
9.04659e-08
-1.09016e-10
4.5728e-05
8.43247e-08
6.91743e-09
4.57378e-05
5.7605e-08
1.43284e-08
4.28209e-05
2.36888e-08
2.08245e-08
3.66849e-05
1.92808e-09
2.34451e-08
2.66636e-05
1.53134e-08
1.14542e-05
-3.1628e-09
5.50158e-06
-1.59705e-09
1.14603e-05
5.84723e-09
1.50713e-05
1.4769e-08
1.72151e-05
1.97531e-08
1.82278e-05
1.74955e-08
1.82298e-05
8.9135e-09
1.72156e-05
-4.86514e-10
1.50576e-05
-3.44189e-09
1.14249e-05
5.46423e-06
-2.1058e-09
1.36752e-08
5.49e-06
6.43344e-09
2.04109e-08
1.14314e-05
2.54859e-08
1.74972e-08
1.50347e-05
4.64273e-08
1.02819e-08
1.71839e-05
5.91619e-08
6.75801e-10
1.82144e-05
5.67801e-08
-1.05721e-08
1.82427e-05
3.93004e-08
-2.28344e-08
1.72559e-05
1.55466e-08
-3.43394e-08
1.51157e-05
5.35429e-10
-4.04558e-08
1.14804e-05
-2.7888e-08
5.49265e-06
8.12729e-09
3.14463e-08
1.1496e-05
4.76982e-08
5.18891e-08
2.66528e-05
1.10798e-07
4.75818e-08
3.66036e-05
1.74052e-07
3.00844e-08
4.27228e-05
2.11509e-07
4.91149e-09
4.56864e-05
2.05154e-07
-2.48987e-08
4.57584e-05
1.53958e-07
-5.63626e-08
4.29057e-05
7.90745e-08
-8.35305e-08
3.68089e-05
1.86818e-08
-9.35139e-08
2.6777e-05
-5.8958e-08
1.1504e-05
2.02388e-08
4.47398e-08
1.53198e-05
9.19989e-08
7.85314e-08
3.71299e-05
1.96838e-07
7.57126e-08
5.20972e-05
2.97945e-07
5.09384e-08
6.15184e-05
3.56337e-07
1.28842e-08
6.61257e-05
3.45149e-07
-3.26157e-08
6.62238e-05
2.6259e-07
-7.95266e-08
6.17646e-05
1.39983e-07
-1.17644e-07
5.23649e-05
3.60326e-08
-1.27961e-07
3.72753e-05
-7.69618e-08
1.53087e-05
2.99303e-08
5.11712e-08
1.79342e-05
1.27928e-07
9.42744e-08
4.45075e-05
2.66721e-07
9.4751e-08
6.32571e-05
3.9805e-07
6.74544e-08
7.52607e-05
4.7227e-07
2.28388e-08
8.1176e-05
4.55726e-07
-3.10588e-08
8.12844e-05
3.46725e-07
-8.57435e-08
7.55274e-05
1.85666e-07
-1.28328e-07
6.35317e-05
4.83117e-08
-1.37445e-07
4.46266e-05
-8.01269e-08
1.78847e-05
3.61379e-08
5.12341e-08
1.97742e-05
1.52813e-07
9.8128e-08
4.97578e-05
3.16545e-07
1.02146e-07
7.12916e-05
4.70083e-07
7.64593e-08
8.52401e-05
5.55429e-07
3.17885e-08
9.21514e-05
5.33916e-07
-2.28075e-08
9.22594e-05
4.04532e-07
-7.76669e-08
8.54997e-05
2.15354e-07
-1.1924e-07
7.15393e-05
5.52598e-08
-1.27031e-07
4.98254e-05
-7.25937e-08
1.96791e-05
3.93865e-08
4.62488e-08
2.10772e-05
1.67956e-07
9.13543e-08
5.34914e-05
3.48521e-07
9.78803e-08
7.70378e-05
5.17288e-07
7.64334e-08
9.24108e-05
6.10037e-07
3.67482e-08
0.000100056
5.84529e-07
-1.23693e-08
0.000100158
4.40633e-07
-6.1499e-08
9.26496e-05
2.3247e-07
-9.81805e-08
7.7244e-05
5.83502e-08
-1.0488e-07
5.35004e-05
-5.92486e-08
2.09383e-05
4.06203e-08
3.75702e-08
2.19893e-05
1.75989e-07
7.59796e-08
5.61083e-05
3.67074e-07
8.32671e-08
8.10763e-05
5.45647e-07
6.72313e-08
9.74627e-05
6.43096e-07
3.57492e-08
0.000105631
6.14724e-07
-3.70398e-09
0.000105725
4.61217e-07
-4.31286e-08
9.76768e-05
2.41118e-07
-7.23871e-08
8.12397e-05
5.91285e-08
-7.79809e-08
5.60632e-05
-4.38178e-08
2.18132e-05
4.07448e-08
2.63546e-08
2.26048e-05
1.79564e-07
5.41898e-08
5.7875e-05
3.76727e-07
6.03564e-08
8.3806e-05
5.61215e-07
4.99155e-08
0.000100881
6.61502e-07
2.83507e-08
0.000109405
6.31277e-07
1.03409e-09
0.000109492
4.71853e-07
-2.62884e-08
0.000101073
2.44772e-07
-4.65474e-08
8.39331e-05
5.88013e-08
-5.06917e-08
5.77865e-05
-2.84445e-08
2.24004e-05
4.04558e-08
1.35571e-08
2.29849e-05
1.80787e-07
2.81524e-08
5.89658e-05
3.81127e-07
3.16623e-08
8.54921e-05
5.68869e-07
2.65646e-08
0.000102994
6.70736e-07
1.56613e-08
0.000111738
6.39449e-07
1.74846e-09
0.00011182
4.76724e-07
-1.21856e-08
0.00010317
2.45929e-07
-2.25274e-08
8.55935e-05
5.81858e-08
-2.47579e-08
5.88475e-05
-1.38976e-08
2.27616e-05
4.02029e-08
-2.0727e-13
2.31663e-05
1.81055e-07
-2.15326e-13
5.94863e-05
3.82722e-07
-3.85795e-13
8.62968e-05
5.71885e-07
-4.14576e-13
0.000104002
6.74453e-07
-3.52248e-13
0.000112851
6.42692e-07
-2.56054e-13
0.00011293
4.78513e-07
-1.5478e-13
0.00010417
2.46141e-07
-5.09276e-14
8.63849e-05
5.77671e-08
7.0783e-14
5.93529e-05
-3.51157e-14
2.29336e-05
4.02029e-08
-1.35576e-08
2.31663e-05
1.81056e-07
-2.81529e-08
5.94863e-05
3.82722e-07
-3.16631e-08
8.62968e-05
5.71886e-07
-2.65655e-08
0.000104002
6.74454e-07
-1.5662e-08
0.000112851
6.42692e-07
-1.74898e-09
0.00011293
4.78513e-07
1.21853e-08
0.00010417
2.46141e-07
2.25273e-08
8.63849e-05
5.77671e-08
2.47581e-08
5.93529e-05
1.38975e-08
2.29336e-05
4.04558e-08
-2.63551e-08
2.29849e-05
1.80787e-07
-5.41904e-08
5.89658e-05
3.81127e-07
-6.03573e-08
8.54921e-05
5.68869e-07
-4.99165e-08
0.000102994
6.70737e-07
-2.83515e-08
0.000111738
6.39449e-07
-1.03464e-09
0.00011182
4.76724e-07
2.62881e-08
0.00010317
2.45929e-07
4.65473e-08
8.55935e-05
5.81859e-08
5.06919e-08
5.88475e-05
2.84444e-08
2.27616e-05
4.0745e-08
-3.75709e-08
2.26048e-05
1.79564e-07
-7.59805e-08
5.7875e-05
3.76727e-07
-8.32683e-08
8.3806e-05
5.61216e-07
-6.72324e-08
0.000100881
6.61503e-07
-3.57501e-08
0.000109405
6.31278e-07
3.70339e-09
0.000109492
4.71853e-07
4.31283e-08
0.000101073
2.44772e-07
7.2387e-08
8.39331e-05
5.88014e-08
7.79811e-08
5.77865e-05
4.38177e-08
2.24004e-05
4.06206e-08
-4.62498e-08
2.19893e-05
1.7599e-07
-9.13556e-08
5.61083e-05
3.67075e-07
-9.78819e-08
8.10763e-05
5.45649e-07
-7.64348e-08
9.74627e-05
6.43097e-07
-3.67492e-08
0.000105631
6.14724e-07
1.23686e-08
0.000105725
4.61217e-07
6.14987e-08
9.76768e-05
2.41118e-07
9.81805e-08
8.12397e-05
5.91285e-08
1.0488e-07
5.60632e-05
5.92485e-08
2.18132e-05
3.9387e-08
-5.12356e-08
2.10773e-05
1.67957e-07
-9.813e-08
5.34914e-05
3.48522e-07
-1.02148e-07
7.70378e-05
5.17289e-07
-7.6461e-08
9.24109e-05
6.10038e-07
-3.17896e-08
0.000100056
5.84529e-07
2.28068e-08
0.000100158
4.40633e-07
7.76666e-08
9.26496e-05
2.3247e-07
1.1924e-07
7.7244e-05
5.83503e-08
1.27031e-07
5.35004e-05
7.25937e-08
2.09383e-05
3.61389e-08
-5.11735e-08
1.97742e-05
1.52815e-07
-9.42775e-08
4.97578e-05
3.16547e-07
-9.4754e-08
7.12916e-05
4.70085e-07
-6.74564e-08
8.52401e-05
5.55431e-07
-2.284e-08
9.21514e-05
5.33917e-07
3.10582e-08
9.22594e-05
4.04532e-07
8.57433e-08
8.54997e-05
2.15355e-07
1.28328e-07
7.15393e-05
5.52598e-08
1.37445e-07
4.98254e-05
8.01269e-08
1.96791e-05
2.9932e-08
-4.47432e-08
1.79342e-05
1.27932e-07
-7.85361e-08
4.45075e-05
2.66725e-07
-7.57164e-08
6.32571e-05
3.98053e-07
-5.09407e-08
7.52607e-05
4.72272e-07
-1.28854e-08
8.1176e-05
4.55728e-07
3.26153e-08
8.12844e-05
3.46726e-07
7.95265e-08
7.55274e-05
1.85667e-07
1.17644e-07
6.35317e-05
4.83118e-08
1.27961e-07
4.46266e-05
7.69618e-08
1.78847e-05
2.02418e-08
-3.14507e-08
1.53198e-05
9.20044e-08
-5.1895e-08
3.71299e-05
1.96843e-07
-4.75857e-08
5.20972e-05
2.97949e-07
-3.00864e-08
6.15184e-05
3.5634e-07
-4.91236e-09
6.61257e-05
3.4515e-07
2.48985e-08
6.62238e-05
2.62591e-07
5.63627e-08
6.17646e-05
1.39983e-07
8.35306e-08
5.23649e-05
3.60327e-08
9.35142e-08
3.72753e-05
5.8958e-08
1.53087e-05
8.13218e-09
-1.36789e-08
1.1496e-05
4.77055e-08
-2.04151e-08
2.66528e-05
1.10804e-07
-1.74995e-08
3.66036e-05
1.74056e-07
-1.0283e-08
4.27228e-05
2.11512e-07
-6.76243e-10
4.56864e-05
2.05155e-07
1.0572e-08
4.57584e-05
1.53959e-07
2.28344e-08
4.29057e-05
7.90747e-08
3.43394e-08
3.68089e-05
1.86818e-08
4.04559e-08
2.6777e-05
2.7888e-08
1.1504e-05
-2.10178e-09
5.49e-06
6.4384e-09
1.14314e-05
2.54898e-08
1.50347e-05
4.64298e-08
1.71839e-05
5.91633e-08
1.82144e-05
5.67808e-08
1.82427e-05
3.93007e-08
1.72559e-05
1.55467e-08
1.51157e-05
5.35457e-10
1.14804e-05
5.49265e-06
2.29469e-09
2.23496e-08
5.46535e-06
2.62052e-08
3.22783e-08
1.13752e-05
6.81688e-08
2.73277e-08
1.49654e-05
1.12641e-07
1.65206e-08
1.71229e-05
1.41979e-07
2.44445e-09
1.81826e-05
1.42592e-07
-1.42344e-08
1.82564e-05
1.11006e-07
-3.32105e-08
1.73207e-05
5.91392e-08
-5.25395e-08
1.52201e-05
1.50804e-08
-6.57233e-08
1.15902e-05
-4.82016e-08
5.55594e-06
2.57041e-08
4.96841e-08
1.1443e-05
1.11727e-07
8.04697e-08
2.65186e-05
2.38151e-07
7.36453e-08
3.64308e-05
3.64395e-07
4.82653e-08
4.25648e-05
4.45674e-07
1.22232e-08
4.55953e-05
4.47103e-07
-3.09652e-08
4.57737e-05
3.58425e-07
-7.83205e-08
4.30395e-05
2.07714e-07
-1.2252e-07
3.70296e-05
6.38133e-08
-1.44533e-07
2.69997e-05
-9.59911e-08
1.16156e-05
4.92068e-08
6.92951e-08
1.52509e-05
1.94298e-07
1.20262e-07
3.6945e-05
3.96164e-07
1.16427e-07
5.18526e-05
5.9204e-07
8.15243e-08
6.12892e-05
7.15282e-07
2.80969e-08
6.59866e-05
7.14382e-07
-3.65677e-08
6.62303e-05
5.74084e-07
-1.05562e-07
6.19321e-05
3.35871e-07
-1.65865e-07
5.26465e-05
1.04126e-07
-1.89567e-07
3.7552e-05
-1.19586e-07
1.54365e-05
6.73873e-08
7.82649e-08
1.78579e-05
2.59393e-07
1.43167e-07
4.42926e-05
5.21332e-07
1.45014e-07
6.29666e-05
7.71722e-07
1.07609e-07
7.49842e-05
9.26201e-07
4.60615e-08
8.10036e-05
9.20617e-07
-2.92746e-08
8.12827e-05
7.37101e-07
-1.08175e-07
7.57136e-05
4.29655e-07
-1.74064e-07
6.38474e-05
1.32132e-07
-1.96101e-07
4.49307e-05
-1.19799e-07
1.8017e-05
7.93435e-08
7.77243e-08
1.96954e-05
3.04909e-07
1.48176e-07
4.95272e-05
6.11002e-07
1.55773e-07
7.09747e-05
9.01451e-07
1.21518e-07
8.49357e-05
1.07805e-06
6.08568e-08
9.196e-05
1.06729e-06
-1.43811e-08
9.22552e-05
8.50376e-07
-9.2318e-08
8.57007e-05
4.9219e-07
-1.55573e-07
7.1879e-05
1.49295e-07
-1.75127e-07
5.01473e-05
-1.05038e-07
1.98136e-05
8.62491e-08