/*--------------------------------*- C++ -*----------------------------------*\
  =========                 |
  \\      /  F ield         | OpenFOAM: The Open Source CFD Toolbox
   \\    /   O peration     | Website:  https://openfoam.org
    \\  /    A nd           | Version:  6
     \\/     M anipulation  |
\*---------------------------------------------------------------------------*/
FoamFile
{
    version     2.0;
    format      ascii;
    class       volScalarField;
    location    "0.325";
    object      T;
}
// * * * * * * * * * * * * * * * * * * * * * * * * * * * * * * * * * * * * * //

dimensions      [0 0 0 1 0 0 0];

internalField   nonuniform List<scalar> 
7000
(
104.534
104.533
104.531
104.529
104.525
104.521
104.517
104.513
104.51
104.509
104.534
104.533
104.531
104.529
104.525
104.521
104.517
104.513
104.51
104.509
104.534
104.533
104.531
104.528
104.525
104.521
104.517
104.513
104.51
104.509
104.534
104.533
104.531
104.528
104.525
104.521
104.517
104.513
104.51
104.509
104.534
104.533
104.531
104.528
104.525
104.521
104.517
104.513
104.51
104.509
104.534
104.533
104.531
104.528
104.525
104.521
104.517
104.513
104.51
104.509
104.534
104.533
104.531
104.528
104.525
104.521
104.517
104.513
104.51
104.509
104.534
104.533
104.531
104.528
104.525
104.521
104.517
104.513
104.51
104.509
104.534
104.533
104.531
104.528
104.525
104.521
104.517
104.513
104.51
104.509
104.534
104.533
104.531
104.529
104.525
104.521
104.517
104.513
104.51
104.509
93.6866
93.6835
93.6774
93.6685
93.6574
93.6447
93.6317
93.6197
93.6105
93.6055
93.6866
93.6835
93.6773
93.6685
93.6573
93.6447
93.6316
93.6197
93.6105
93.6054
93.6866
93.6834
93.6773
93.6684
93.6573
93.6446
93.6316
93.6196
93.6104
93.6054
93.6865
93.6834
93.6773
93.6684
93.6573
93.6446
93.6316
93.6196
93.6104
93.6054
93.6865
93.6834
93.6773
93.6684
93.6573
93.6446
93.6316
93.6196
93.6104
93.6054
93.6865
93.6834
93.6773
93.6684
93.6573
93.6446
93.6316
93.6196
93.6104
93.6054
93.6865
93.6834
93.6773
93.6684
93.6573
93.6446
93.6316
93.6196
93.6104
93.6054
93.6865
93.6834
93.6773
93.6684
93.6573
93.6446
93.6316
93.6196
93.6104
93.6054
93.6866
93.6834
93.6773
93.6684
93.6573
93.6446
93.6316
93.6197
93.6105
93.6054
93.6866
93.6834
93.6773
93.6685
93.6573
93.6447
93.6316
93.6197
93.6105
93.6054
83.0862
83.0806
83.0696
83.0535
83.0331
83.0097
82.9853
82.9627
82.9451
82.9354
83.0861
83.0805
83.0695
83.0534
83.0331
83.0097
82.9853
82.9627
82.945
82.9353
83.0861
83.0805
83.0694
83.0534
83.033
83.0096
82.9852
82.9626
82.945
82.9353
83.086
83.0804
83.0694
83.0534
83.033
83.0096
82.9852
82.9626
82.945
82.9353
83.086
83.0804
83.0694
83.0533
83.033
83.0096
82.9852
82.9626
82.9449
82.9352
83.086
83.0804
83.0694
83.0533
83.033
83.0096
82.9852
82.9626
82.9449
82.9352
83.086
83.0804
83.0694
83.0533
83.033
83.0096
82.9852
82.9626
82.945
82.9353
83.086
83.0804
83.0694
83.0534
83.033
83.0096
82.9852
82.9626
82.945
82.9353
83.0861
83.0805
83.0695
83.0534
83.033
83.0096
82.9853
82.9627
82.945
82.9353
83.0861
83.0805
83.0695
83.0534
83.0331
83.0097
82.9853
82.9627
82.9451
82.9354
72.8854
72.8767
72.8596
72.8344
72.802
72.7642
72.7241
72.6862
72.656
72.6392
72.8853
72.8766
72.8595
72.8343
72.8019
72.7641
72.724
72.6861
72.656
72.6391
72.8852
72.8766
72.8594
72.8342
72.8018
72.7641
72.7239
72.686
72.6559
72.6391
72.8852
72.8765
72.8594
72.8342
72.8018
72.764
72.7239
72.686
72.6559
72.6391
72.8852
72.8765
72.8594
72.8342
72.8018
72.764
72.7239
72.686
72.6559
72.639
72.8851
72.8765
72.8594
72.8342
72.8018
72.764
72.7239
72.686
72.6559
72.639
72.8852
72.8765
72.8594
72.8342
72.8018
72.764
72.7239
72.686
72.6559
72.6391
72.8852
72.8765
72.8594
72.8342
72.8018
72.764
72.7239
72.686
72.6559
72.6391
72.8852
72.8766
72.8595
72.8343
72.8019
72.7641
72.724
72.6861
72.656
72.6391
72.8853
72.8766
72.8595
72.8343
72.802
72.7642
72.7241
72.6862
72.656
72.6392
63.219
63.2065
63.1817
63.1446
63.0961
63.0384
62.9756
62.9145
62.8647
62.8362
63.2189
63.2064
63.1816
63.1445
63.0961
63.0383
62.9755
62.9144
62.8646
62.8361
63.2188
63.2063
63.1815
63.1444
63.096
63.0382
62.9754
62.9143
62.8645
62.8361
63.2187
63.2063
63.1814
63.1444
63.0959
63.0382
62.9753
62.9143
62.8645
62.836
63.2187
63.2063
63.1814
63.1444
63.0959
63.0382
62.9753
62.9143
62.8645
62.836
63.2187
63.2062
63.1814
63.1444
63.0959
63.0382
62.9753
62.9143
62.8645
62.836
63.2187
63.2063
63.1814
63.1444
63.0959
63.0382
62.9753
62.9143
62.8645
62.8361
63.2188
63.2063
63.1815
63.1444
63.096
63.0382
62.9754
62.9144
62.8645
62.8361
63.2188
63.2064
63.1815
63.1445
63.096
63.0383
62.9755
62.9144
62.8646
62.8362
63.2189
63.2064
63.1816
63.1446
63.0961
63.0384
62.9755
62.9145
62.8647
62.8363
54.1991
54.1819
54.1474
54.0952
54.0255
53.9401
53.8441
53.7472
53.665
53.6164
54.199
54.1818
54.1473
54.0951
54.0254
53.94
53.844
53.7471
53.6649
53.6164
54.1989
54.1817
54.1472
54.095
54.0253
53.9399
53.8439
53.7471
53.6649
53.6163
54.1988
54.1817
54.1472
54.095
54.0252
53.9398
53.8438
53.747
53.6648
53.6163
54.1988
54.1816
54.1472
54.095
54.0252
53.9398
53.8438
53.747
53.6648
53.6162
54.1988
54.1816
54.1472
54.0949
54.0252
53.9398
53.8438
53.747
53.6648
53.6162
54.1988
54.1817
54.1472
54.095
54.0252
53.9399
53.8438
53.747
53.6648
53.6163
54.1988
54.1817
54.1472
54.095
54.0253
53.9399
53.8439
53.7471
53.6649
53.6163
54.1989
54.1818
54.1473
54.0951
54.0254
53.94
53.844
53.7472
53.665
53.6164
54.199
54.1819
54.1474
54.0952
54.0255
53.9401
53.8441
53.7473
53.6651
53.6165
45.9116
45.8889
45.8429
45.772
45.6749
45.5521
45.4082
45.2557
45.1185
45.0327
45.9114
45.8888
45.8428
45.7719
45.6748
45.552
45.4081
45.2556
45.1184
45.0326
45.9114
45.8887
45.8427
45.7718
45.6747
45.5519
45.4081
45.2555
45.1183
45.0326
45.9113
45.8887
45.8426
45.7717
45.6747
45.5519
45.408
45.2554
45.1183
45.0325
45.9113
45.8886
45.8426
45.7717
45.6746
45.5519
45.408
45.2554
45.1183
45.0325
45.9113
45.8886
45.8426
45.7717
45.6746
45.5519
45.408
45.2554
45.1183
45.0325
45.9113
45.8887
45.8426
45.7717
45.6747
45.5519
45.408
45.2555
45.1183
45.0326
45.9113
45.8887
45.8427
45.7718
45.6747
45.552
45.4081
45.2555
45.1184
45.0326
45.9114
45.8888
45.8428
45.7719
45.6748
45.552
45.4082
45.2556
45.1185
45.0327
45.9115
45.8889
45.8429
45.772
45.6749
45.5521
45.4083
45.2557
45.1186
45.0328
38.4145
38.3859
38.3269
38.2343
38.1041
37.9332
37.7224
37.4837
37.2506
37.0902
38.4144
38.3857
38.3268
38.2342
38.104
37.933
37.7223
37.4836
37.2505
37.0901
38.4143
38.3857
38.3267
38.2341
38.1039
37.933
37.7222
37.4835
37.2504
37.09
38.4143
38.3856
38.3266
38.2341
38.1039
37.9329
37.7222
37.4835
37.2504
37.09
38.4143
38.3856
38.3266
38.234
38.1039
37.9329
37.7222
37.4835
37.2503
37.09
38.4142
38.3856
38.3266
38.234
38.1039
37.9329
37.7222
37.4835
37.2503
37.09
38.4143
38.3856
38.3266
38.2341
38.1039
37.9329
37.7222
37.4835
37.2504
37.09
38.4143
38.3856
38.3267
38.2341
38.1039
37.933
37.7223
37.4836
37.2504
37.0901
38.4144
38.3857
38.3268
38.2342
38.104
37.9331
37.7224
37.4837
37.2505
37.0902
38.4145
38.3858
38.3269
38.2343
38.1041
37.9332
37.7225
37.4838
37.2506
37.0903
31.7383
31.7035
31.6313
31.516
31.3492
31.1211
30.8231
30.4562
30.0526
29.7254
31.7381
31.7034
31.6312
31.5158
31.349
31.121
30.823
30.4561
30.0525
29.7253
31.7381
31.7033
31.6311
31.5158
31.349
31.1209
30.8229
30.4561
30.0525
29.7253
31.738
31.7033
31.6311
31.5157
31.3489
31.1208
30.8229
30.456
30.0524
29.7252
31.738
31.7032
31.6311
31.5157
31.3489
31.1208
30.8229
30.456
30.0524
29.7252
31.738
31.7032
31.6311
31.5157
31.3489
31.1208
30.8229
30.456
30.0524
29.7252
31.738
31.7033
31.6311
31.5157
31.3489
31.1209
30.8229
30.4561
30.0524
29.7253
31.738
31.7033
31.6311
31.5158
31.349
31.1209
30.823
30.4561
30.0525
29.7253
31.7381
31.7034
31.6312
31.5159
31.3491
31.121
30.8231
30.4562
30.0526
29.7254
31.7382
31.7035
31.6313
31.516
31.3492
31.1211
30.8232
30.4563
30.0527
29.7255
25.8865
25.8465
25.7627
25.6266
25.425
25.1387
24.7417
24.2031
23.5053
22.7531
25.8864
25.8464
25.7626
25.6265
25.4249
25.1386
24.7416
24.203
23.5052
22.753
25.8863
25.8463
25.7625
25.6264
25.4248
25.1385
24.7415
24.2029
23.5051
22.753
25.8863
25.8463
25.7624
25.6264
25.4248
25.1385
24.7415
24.2029
23.5051
22.7529
25.8862
25.8463
25.7624
25.6264
25.4248
25.1385
24.7415
24.2028
23.5051
22.7529
25.8862
25.8463
25.7624
25.6264
25.4248
25.1385
24.7415
24.2028
23.5051
22.7529
25.8863
25.8463
25.7625
25.6264
25.4248
25.1385
24.7415
24.2029
23.5051
22.753
25.8863
25.8463
25.7625
25.6265
25.4249
25.1386
24.7416
24.2029
23.5052
22.753
25.8864
25.8464
25.7626
25.6265
25.425
25.1387
24.7417
24.203
23.5052
22.7531
25.8865
25.8465
25.7627
25.6267
25.4251
25.1388
24.7418
24.2031
23.5054
22.7532
20.8392
20.7957
20.7039
20.5534
20.327
19.997
19.5186
18.8109
17.6988
15.7019
20.8391
20.7956
20.7038
20.5533
20.3269
19.9969
19.5185
18.8108
17.6987
15.7019
20.839
20.7955
20.7037
20.5532
20.3268
19.9968
19.5185
18.8107
17.6987
15.7018
20.839
20.7954
20.7036
20.5532
20.3268
19.9968
19.5184
18.8107
17.6986
15.7018
20.8389
20.7954
20.7036
20.5532
20.3267
19.9968
19.5184
18.8107
17.6986
15.7017
20.8389
20.7954
20.7036
20.5532
20.3267
19.9968
19.5184
18.8107
17.6986
15.7018
20.839
20.7954
20.7036
20.5532
20.3268
19.9968
19.5185
18.8107
17.6987
15.7018
20.839
20.7955
20.7037
20.5533
20.3268
19.9969
19.5185
18.8108
17.6987
15.7018
20.8391
20.7956
20.7038
20.5534
20.3269
19.997
19.5186
18.8109
17.6988
15.7019
20.8392
20.7957
20.7039
20.5535
20.327
19.9971
19.5187
18.811
17.6989
15.702
16.5557
16.511
16.4166
16.2615
16.0276
15.6863
15.1923
14.4726
13.4054
11.8043
16.5556
16.5109
16.4165
16.2614
16.0276
15.6862
15.1922
14.4725
13.4054
11.8042
16.5556
16.5108
16.4164
16.2614
16.0275
15.6861
15.1922
14.4724
13.4053
11.8042
16.5555
16.5108
16.4164
16.2613
16.0275
15.6861
15.1921
14.4724
13.4053
11.8042
16.5555
16.5108
16.4164
16.2613
16.0274
15.6861
15.1921
14.4724
13.4053
11.8041
16.5555
16.5108
16.4164
16.2613
16.0274
15.6861
15.1921
14.4724
13.4053
11.8042
16.5555
16.5108
16.4164
16.2614
16.0275
15.6861
15.1921
14.4724
13.4053
11.8042
16.5556
16.5109
16.4164
16.2614
16.0275
15.6862
15.1922
14.4725
13.4053
11.8042
16.5556
16.5109
16.4165
16.2615
16.0276
15.6862
15.1923
14.4726
13.4054
11.8043
16.5557
16.511
16.4166
16.2616
16.0277
15.6863
15.1924
14.4726
13.4055
11.8044
12.9791
12.9357
12.8444
12.6952
12.472
12.1512
11.6991
11.0707
10.2139
9.09907
12.979
12.9357
12.8443
12.6951
12.472
12.1512
11.6991
11.0707
10.2138
9.099
12.979
12.9356
12.8443
12.695
12.4719
12.1511
11.699
11.0706
10.2138
9.09895
12.9789
12.9356
12.8442
12.695
12.4719
12.1511
11.699
11.0706
10.2137
9.09893
12.9789
12.9356
12.8442
12.695
12.4719
12.1511
11.699
11.0706
10.2137
9.09891
12.9789
12.9356
12.8442
12.695
12.4719
12.1511
11.699
11.0706
10.2137
9.09892
12.9789
12.9356
12.8442
12.695
12.4719
12.1511
11.699
11.0706
10.2138
9.09895
12.979
12.9356
12.8443
12.6951
12.4719
12.1511
11.699
11.0706
10.2138
9.09899
12.979
12.9357
12.8444
12.6951
12.472
12.1512
11.6991
11.0707
10.2139
9.09905
12.9791
12.9358
12.8444
12.6952
12.4721
12.1513
11.6992
11.0708
10.2139
9.09913
10.0407
10.0009
9.91741
9.78237
9.58351
9.30419
8.92404
8.42218
7.787
7.04007
10.0406
10.0008
9.91734
9.7823
9.58344
9.30413
8.92398
8.42212
7.78694
7.04001
10.0406
10.0008
9.91729
9.78225
9.5834
9.30408
8.92394
8.42207
7.78689
7.03997
10.0406
10.0007
9.91726
9.78222
9.58337
9.30406
8.92391
8.42205
7.78687
7.03994
10.0405
10.0007
9.91725
9.78221
9.58336
9.30404
8.9239
8.42204
7.78686
7.03993
10.0406
10.0007
9.91725
9.78221
9.58336
9.30405
8.92391
8.42205
7.78687
7.03994
10.0406
10.0007
9.91728
9.78224
9.58339
9.30408
8.92393
8.42207
7.78689
7.03996
10.0406
10.0008
9.91732
9.78228
9.58343
9.30412
8.92397
8.42211
7.78693
7.04
10.0407
10.0008
9.91738
9.78234
9.58349
9.30418
8.92403
8.42217
7.78699
7.04005
10.0407
10.0009
9.91746
9.78242
9.58357
9.30426
8.92411
8.42224
7.78706
7.04012
7.66507
7.63025
7.55778
7.44197
7.27458
7.04557
6.74495
6.36686
5.91752
5.42829
7.66501
7.63019
7.55772
7.44191
7.27452
7.04551
6.74489
6.36681
5.91747
5.42824
7.66497
7.63014
7.55768
7.44187
7.27448
7.04547
6.74485
6.36677
5.91743
5.4282
7.66494
7.63012
7.55765
7.44185
7.27446
7.04545
6.74483
6.36675
5.91741
5.42818
7.66493
7.6301
7.55764
7.44184
7.27445
7.04544
6.74482
6.36674
5.9174
5.42817
7.66494
7.63011
7.55765
7.44184
7.27446
7.04545
6.74483
6.36675
5.91741
5.42818
7.66495
7.63013
7.55767
7.44187
7.27448
7.04547
6.74485
6.36677
5.91743
5.4282
7.66499
7.63016
7.5577
7.4419
7.27452
7.04551
6.74489
6.36681
5.91747
5.42823
7.66503
7.63021
7.55776
7.44196
7.27457
7.04556
6.74494
6.36686
5.91752
5.42828
7.66509
7.63028
7.55783
7.44203
7.27464
7.04563
6.74501
6.36692
5.91758
5.42834
5.77456
5.74544
5.68533
5.59058
5.45634
5.27761
5.05126
4.77934
4.47413
4.16413
5.7745
5.74539
5.68528
5.59054
5.45629
5.27756
5.05122
4.7793
4.47409
4.16408
5.77447
5.74535
5.68525
5.5905
5.45626
5.27753
5.05119
4.77927
4.47405
4.16405
5.77445
5.74533
5.68523
5.59048
5.45624
5.27751
5.05117
4.77925
4.47404
4.16403
5.77444
5.74532
5.68522
5.59047
5.45623
5.27751
5.05116
4.77925
4.47403
4.16403
5.77444
5.74533
5.68522
5.59048
5.45624
5.27751
5.05117
4.77925
4.47404
4.16403
5.77446
5.74534
5.68524
5.5905
5.45626
5.27753
5.05119
4.77927
4.47405
4.16405
5.77449
5.74537
5.68527
5.59053
5.45629
5.27756
5.05122
4.7793
4.47408
4.16408
5.77453
5.74542
5.68532
5.59058
5.45633
5.27761
5.05126
4.77934
4.47413
4.16412
5.77457
5.74547
5.68538
5.59064
5.45639
5.27767
5.05132
4.7794
4.47418
4.16418
4.29333
4.26996
4.22211
4.14776
4.0446
3.91109
3.7482
3.5618
3.36552
3.18285
4.29329
4.26992
4.22207
4.14772
4.04456
3.91105
3.74816
3.56176
3.36548
3.18282
4.29326
4.26989
4.22204
4.1477
4.04453
3.91103
3.74813
3.56173
3.36546
3.18279
4.29324
4.26987
4.22202
4.14768
4.04452
3.91101
3.74812
3.56172
3.36544
3.18278
4.29324
4.26986
4.22202
4.14767
4.04451
3.91101
3.74811
3.56171
3.36544
3.18277
4.29324
4.26987
4.22202
4.14768
4.04452
3.91101
3.74812
3.56172
3.36544
3.18277
4.29325
4.26988
4.22204
4.14769
4.04453
3.91103
3.74814
3.56174
3.36546
3.18279
4.29328
4.26991
4.22206
4.14772
4.04456
3.91105
3.74816
3.56176
3.36548
3.18282
4.29331
4.26994
4.2221
4.14776
4.0446
3.91109
3.7482
3.5618
3.36552
3.18285
4.29335
4.26999
4.22215
4.14781
4.04465
3.91114
3.74825
3.56185
3.36556
3.1829
3.15042
3.13233
3.09564
3.03947
2.96324
2.86759
2.75583
2.63581
2.52173
2.43446
3.15039
3.1323
3.09561
3.03944
2.96321
2.86756
2.7558
2.63578
2.5217
2.43442
3.15036
3.13228
3.09558
3.03942
2.96319
2.86754
2.75578
2.63576
2.52168
2.4344
3.15035
3.13226
3.09557
3.0394
2.96317
2.86752
2.75577
2.63575
2.52167
2.43439
3.15034
3.13226
3.09556
3.0394
2.96317
2.86752
2.75577
2.63575
2.52166
2.43438
3.15035
3.13226
3.09557
3.0394
2.96317
2.86753
2.75577
2.63575
2.52167
2.43439
3.15036
3.13227
3.09558
3.03942
2.96319
2.86754
2.75578
2.63576
2.52168
2.4344
3.15038
3.1323
3.0956
3.03944
2.96321
2.86756
2.75581
2.63579
2.5217
2.43442
3.15041
3.13233
3.09564
3.03947
2.96324
2.86759
2.75584
2.63582
2.52173
2.43445
3.15044
3.13236
3.09568
3.03951
2.96328
2.86763
2.75588
2.63586
2.52177
2.43449
2.28172
2.26819
2.24099
2.2
2.14566
2.07983
2.00703
1.93626
1.88343
1.87349
2.2817
2.26817
2.24096
2.19997
2.14564
2.07981
2.00701
1.93624
1.8834
1.87347
2.28168
2.26815
2.24095
2.19995
2.14562
2.07979
2.00699
1.93622
1.88339
1.87345
2.28167
2.26814
2.24093
2.19994
2.14561
2.07978
2.00698
1.93621
1.88338
1.87344
2.28166
2.26813
2.24093
2.19994
2.14561
2.07978
2.00698
1.93621
1.88337
1.87343
2.28167
2.26814
2.24093
2.19994
2.14561
2.07978
2.00698
1.93621
1.88338
1.87344
2.28168
2.26815
2.24095
2.19995
2.14562
2.0798
2.007
1.93622
1.88339
1.87345
2.28169
2.26816
2.24096
2.19997
2.14564
2.07981
2.00701
1.93624
1.88341
1.87347
2.28172
2.26819
2.24099
2.2
2.14567
2.07984
2.00704
1.93627
1.88343
1.87349
2.28174
2.26822
2.24102
2.20003
2.1457
2.07987
2.00707
1.9363
1.88346
1.87353
1.63117
1.62135
1.60178
1.57276
1.53521
1.49138
1.44589
1.40758
1.3936
1.44205
1.63115
1.62133
1.60176
1.57274
1.53519
1.49136
1.44587
1.40756
1.39358
1.44203
1.63113
1.62131
1.60175
1.57273
1.53518
1.49135
1.44586
1.40755
1.39356
1.44201
1.63113
1.62131
1.60174
1.57272
1.53517
1.49134
1.44585
1.40754
1.39356
1.44201
1.63112
1.6213
1.60174
1.57272
1.53517
1.49134
1.44585
1.40754
1.39355
1.442
1.63113
1.62131
1.60174
1.57272
1.53517
1.49134
1.44585
1.40754
1.39356
1.44201
1.63113
1.62131
1.60175
1.57273
1.53518
1.49135
1.44586
1.40755
1.39357
1.44202
1.63115
1.62133
1.60177
1.57274
1.5352
1.49136
1.44587
1.40756
1.39358
1.44203
1.63117
1.62135
1.60179
1.57276
1.53522
1.49139
1.44589
1.40758
1.3936
1.44205
1.63119
1.62137
1.60181
1.57279
1.53524
1.49141
1.44592
1.40761
1.39363
1.44208
11.1511
8.74488
7.65987
7.60244
8.51535
10.4934
13.7794
18.8189
26.4144
38.1368
11.151
8.74481
7.65979
7.60235
8.51525
10.4933
13.7793
18.8188
26.4142
38.1365
11.1509
8.74475
7.65973
7.60228
8.51517
10.4932
13.7792
18.8186
26.414
38.1363
11.1509
8.74472
7.65969
7.60224
8.51512
10.4932
13.7791
18.8185
26.4139
38.1362
11.1509
8.7447
7.65967
7.60222
8.5151
10.4931
13.7791
18.8185
26.4139
38.1361
11.1509
8.74471
7.65967
7.60222
8.51509
10.4931
13.7791
18.8185
26.4139
38.1361
11.1509
8.74473
7.65969
7.60224
8.51511
10.4931
13.7791
18.8185
26.4139
38.1362
11.151
8.74477
7.65973
7.60227
8.51515
10.4932
13.7791
18.8186
26.414
38.1363
11.151
8.74482
7.65978
7.60232
8.51521
10.4932
13.7792
18.8187
26.4141
38.1364
11.1511
8.74488
7.65984
7.60238
8.51527
10.4933
13.7793
18.8188
26.4142
38.1366
9.55441
7.95304
7.17161
7.21038
8.09827
9.93687
12.9175
17.3362
23.5911
32.0583
9.55434
7.95296
7.17153
7.21029
8.09817
9.93676
12.9174
17.336
23.5909
32.0581
9.55429
7.95291
7.17148
7.21023
8.0981
9.93668
12.9173
17.3359
23.5908
32.0579
9.55426
7.95288
7.17144
7.21019
8.09805
9.93662
12.9172
17.3358
23.5907
32.0578
9.55425
7.95286
7.17143
7.21017
8.09803
9.93659
12.9172
17.3358
23.5906
32.0578
9.55425
7.95287
7.17143
7.21017
8.09802
9.93659
12.9172
17.3357
23.5906
32.0578
9.55427
7.95289
7.17145
7.21019
8.09804
9.93661
12.9172
17.3358
23.5907
32.0578
9.55432
7.95293
7.17148
7.21022
8.09808
9.93666
12.9173
17.3358
23.5908
32.0579
9.55438
7.95298
7.17154
7.21028
8.09814
9.93672
12.9173
17.3359
23.5909
32.0581
9.55445
7.95305
7.17161
7.21035
8.09822
9.93681
12.9174
17.3361
23.591
32.0582
7.82689
6.84969
6.38503
6.53031
7.35939
8.96611
11.478
15.0458
19.7906
25.6468
7.82682
6.84962
6.38496
6.53024
7.3593
8.96601
11.4778
15.0457
19.7905
25.6466
7.82678
6.84958
6.38491
6.53018
7.35923
8.96593
11.4778
15.0456
19.7903
25.6465
7.82675
6.84954
6.38487
6.53014
7.35919
8.96588
11.4777
15.0455
19.7903
25.6464
7.82674
6.84953
6.38486
6.53012
7.35917
8.96585
11.4777
15.0455
19.7902
25.6463
7.82674
6.84954
6.38486
6.53012
7.35917
8.96585
11.4777
15.0455
19.7902
25.6463
7.82676
6.84956
6.38488
6.53014
7.35919
8.96587
11.4777
15.0455
19.7903
25.6464
7.8268
6.84959
6.38491
6.53018
7.35923
8.96592
11.4777
15.0456
19.7903
25.6465
7.82686
6.84965
6.38497
6.53023
7.35929
8.96599
11.4778
15.0457
19.7904
25.6466
7.82693
6.84972
6.38504
6.53031
7.35937
8.96608
11.4779
15.0458
19.7906
25.6468
6.27944
5.70746
5.47895
5.69583
6.43615
7.7746
9.78649
12.5314
16.0071
20.063
6.27938
5.7074
5.47889
5.69576
6.43607
7.77451
9.78637
12.5312
16.007
20.0628
6.27934
5.70736
5.47884
5.69571
6.43601
7.77444
9.78629
12.5311
16.0069
20.0627
6.27931
5.70733
5.47881
5.69567
6.43597
7.77439
9.78624
12.5311
16.0068
20.0626
6.2793
5.70732
5.4788
5.69565
6.43595
7.77437
9.78621
12.531
16.0068
20.0626
6.27931
5.70732
5.4788
5.69566
6.43595
7.77437
9.78621
12.531
16.0068
20.0626
6.27933
5.70734
5.47882
5.69568
6.43597
7.77439
9.78624
12.5311
16.0068
20.0626
6.27936
5.70738
5.47885
5.69571
6.43601
7.77444
9.78629
12.5311
16.0069
20.0627
6.27942
5.70743
5.4789
5.69577
6.43607
7.7745
9.78637
12.5312
16.007
20.0628
6.27948
5.70749
5.47897
5.69584
6.43615
7.77459
9.78647
12.5313
16.0071
20.063
4.97029
4.6527
4.57744
4.8254
5.46089
6.53712
8.0941
10.145
12.6486
15.4724
4.97024
4.65265
4.57739
4.82533
5.46082
6.53704
8.094
10.1448
12.6484
15.4722
4.9702
4.65261
4.57734
4.82529
5.46076
6.53698
8.09393
10.1448
12.6483
15.4721
4.97018
4.65258
4.57732
4.82526
5.46073
6.53694
8.09388
10.1447
12.6483
15.4721
4.97017
4.65257
4.5773
4.82524
5.46071
6.53692
8.09386
10.1447
12.6482
15.472
4.97017
4.65258
4.57731
4.82524
5.46071
6.53692
8.09386
10.1447
12.6482
15.472
4.97019
4.65259
4.57733
4.82526
5.46073
6.53694
8.09389
10.1447
12.6483
15.4721
4.97022
4.65263
4.57736
4.8253
5.46077
6.53698
8.09393
10.1448
12.6483
15.4722
4.97027
4.65267
4.57741
4.82535
5.46083
6.53704
8.09401
10.1449
12.6484
15.4723
4.97033
4.65273
4.57747
4.82541
5.4609
6.53713
8.0941
10.145
12.6486
15.4724
3.89803
3.74054
3.75776
4.0078
4.53784
5.38276
6.5609
8.06488
9.84823
11.8134
3.89799
3.74049
3.75771
4.00774
4.53778
5.38269
6.56081
8.06479
9.84812
11.8133
3.89796
3.74046
3.75767
4.0077
4.53773
5.38263
6.56075
8.06471
9.84804
11.8132
3.89794
3.74044
3.75765
4.00768
4.5377
5.3826
6.56071
8.06467
9.84799
11.8131
3.89793
3.74043
3.75764
4.00766
4.53769
5.38258
6.56069
8.06465
9.84796
11.8131
3.89793
3.74043
3.75764
4.00767
4.53769
5.38258
6.56069
8.06465
9.84797
11.8131
3.89795
3.74045
3.75766
4.00768
4.53771
5.3826
6.56072
8.06468
9.848
11.8131
3.89798
3.74048
3.75769
4.00771
4.53774
5.38264
6.56076
8.06473
9.84806
11.8132
3.89802
3.74052
3.75773
4.00776
4.53779
5.3827
6.56083
8.0648
9.84814
11.8133
3.89807
3.74057
3.75779
4.00782
4.53786
5.38277
6.56091
8.0649
9.84826
11.8134
3.04636
2.99313
3.06522
3.30292
3.73912
4.39522
5.27661
6.36711
7.62377
8.97681
3.04632
2.99309
3.06518
3.30287
3.73906
4.39515
5.27653
6.36702
7.62368
8.97671
3.04629
2.99306
3.06515
3.30283
3.73902
4.3951
5.27648
6.36696
7.62361
8.97663
3.04627
2.99304
3.06513
3.30281
3.73899
4.39507
5.27644
6.36692
7.62357
8.97658
3.04627
2.99303
3.06512
3.3028
3.73898
4.39506
5.27643
6.36691
7.62355
8.97656
3.04627
2.99304
3.06512
3.3028
3.73899
4.39506
5.27643
6.36691
7.62355
8.97657
3.04629
2.99305
3.06514
3.30282
3.739
4.39508
5.27645
6.36693
7.62358
8.9766
3.04631
2.99308
3.06516
3.30285
3.73903
4.39512
5.27649
6.36698
7.62364
8.97666
3.04635
2.99312
3.0652
3.30289
3.73908
4.39517
5.27655
6.36705
7.62371
8.97675
3.04639
2.99316
3.06525
3.30294
3.73914
4.39524
5.27663
6.36713
7.62381
8.97686
2.39646
2.4181
2.52553
2.74832
3.11024
3.62395
4.28674
5.07694
5.95241
6.85633
2.39642
2.41806
2.52549
2.74827
3.11019
3.62389
4.28668
5.07687
5.95233
6.85625
2.3964
2.41804
2.52546
2.74824
3.11016
3.62385
4.28663
5.07682
5.95228
6.85618
2.39638
2.41802
2.52545
2.74822
3.11014
3.62383
4.2866
5.07678
5.95224
6.85615
2.39638
2.41801
2.52544
2.74821
3.11013
3.62382
4.28659
5.07677
5.95223
6.85613
2.39638
2.41802
2.52544
2.74822
3.11013
3.62382
4.28659
5.07677
5.95223
6.85614
2.3964
2.41803
2.52546
2.74823
3.11015
3.62384
4.28661
5.0768
5.95226
6.85616
2.39642
2.41805
2.52548
2.74826
3.11017
3.62387
4.28665
5.07684
5.9523
6.85622
2.39645
2.41809
2.52552
2.74829
3.11022
3.62391
4.2867
5.0769
5.95237
6.85629
2.39649
2.41813
2.52556
2.74834
3.11027
3.62397
4.28677
5.07697
5.95246
6.85639
1.93384
2.0196
2.15418
2.36677
2.67827
3.09677
3.61413
4.20254
4.81187
5.37361
1.93381
2.01957
2.15415
2.36673
2.67823
3.09672
3.61407
4.20248
4.81181
5.37354
1.93379
2.01955
2.15412
2.3667
2.6782
3.09668
3.61404
4.20243
4.81176
5.37349
1.93378
2.01954
2.15411
2.36668
2.67818
3.09666
3.61401
4.20241
4.81173
5.37345
1.93378
2.01953
2.1541
2.36668
2.67817
3.09665
3.614
4.2024
4.81172
5.37344
1.93378
2.01954
2.15411
2.36668
2.67818
3.09666
3.61401
4.2024
4.81173
5.37345
1.93379
2.01955
2.15412
2.36669
2.67819
3.09667
3.61402
4.20242
4.81175
5.37347
1.93381
2.01957
2.15414
2.36672
2.67822
3.0967
3.61406
4.20246
4.81179
5.37352
1.93384
2.0196
2.15417
2.36675
2.67825
3.09674
3.6141
4.20251
4.81185
5.37358
1.93387
2.01964
2.15421
2.3668
2.6783
3.0968
3.61417
4.20258
4.81193
5.37367
1.66241
1.80812
1.96321
2.17218
2.4586
2.82928
3.27291
3.75553
4.21124
4.52106
1.66239
1.8081
1.96319
2.17215
2.45857
2.82924
3.27287
3.75549
4.21119
4.521
1.66237
1.80808
1.96317
2.17212
2.45854
2.82921
3.27283
3.75545
4.21116
4.52096
1.66236
1.80807
1.96315
2.17211
2.45853
2.82919
3.27281
3.75542
4.21113
4.52094
1.66236
1.80806
1.96315
2.1721
2.45852
2.82918
3.2728
3.75541
4.21112
4.52092
1.66236
1.80807
1.96315
2.17211
2.45852
2.82918
3.27281
3.75542
4.21113
4.52093
1.66237
1.80808
1.96316
2.17212
2.45854
2.8292
3.27282
3.75544
4.21115
4.52095
1.66239
1.8081
1.96318
2.17214
2.45856
2.82923
3.27286
3.75548
4.21119
4.521
1.66242
1.80813
1.96321
2.17218
2.4586
2.82927
3.2729
3.75552
4.21124
4.52105
1.66245
1.80816
1.96325
2.17222
2.45864
2.82932
3.27296
3.75559
4.21131
4.52113
57.5358
66.1242
70.9169
73.9542
75.9917
77.385
78.3331
78.9584
79.3377
79.5167
57.5354
66.1238
70.9165
73.9538
75.9913
77.3845
78.3327
78.9579
79.3373
79.5164
57.5352
66.1236
70.9162
73.9535
75.991
77.3843
78.3324
78.9577
79.337
79.5162
57.5351
66.1234
70.9161
73.9534
75.9908
77.3841
78.3322
78.9575
79.3369
79.516
57.535
66.1233
70.916
73.9533
75.9908
77.384
78.3321
78.9574
79.3368
79.516
57.535
66.1233
70.916
73.9533
75.9908
77.384
78.3322
78.9575
79.3369
79.516
57.5351
66.1234
70.9161
73.9534
75.9909
77.3842
78.3323
78.9576
79.337
79.5162
57.5352
66.1236
70.9163
73.9536
75.9911
77.3844
78.3325
78.9578
79.3372
79.5164
57.5354
66.1238
70.9165
73.9538
75.9914
77.3847
78.3328
78.9581
79.3375
79.5167
57.5356
66.1241
70.9168
73.9542
75.9917
77.385
78.3332
78.9585
79.3379
79.5171
42.3364
49.4935
54.2071
57.3507
59.4835
60.9411
61.9295
62.579
62.9719
63.1571
42.3361
49.4932
54.2068
57.3503
59.4832
60.9408
61.9291
62.5786
62.9716
63.1568
42.3359
49.493
54.2066
57.3501
59.483
60.9405
61.9289
62.5784
62.9713
63.1566
42.3358
49.4929
54.2064
57.35
59.4828
60.9404
61.9288
62.5783
62.9712
63.1565
42.3357
49.4928
54.2063
57.3499
59.4827
60.9403
61.9287
62.5782
62.9712
63.1564
42.3357
49.4928
54.2063
57.3499
59.4828
60.9403
61.9287
62.5782
62.9712
63.1565
42.3358
49.4929
54.2064
57.35
59.4829
60.9404
61.9288
62.5784
62.9713
63.1566
42.3359
49.493
54.2066
57.3502
59.483
60.9406
61.929
62.5786
62.9715
63.1568
42.3361
49.4932
54.2068
57.3504
59.4833
60.9409
61.9293
62.5788
62.9718
63.1571
42.3363
49.4935
54.2071
57.3507
59.4836
60.9412
61.9297
62.5792
62.9722
63.1575
31.9997
37.2515
41.1665
43.9765
45.9626
47.3508
48.304
48.9347
49.3178
49.4986
31.9995
37.2512
41.1663
43.9762
45.9623
47.3505
48.3037
48.9344
49.3175
49.4984
31.9993
37.251
41.1661
43.976
45.9621
47.3503
48.3034
48.9342
49.3173
49.4983
31.9992
37.2509
41.1659
43.9759
45.962
47.3501
48.3033
48.9341
49.3172
49.4981
31.9991
37.2509
41.1659
43.9758
45.9619
47.3501
48.3033
48.934
49.3171
49.4981
31.9991
37.2509
41.1659
43.9758
45.9619
47.3501
48.3033
48.9341
49.3172
49.4981
31.9992
37.2509
41.166
43.9759
45.962
47.3502
48.3034
48.9342
49.3173
49.4983
31.9993
37.2511
41.1661
43.9761
45.9622
47.3504
48.3036
48.9344
49.3175
49.4985
31.9995
37.2512
41.1663
43.9763
45.9624
47.3506
48.3038
48.9346
49.3177
49.4987
31.9997
37.2515
41.1666
43.9766
45.9627
47.351
48.3042
48.935
49.3181
49.4991
24.2891
28.0464
31.0757
33.3872
35.0933
36.3216
37.1818
37.7585
38.1117
38.2792
24.2889
28.0462
31.0755
33.3869
35.0931
36.3213
37.1815
37.7583
38.1115
38.2791
24.2888
28.0461
31.0753
33.3868
35.0929
36.3211
37.1814
37.7581
38.1113
38.2789
24.2887
28.046
31.0752
33.3866
35.0928
36.321
37.1813
37.758
38.1112
38.2788
24.2887
28.0459
31.0752
33.3866
35.0927
36.321
37.1812
37.758
38.1112
38.2788
24.2887
28.0459
31.0752
33.3866
35.0927
36.321
37.1812
37.758
38.1112
38.2788
24.2887
28.046
31.0753
33.3867
35.0928
36.3211
37.1813
37.7581
38.1113
38.2789
24.2888
28.0461
31.0754
33.3868
35.093
36.3212
37.1815
37.7583
38.1115
38.2791
24.289
28.0463
31.0756
33.387
35.0932
36.3215
37.1817
37.7585
38.1117
38.2794
24.2892
28.0465
31.0758
33.3873
35.0935
36.3218
37.182
37.7588
38.112
38.2797
18.3704
21.039
23.2992
25.1056
26.4906
27.5174
28.2525
28.753
29.0628
29.2106
18.3703
21.0388
23.2991
25.1054
26.4904
27.5172
28.2523
28.7528
29.0626
29.2105
18.3701
21.0387
23.2989
25.1053
26.4903
27.5171
28.2521
28.7527
29.0625
29.2104
18.3701
21.0386
23.2988
25.1052
26.4902
27.517
28.252
28.7526
29.0624
29.2103
18.37
21.0386
23.2988
25.1051
26.4901
27.5169
28.252
28.7526
29.0624
29.2103
18.37
21.0386
23.2988
25.1051
26.4902
27.517
28.252
28.7526
29.0624
29.2103
18.3701
21.0386
23.2989
25.1052
26.4902
27.517
28.2521
28.7527
29.0625
29.2104
18.3702
21.0387
23.299
25.1053
26.4904
27.5172
28.2522
28.7528
29.0626
29.2105
18.3703
21.0389
23.2991
25.1055
26.4906
27.5174
28.2524
28.753
29.0628
29.2108
18.3705
21.0391
23.2993
25.1057
26.4908
27.5176
28.2527
28.7533
29.0631
29.211
13.8147
15.6933
17.3374
18.6981
19.7754
20.5958
21.1959
21.6113
21.8712
21.9961
13.8146
15.6932
17.3372
18.6979
19.7752
20.5957
21.1957
21.6111
21.871
21.996
13.8145
15.6931
17.3371
18.6978
19.7751
20.5955
21.1956
21.611
21.8709
21.9959
13.8144
15.693
17.337
18.6977
19.775
20.5954
21.1955
21.6109
21.8709
21.9958
13.8144
15.693
17.337
18.6977
19.775
20.5954
21.1955
21.6109
21.8708
21.9958
13.8144
15.693
17.337
18.6977
19.775
20.5954
21.1955
21.6109
21.8709
21.9958
13.8144
15.693
17.3371
18.6978
19.775
20.5955
21.1956
21.611
21.871
21.9959
13.8145
15.6931
17.3371
18.6979
19.7752
20.5956
21.1957
21.6111
21.8711
21.996
13.8146
15.6933
17.3373
18.698
19.7753
20.5958
21.1959
21.6113
21.8713
21.9962
13.8148
15.6934
17.3375
18.6982
19.7755
20.596
21.1961
21.6115
21.8715
21.9965
10.3409
11.6376
12.8014
13.7934
14.6013
15.2322
15.7032
16.0345
16.2442
16.3457
10.3408
11.6374
12.8013
13.7933
14.6012
15.232
15.703
16.0343
16.2441
16.3456
10.3407
11.6373
12.8012
13.7932
14.6011
15.2319
15.7029
16.0342
16.244
16.3455
10.3407
11.6373
12.8011
13.7931
14.601
15.2319
15.7028
16.0342
16.2439
16.3454
10.3407
11.6373
12.8011
13.7931
14.601
15.2318
15.7028
16.0341
16.2439
16.3454
10.3407
11.6373
12.8011
13.7931
14.601
15.2319
15.7029
16.0342
16.2439
16.3455
10.3407
11.6373
12.8012
13.7932
14.6011
15.2319
15.7029
16.0342
16.244
16.3455
10.3408
11.6374
12.8013
13.7933
14.6012
15.232
15.703
16.0343
16.2441
16.3456
10.3409
11.6375
12.8014
13.7934
14.6013
15.2322
15.7032
16.0345
16.2443
16.3458
10.341
11.6376
12.8015
13.7936
14.6015
15.2323
15.7034
16.0347
16.2445
16.346
7.7386
8.5921
9.38341
10.0804
10.6651
11.1332
11.4899
11.7449
11.9083
11.9878
7.7385
8.592
9.3833
10.0803
10.6649