/*--------------------------------*- C++ -*----------------------------------*\
  =========                 |
  \\      /  F ield         | OpenFOAM: The Open Source CFD Toolbox
   \\    /   O peration     | Website:  https://openfoam.org
    \\  /    A nd           | Version:  6
     \\/     M anipulation  |
\*---------------------------------------------------------------------------*/
FoamFile
{
    version     2.0;
    format      ascii;
    class       volScalarField;
    location    "0.915";
    object      T;
}
// * * * * * * * * * * * * * * * * * * * * * * * * * * * * * * * * * * * * * //

dimensions      [0 0 0 1 0 0 0];

internalField   nonuniform List<scalar> 
7000
(
106.651
106.65
106.647
106.644
106.641
106.637
106.633
106.629
106.626
106.625
106.651
106.65
106.647
106.644
106.641
106.637
106.633
106.629
106.626
106.625
106.651
106.65
106.647
106.644
106.641
106.637
106.633
106.629
106.626
106.625
106.651
106.65
106.647
106.644
106.641
106.637
106.633
106.629
106.626
106.625
106.651
106.65
106.647
106.644
106.641
106.637
106.633
106.629
106.626
106.625
106.651
106.65
106.647
106.644
106.641
106.637
106.633
106.629
106.626
106.625
106.651
106.65
106.647
106.644
106.641
106.637
106.633
106.629
106.626
106.625
106.651
106.65
106.647
106.644
106.641
106.637
106.633
106.629
106.626
106.625
106.651
106.65
106.647
106.644
106.641
106.637
106.633
106.629
106.626
106.625
106.651
106.65
106.647
106.644
106.641
106.637
106.633
106.629
106.626
106.625
99.972
99.9686
99.962
99.9528
99.9415
99.9291
99.9167
99.9058
99.8975
99.8931
99.972
99.9686
99.962
99.9528
99.9415
99.9291
99.9167
99.9058
99.8975
99.893
99.9719
99.9686
99.962
99.9527
99.9414
99.929
99.9167
99.9057
99.8975
99.893
99.9719
99.9686
99.962
99.9527
99.9414
99.929
99.9167
99.9057
99.8975
99.893
99.9719
99.9686
99.962
99.9527
99.9414
99.929
99.9167
99.9057
99.8975
99.893
99.9719
99.9685
99.962
99.9527
99.9414
99.929
99.9167
99.9057
99.8975
99.893
99.9719
99.9685
99.962
99.9527
99.9414
99.929
99.9167
99.9057
99.8975
99.893
99.9719
99.9686
99.962
99.9527
99.9414
99.929
99.9167
99.9057
99.8975
99.893
99.9719
99.9686
99.962
99.9527
99.9414
99.929
99.9167
99.9057
99.8975
99.893
99.9719
99.9686
99.962
99.9528
99.9415
99.9291
99.9167
99.9058
99.8975
99.893
93.3524
93.3467
93.3357
93.32
93.3007
93.2793
93.2579
93.2388
93.2242
93.2163
93.3524
93.3467
93.3357
93.3199
93.3007
93.2793
93.2579
93.2387
93.2242
93.2163
93.3524
93.3467
93.3356
93.3199
93.3006
93.2793
93.2579
93.2387
93.2242
93.2163
93.3524
93.3467
93.3356
93.3199
93.3006
93.2793
93.2579
93.2387
93.2242
93.2163
93.3524
93.3467
93.3356
93.3199
93.3006
93.2793
93.2579
93.2387
93.2241
93.2163
93.3524
93.3467
93.3356
93.3199
93.3006
93.2793
93.2579
93.2387
93.2241
93.2163
93.3524
93.3467
93.3356
93.3199
93.3006
93.2793
93.2579
93.2387
93.2242
93.2163
93.3524
93.3467
93.3356
93.3199
93.3006
93.2793
93.2579
93.2387
93.2242
93.2163
93.3524
93.3467
93.3356
93.3199
93.3006
93.2793
93.2579
93.2387
93.2242
93.2163
93.3524
93.3467
93.3357
93.3199
93.3007
93.2793
93.2579
93.2387
93.2242
93.2163
86.831
86.8229
86.8071
86.7846
86.7568
86.7256
86.6938
86.6649
86.6427
86.6305
86.8309
86.8228
86.8071
86.7846
86.7567
86.7255
86.6938
86.6649
86.6426
86.6304
86.8309
86.8228
86.8071
86.7846
86.7567
86.7255
86.6938
86.6649
86.6426
86.6304
86.8309
86.8228
86.8071
86.7846
86.7567
86.7255
86.6938
86.6649
86.6426
86.6304
86.8309
86.8228
86.8071
86.7846
86.7567
86.7255
86.6938
86.6649
86.6426
86.6304
86.8309
86.8228
86.8071
86.7846
86.7567
86.7255
86.6938
86.6649
86.6426
86.6304
86.8309
86.8228
86.8071
86.7846
86.7567
86.7255
86.6938
86.6649
86.6426
86.6304
86.8309
86.8228
86.8071
86.7846
86.7567
86.7255
86.6938
86.6649
86.6426
86.6304
86.8309
86.8228
86.8071
86.7846
86.7567
86.7255
86.6938
86.6649
86.6426
86.6304
86.8309
86.8228
86.8071
86.7846
86.7567
86.7256
86.6938
86.6649
86.6427
86.6305
80.4452
80.4347
80.4143
80.3847
80.3476
80.3054
80.2615
80.2205
80.1882
80.1701
80.4452
80.4347
80.4142
80.3847
80.3476
80.3054
80.2614
80.2205
80.1882
80.1701
80.4451
80.4347
80.4142
80.3846
80.3476
80.3053
80.2614
80.2205
80.1881
80.1701
80.4451
80.4347
80.4142
80.3846
80.3475
80.3053
80.2614
80.2205
80.1881
80.1701
80.4451
80.4347
80.4142
80.3846
80.3475
80.3053
80.2614
80.2205
80.1881
80.17
80.4451
80.4346
80.4142
80.3846
80.3475
80.3053
80.2614
80.2205
80.1881
80.17
80.4451
80.4347
80.4142
80.3846
80.3475
80.3053
80.2614
80.2205
80.1881
80.17
80.4451
80.4347
80.4142
80.3846
80.3476
80.3053
80.2614
80.2205
80.1881
80.1701
80.4451
80.4347
80.4142
80.3846
80.3476
80.3053
80.2614
80.2205
80.1881
80.1701
80.4452
80.4347
80.4142
80.3847
80.3476
80.3054
80.2615
80.2205
80.1882
80.1701
74.2313
74.2186
74.1936
74.1571
74.1104
74.0559
73.9975
73.941
73.8946
73.8677
74.2313
74.2186
74.1936
74.157
74.1104
74.0559
73.9975
73.941
73.8945
73.8677
74.2312
74.2185
74.1935
74.157
74.1103
74.0559
73.9975
73.941
73.8945
73.8676
74.2312
74.2185
74.1935
74.157
74.1103
74.0559
73.9975
73.9409
73.8945
73.8676
74.2312
74.2185
74.1935
74.157
74.1103
74.0559
73.9974
73.9409
73.8945
73.8676
74.2312
74.2185
74.1935
74.157
74.1103
74.0559
73.9974
73.9409
73.8945
73.8676
74.2312
74.2185
74.1935
74.157
74.1103
74.0559
73.9975
73.9409
73.8945
73.8676
74.2312
74.2185
74.1935
74.157
74.1103
74.0559
73.9975
73.941
73.8945
73.8676
74.2312
74.2185
74.1935
74.157
74.1104
74.0559
73.9975
73.941
73.8945
73.8677
74.2312
74.2186
74.1936
74.157
74.1104
74.0559
73.9975
73.941
73.8946
73.8677
68.2232
68.2087
68.18
68.1373
68.0815
68.0141
67.9387
67.8615
67.7939
67.7523
68.2232
68.2087
68.1799
68.1373
68.0814
68.0141
67.9386
67.8615
67.7939
67.7523
68.2232
68.2087
68.1799
68.1372
68.0814
68.0141
67.9386
67.8614
67.7939
67.7523
68.2231
68.2087
68.1799
68.1372
68.0814
68.014
67.9386
67.8614
67.7939
67.7522
68.2231
68.2086
68.1799
68.1372
68.0814
68.014
67.9386
67.8614
67.7938
67.7522
68.2231
68.2086
68.1799
68.1372
68.0814
68.014
67.9386
67.8614
67.7938
67.7522
68.2231
68.2086
68.1799
68.1372
68.0814
68.014
67.9386
67.8614
67.7939
67.7522
68.2231
68.2087
68.1799
68.1372
68.0814
68.014
67.9386
67.8614
67.7939
67.7523
68.2232
68.2087
68.1799
68.1372
68.0814
68.0141
67.9386
67.8614
67.7939
67.7523
68.2232
68.2087
68.1799
68.1373
68.0814
68.0141
67.9386
67.8615
67.7939
67.7523
62.4521
62.4367
62.4058
62.3591
62.2962
62.217
62.1226
62.0181
61.9168
61.847
62.4521
62.4367
62.4058
62.3591
62.2962
62.2169
62.1226
62.018
61.9168
61.8469
62.4521
62.4367
62.4058
62.3591
62.2961
62.2169
62.1226
62.018
61.9168
61.8469
62.452
62.4367
62.4057
62.359
62.2961
62.2169
62.1225
62.018
61.9167
61.8469
62.452
62.4366
62.4057
62.359
62.2961
62.2169
62.1225
62.018
61.9167
61.8469
62.452
62.4366
62.4057
62.359
62.2961
62.2169
62.1225
62.018
61.9167
61.8469
62.452
62.4366
62.4057
62.359
62.2961
62.2169
62.1225
62.018
61.9167
61.8469
62.452
62.4367
62.4058
62.359
62.2961
62.2169
62.1225
62.018
61.9167
61.8469
62.4521
62.4367
62.4058
62.3591
62.2961
62.2169
62.1226
62.018
61.9168
61.8469
62.4521
62.4367
62.4058
62.3591
62.2962
62.217
62.1226
62.0181
61.9168
61.847
56.9456
56.9307
56.9005
56.8539
56.7888
56.7023
56.5906
56.4518
56.2945
56.1616
56.9455
56.9306
56.9004
56.8538
56.7888
56.7023
56.5906
56.4517
56.2945
56.1615
56.9455
56.9306
56.9004
56.8538
56.7887
56.7022
56.5905
56.4517
56.2944
56.1615
56.9455
56.9306
56.9004
56.8538
56.7887
56.7022
56.5905
56.4517
56.2944
56.1615
56.9454
56.9306
56.9004
56.8537
56.7887
56.7022
56.5905
56.4517
56.2944
56.1615
56.9454
56.9306
56.9004
56.8537
56.7887
56.7022
56.5905
56.4517
56.2944
56.1615
56.9454
56.9306
56.9004
56.8537
56.7887
56.7022
56.5905
56.4517
56.2944
56.1615
56.9455
56.9306
56.9004
56.8538
56.7887
56.7022
56.5905
56.4517
56.2944
56.1615
56.9455
56.9306
56.9004
56.8538
56.7888
56.7023
56.5906
56.4517
56.2945
56.1615
56.9455
56.9306
56.9004
56.8538
56.7888
56.7023
56.5906
56.4518
56.2945
56.1616
51.7264
51.7141
51.6889
51.649
51.5911
51.5086
51.3903
51.218
50.9712
50.6732
51.7264
51.7141
51.6888
51.649
51.591
51.5086
51.3903
51.218
50.9712
50.6731
51.7264
51.714
51.6888
51.6489
51.591
51.5085
51.3902
51.2179
50.9712
50.6731
51.7263
51.714
51.6888
51.6489
51.591
51.5085
51.3902
51.2179
50.9711
50.6731
51.7263
51.714
51.6888
51.6489
51.5909
51.5085
51.3902
51.2179
50.9711
50.673
51.7263
51.714
51.6887
51.6489
51.5909
51.5085
51.3902
51.2179
50.9711
50.673
51.7263
51.714
51.6888
51.6489
51.5909
51.5085
51.3902
51.2179
50.9711
50.6731
51.7263
51.714
51.6888
51.6489
51.591
51.5085
51.3902
51.2179
50.9711
50.6731
51.7264
51.714
51.6888
51.6489
51.591
51.5086
51.3902
51.2179
50.9712
50.6731
51.7264
51.7141
51.6888
51.649
51.591
51.5086
51.3903
51.218
50.9712
50.6732
46.8123
46.8051
46.7902
46.7662
46.7294
46.6719
46.5767
46.4049
46.0604
45.2615
46.8123
46.805
46.7902
46.7661
46.7293
46.6719
46.5766
46.4049
46.0604
45.2615
46.8122
46.805
46.7901
46.7661
46.7293
46.6718
46.5766
46.4048
46.0603
45.2614
46.8122
46.805
46.7901
46.766
46.7292
46.6718
46.5765
46.4048
46.0603
45.2614
46.8122
46.805
46.7901
46.766
46.7292
46.6718
46.5765
46.4048
46.0603
45.2614
46.8122
46.805
46.7901
46.766
46.7292
46.6718
46.5765
46.4048
46.0603
45.2614
46.8122
46.805
46.7901
46.766
46.7292
46.6718
46.5765
46.4048
46.0603
45.2614
46.8122
46.805
46.7901
46.7661
46.7293
46.6718
46.5766
46.4048
46.0603
45.2614
46.8122
46.805
46.7901
46.7661
46.7293
46.6719
46.5766
46.4048
46.0603
45.2614
46.8122
46.8051
46.7902
46.7661
46.7293
46.6719
46.5766
46.4049
46.0604
45.2615
42.2145
42.215
42.2163
42.2183
42.2195
42.2157
42.1966
42.1397
42.0024
41.7239
42.2144
42.215
42.2163
42.2182
42.2194
42.2157
42.1966
42.1397
42.0023
41.7238
42.2144
42.2149
42.2162
42.2182
42.2194
42.2156
42.1965
42.1396
42.0022
41.7238
42.2143
42.2149
42.2162
42.2181
42.2194
42.2156
42.1965
42.1396
42.0022
41.7237
42.2143
42.2149
42.2162
42.2181
42.2193
42.2156
42.1965
42.1396
42.0022
41.7237
42.2143
42.2149
42.2162
42.2181
42.2193
42.2156
42.1965
42.1396
42.0022
41.7237
42.2143
42.2149
42.2162
42.2181
42.2193
42.2156
42.1965
42.1396
42.0022
41.7237
42.2144
42.2149
42.2162
42.2182
42.2194
42.2156
42.1965
42.1396
42.0022
41.7238
42.2144
42.2149
42.2163
42.2182
42.2194
42.2157
42.1966
42.1397
42.0023
41.7238
42.2144
42.215
42.2163
42.2182
42.2195
42.2157
42.1966
42.1397
42.0023
41.7239
37.9378
37.9484
37.9709
38.0075
38.0611
38.1346
38.2307
38.3522
38.509
38.744
37.9377
37.9483
37.9708
38.0074
38.061
38.1346
38.2307
38.3522
38.5089
38.7439
37.9377
37.9483
37.9708
38.0074
38.061
38.1345
38.2306
38.3521
38.5089
38.7438
37.9376
37.9483
37.9707
38.0073
38.0609
38.1345
38.2306
38.3521
38.5088
38.7438
37.9376
37.9482
37.9707
38.0073
38.0609
38.1345
38.2306
38.3521
38.5088
38.7438
37.9376
37.9482
37.9707
38.0073
38.0609
38.1345
38.2306
38.3521
38.5088
38.7438
37.9376
37.9482
37.9707
38.0073
38.0609
38.1345
38.2306
38.3521
38.5088
38.7438
37.9376
37.9483
37.9708
38.0074
38.061
38.1345
38.2306
38.3521
38.5088
38.7438
37.9377
37.9483
37.9708
38.0074
38.061
38.1346
38.2306
38.3521
38.5089
38.7439
37.9377
37.9483
37.9708
38.0074
38.0611
38.1346
38.2307
38.3522
38.509
38.7439
33.9809
34.0029
34.0496
34.126
34.2401
34.4027
34.6291
34.9414
35.3766
36.0031
33.9808
34.0028
34.0495
34.126
34.24
34.4027
34.629
34.9413
35.3766
36.003
33.9808
34.0028
34.0495
34.1259
34.24
34.4026
34.629
34.9413
35.3765
36.0029
33.9807
34.0028
34.0495
34.1259
34.24
34.4026
34.6289
34.9413
35.3765
36.0029
33.9807
34.0028
34.0494
34.1259
34.2399
34.4026
34.6289
34.9413
35.3765
36.0029
33.9807
34.0028
34.0494
34.1259
34.2399
34.4026
34.6289
34.9412
35.3765
36.0029
33.9807
34.0028
34.0495
34.1259
34.24
34.4026
34.6289
34.9413
35.3765
36.0029
33.9807
34.0028
34.0495
34.1259
34.24
34.4026
34.629
34.9413
35.3765
36.0029
33.9808
34.0028
34.0495
34.126
34.24
34.4026
34.629
34.9413
35.3766
36.003
33.9808
34.0029
34.0496
34.126
34.2401
34.4027
34.6291
34.9414
35.3766
36.003
30.3372
30.3708
30.4421
30.559
30.7342
30.9857
31.3389
31.8281
32.5007
33.4227
30.3371
30.3708
30.4421
30.559
30.7341
30.9857
31.3388
31.828
32.5007
33.4226
30.3371
30.3707
30.442
30.5589
30.7341
30.9856
31.3388
31.8279
32.5006
33.4226
30.337
30.3707
30.442
30.5589
30.7341
30.9856
31.3387
31.8279
32.5006
33.4225
30.337
30.3707
30.442
30.5589
30.734
30.9856
31.3387
31.8279
32.5006
33.4225
30.337
30.3707
30.442
30.5589
30.734
30.9856
31.3387
31.8279
32.5006
33.4225
30.337
30.3707
30.442
30.5589
30.7341
30.9856
31.3387
31.8279
32.5006
33.4225
30.3371
30.3707
30.442
30.5589
30.7341
30.9856
31.3388
31.8279
32.5006
33.4225
30.3371
30.3708
30.4421
30.559
30.7341
30.9857
31.3388
31.828
32.5007
33.4226
30.3371
30.3708
30.4421
30.559
30.7342
30.9857
31.3389
31.828
32.5007
33.4227
26.9961
27.0404
27.134
27.2874
27.5173
27.848
28.3126
28.9542
29.8258
30.9859
26.9961
27.0403
27.1339
27.2873
27.5173
27.848
28.3125
28.9541
29.8257
30.9858
26.996
27.0403
27.1339
27.2873
27.5172
27.8479
28.3125
28.9541
29.8257
30.9858
26.996
27.0403
27.1338
27.2873
27.5172
27.8479
28.3125
28.9541
29.8257
30.9857
26.996
27.0402
27.1338
27.2872
27.5172
27.8479
28.3124
28.954
29.8256
30.9857
26.996
27.0402
27.1338
27.2872
27.5172
27.8479
28.3124
28.954
29.8256
30.9857
26.996
27.0402
27.1338
27.2872
27.5172
27.8479
28.3125
28.9541
29.8257
30.9857
26.996
27.0403
27.1339
27.2873
27.5172
27.8479
28.3125
28.9541
29.8257
30.9858
26.996
27.0403
27.1339
27.2873
27.5173
27.848
28.3125
28.9541
29.8257
30.9858
26.9961
27.0403
27.1339
27.2874
27.5173
27.848
28.3126
28.9542
29.8258
30.9859
23.9447
23.9973
24.1084
24.2903
24.5629
24.9549
25.5068
26.271
27.3103
28.685
23.9447
23.9973
24.1084
24.2903
24.5628
24.9549
25.5067
26.271
27.3102
28.6849
23.9447
23.9972
24.1083
24.2903
24.5628
24.9549
25.5067
26.2709
27.3102
28.6848
23.9446
23.9972
24.1083
24.2902
24.5627
24.9548
25.5067
26.2709
27.3101
28.6848
23.9446
23.9972
24.1083
24.2902
24.5627
24.9548
25.5067
26.2709
27.3101
28.6848
23.9446
23.9972
24.1083
24.2902
24.5627
24.9548
25.5067
26.2709
27.3101
28.6848
23.9446
23.9972
24.1083
24.2902
24.5627
24.9548
25.5067
26.2709
27.3101
28.6848
23.9446
23.9972
24.1083
24.2902
24.5628
24.9548
25.5067
26.2709
27.3102
28.6848
23.9447
23.9973
24.1084
24.2903
24.5628
24.9549
25.5067
26.271
27.3102
28.6849
23.9447
23.9973
24.1084
24.2903
24.5628
24.9549
25.5068
26.271
27.3103
28.6849
21.169
21.2268
21.3488
21.5479
21.8456
22.274
22.8793
23.7263
24.9
26.4922
21.169
21.2268
21.3487
21.5478
21.8455
22.2739
22.8792
23.7262
24.9
26.4921
21.169
21.2268
21.3487
21.5478
21.8455
22.2739
22.8792
23.7262
24.8999
26.4921
21.1689
21.2267
21.3487
21.5478
21.8455
22.2738
22.8792
23.7262
24.8999
26.492
21.1689
21.2267
21.3486
21.5478
21.8455
22.2738
22.8791
23.7261
24.8999
26.492
21.1689
21.2267
21.3486
21.5478
21.8455
22.2738
22.8791
23.7261
24.8999
26.492
21.1689
21.2267
21.3486
21.5478
21.8455
22.2738
22.8792
23.7262
24.8999
26.492
21.1689
21.2268
21.3487
21.5478
21.8455
22.2739
22.8792
23.7262
24.8999
26.4921
21.169
21.2268
21.3487
21.5478
21.8455
22.2739
22.8792
23.7262
24.9
26.4921
21.169
21.2268
21.3488
21.5479
21.8456
22.274
22.8793
23.7263
24.9
26.4922
18.6553
18.7148
18.8397
19.0427
19.3447
19.7774
20.3895
21.2565
22.5001
24.3111
18.6553
18.7147
18.8397
19.0427
19.3446
19.7774
20.3895
21.2564
22.5
24.3111
18.6553
18.7147
18.8396
19.0426
19.3446
19.7774
20.3894
21.2564
22.5
24.311
18.6552
18.7147
18.8396
19.0426
19.3446
19.7773
20.3894
21.2564
22.4999
24.311
18.6552
18.7147
18.8396
19.0426
19.3445
19.7773
20.3894
21.2563
22.4999
24.311
18.6552
18.7147
18.8396
19.0426
19.3445
19.7773
20.3894
21.2563
22.4999
24.311
18.6552
18.7147
18.8396
19.0426
19.3446
19.7773
20.3894
21.2564
22.4999
24.311
18.6553
18.7147
18.8396
19.0426
19.3446
19.7774
20.3894
21.2564
22.5
24.311
18.6553
18.7147
18.8396
19.0427
19.3446
19.7774
20.3895
21.2564
22.5
24.3111
18.6553
18.7148
18.8397
19.0427
19.3447
19.7774
20.3895
21.2565
22.5001
24.3111
16.3913
16.4488
16.569
16.7626
17.0471
17.449
18.009
18.795
19.9437
21.8152
16.3912
16.4487
16.5689
16.7626
17.0471
17.449
18.0089
18.7949
19.9436
21.8152
16.3912
16.4487
16.5689
16.7625
17.047
17.449
18.0089
18.7949
19.9436
21.8151
16.3912
16.4487
16.5689
16.7625
17.047
17.4489
18.0089
18.7948
19.9436
21.8151
16.3912
16.4487
16.5689
16.7625
17.047
17.4489
18.0089
18.7948
19.9436
21.8151
16.3912
16.4487
16.5689
16.7625
17.047
17.4489
18.0089
18.7948
19.9436
21.8151
16.3912
16.4487
16.5689
16.7625
17.047
17.4489
18.0089
18.7949
19.9436
21.8151
16.3912
16.4487
16.5689
16.7625
17.0471
17.449
18.0089
18.7949
19.9436
21.8151
16.3912
16.4487
16.5689
16.7626
17.0471
17.449
18.0089
18.7949
19.9437
21.8152
16.3912
16.4488
16.569
16.7626
17.0471
17.449
18.009
18.795
19.9437
21.8152
43.0202
42.9466
44.4333
47.2893
51.5117
57.2251
64.6882
74.3597
87.0733
104.505
43.0201
42.9465
44.4332
47.2892
51.5116
57.225
64.6881
74.3595
87.0732
104.504
43.0201
42.9464
44.4332
47.2891
51.5115
57.2249
64.688
74.3595
87.0731
104.504
43.02
42.9464
44.4331
47.289
51.5115
57.2249
64.688
74.3594
87.073
104.504
43.02
42.9464
44.4331
47.289
51.5114
57.2248
64.6879
74.3594
87.073
104.504
43.02
42.9463
44.4331
47.289
51.5114
57.2248
64.6879
74.3594
87.073
104.504
43.02
42.9464
44.4331
47.289
51.5115
57.2249
64.6879
74.3594
87.073
104.504
43.0201
42.9464
44.4331
47.2891
51.5115
57.2249
64.688
74.3594
87.073
104.504
43.0201
42.9464
44.4332
47.2891
51.5115
57.225
64.688
74.3595
87.0731
104.504
43.0202
42.9465
44.4332
47.2892
51.5116
57.225
64.6881
74.3596
87.0732
104.505
41.3458
41.9295
43.6517
46.5506
50.6856
56.174
63.2084
72.0715
83.1296
96.6793
41.3457
41.9295
43.6516
46.5506
50.6855
56.1739
63.2083
72.0714
83.1295
96.6792
41.3456
41.9294
43.6515
46.5505
50.6854
56.1738
63.2082
72.0713
83.1294
96.6791
41.3456
41.9293
43.6515
46.5504
50.6854
56.1738
63.2081
72.0713
83.1293
96.679
41.3456
41.9293
43.6515
46.5504
50.6854
56.1737
63.2081
72.0712
83.1293
96.679
41.3456
41.9293
43.6515
46.5504
50.6853
56.1737
63.2081
72.0712
83.1293
96.679
41.3456
41.9293
43.6515
46.5504
50.6854
56.1737
63.2081
72.0713
83.1293
96.679
41.3456
41.9294
43.6515
46.5504
50.6854
56.1738
63.2082
72.0713
83.1294
96.6791
41.3457
41.9294
43.6516
46.5505
50.6855
56.1738
63.2082
72.0714
83.1295
96.6791
41.3457
41.9295
43.6516
46.5506
50.6855
56.1739
63.2083
72.0715
83.1296
96.6792
39.2122
40.3211
42.2821
45.2041
49.1707
54.2749
60.6278
68.3425
77.4695
87.8142
39.2121
40.321
42.2821
45.204
49.1706
54.2748
60.6277
68.3424
77.4693
87.814
39.212
40.3209
42.282
45.2039
49.1705
54.2747
60.6276
68.3423
77.4693
87.8139
39.212
40.3209
42.2819
45.2039
49.1704
54.2747
60.6276
68.3422
77.4692
87.8139
39.212
40.3209
42.2819
45.2039
49.1704
54.2747
60.6275
68.3422
77.4692
87.8139
39.212
40.3209
42.2819
45.2039
49.1704
54.2747
60.6275
68.3422
77.4692
87.8139
39.212
40.3209
42.2819
45.2039
49.1704
54.2747
60.6276
68.3422
77.4692
87.8139
39.212
40.3209
42.282
45.2039
49.1705
54.2747
60.6276
68.3423
77.4692
87.8139
39.2121
40.321
42.282
45.204
49.1705
54.2748
60.6277
68.3423
77.4693
87.814
39.2121
40.3211
42.2821
45.2041
49.1706
54.2749
60.6278
68.3424
77.4694
87.8141
36.9484
38.411
40.5416
43.4407
47.1816
51.8238
57.4121
63.954
71.3668
79.3795
36.9484
38.4109
40.5415
43.4406
47.1815
51.8237
57.412
63.9539
71.3666
79.3794
36.9483
38.4109
40.5414
43.4406
47.1814
51.8236
57.4119
63.9538
71.3666
79.3793
36.9483
38.4108
40.5414
43.4405
47.1814
51.8236
57.4118
63.9537
71.3665
79.3792
36.9482
38.4108
40.5414
43.4405
47.1813
51.8236
57.4118
63.9537
71.3665
79.3792
36.9482
38.4108
40.5414
43.4405
47.1813
51.8235
57.4118
63.9537
71.3665
79.3792
36.9483
38.4108
40.5414
43.4405
47.1813
51.8236
57.4118
63.9537
71.3665
79.3792
36.9483
38.4109
40.5414
43.4405
47.1814
51.8236
57.4119
63.9538
71.3665
79.3793
36.9483
38.4109
40.5415
43.4406
47.1815
51.8237
57.4119
63.9538
71.3666
79.3794
36.9484
38.411
40.5416
43.4407
47.1816
51.8238
57.412
63.9539
71.3667
79.3795
34.6824
36.3853
38.6224
41.4623
44.9527
49.1209
53.9666
59.445
65.4374
71.7147
34.6823
36.3852
38.6223
41.4622
44.9526
49.1208
53.9665
59.4449
65.4373
71.7146
34.6823
36.3851
38.6222
41.4621
44.9526
49.1208
53.9664
59.4448
65.4372
71.7145
34.6823
36.3851
38.6222
41.4621
44.9525
49.1207
53.9664
59.4448
65.4372
71.7145
34.6822
36.3851
38.6221
41.462
44.9525
49.1207
53.9664
59.4447
65.4371
71.7145
34.6822
36.3851
38.6221
41.462
44.9525
49.1207
53.9664
59.4447
65.4371
71.7145
34.6822
36.3851
38.6222
41.4621
44.9525
49.1207
53.9664
59.4448
65.4372
71.7145
34.6823
36.3851
38.6222
41.4621
44.9525
49.1207
53.9664
59.4448
65.4372
71.7145
34.6823
36.3852
38.6223
41.4622
44.9526
49.1208
53.9665
59.4449
65.4373
71.7146
34.6824
36.3853
38.6224
41.4623
44.9527
49.1209
53.9666
59.445
65.4374
71.7147
32.489
34.3771
36.6888
39.4576
42.7049
46.4315
50.6088
55.1686
59.9925
64.9095
32.4889
34.377
36.6887
39.4575
42.7048
46.4314
50.6087
55.1685
59.9924
64.9094
32.4889
34.3769
36.6886
39.4575
42.7047
46.4313
50.6086
55.1684
59.9923
64.9093
32.4888
34.3769
36.6886
39.4574
42.7047
46.4313
50.6086
55.1683
59.9923
64.9092
32.4888
34.3769
36.6886
39.4574
42.7047
46.4312
50.6086
55.1683
59.9923
64.9092
32.4888
34.3769
36.6886
39.4574
42.7047
46.4312
50.6086
55.1683
59.9923
64.9092
32.4888
34.3769
36.6886
39.4574
42.7047
46.4313
50.6086
55.1683
59.9923
64.9092
32.4889
34.3769
36.6886
39.4575
42.7047
46.4313
50.6086
55.1684
59.9923
64.9093
32.4889
34.377
36.6887
39.4575
42.7048
46.4314
50.6087
55.1685
59.9924
64.9094
32.489
34.3771
36.6888
39.4576
42.7049
46.4315
50.6088
55.1686
59.9925
64.9095
30.4237
32.4943
34.8835
37.5957
40.6329
43.9782
47.5844
51.3693
55.2183
59.0025
30.4236
32.4942
34.8834
37.5956
40.6329
43.9781
47.5843
51.3692
55.2182
59.0023
30.4236
32.4942
34.8833
37.5955
40.6328
43.978
47.5842
51.3691
55.2181
59.0023
30.4236
32.4941
34.8833
37.5955
40.6327
43.9779
47.5841
51.369
55.218
59.0022
30.4235
32.4941
34.8833
37.5955
40.6327
43.9779
47.5841
51.369
55.218
59.0022
30.4235
32.4941
34.8833
37.5955
40.6327
43.9779
47.5841
51.369
55.218
59.0022
30.4236
32.4941
34.8833
37.5955
40.6327
43.9779
47.5841
51.369
55.218
59.0022
30.4236
32.4942
34.8833
37.5955
40.6328
43.978
47.5842
51.3691
55.2181
59.0023
30.4236
32.4942
34.8834
37.5956
40.6329
43.9781
47.5843
51.3692
55.2182
59.0024
30.4237
32.4943
34.8835
37.5957
40.6329
43.9782
47.5844
51.3693
55.2183
59.0025
28.534
30.8373
33.3364
36.0258
38.9041
41.9463
45.0919
48.2414
51.2654
54.0393
28.534
30.8372
33.3363
36.0258
38.904
41.9462
45.0918
48.2413
51.2652
54.0392
28.5339
30.8371
33.3362
36.0257
38.904
41.9462
45.0917
48.2412
51.2652
54.0391
28.5339
30.8371
33.3362
36.0257
38.9039
41.9461
45.0917
48.2412
51.2651
54.0391
28.5338
30.8371
33.3362
36.0256
38.9039
41.9461
45.0917
48.2412
51.2651
54.039
28.5338
30.8371
33.3362
36.0256
38.9039
41.9461
45.0917
48.2412
51.2651
54.039
28.5339
30.8371
33.3362
36.0257
38.9039
41.9461
45.0917
48.2412
51.2651
54.0391
28.5339
30.8371
33.3362
36.0257
38.904
41.9462
45.0917
48.2412
51.2652
54.0391
28.534
30.8372
33.3363
36.0258
38.904
41.9462
45.0918
48.2413
51.2653
54.0392
28.534
30.8373
33.3364
36.0259
38.9041
41.9463
45.0919
48.2414
51.2654
54.0393
26.8819
29.5224
32.1754
34.8802
37.6585
40.4894
43.3014
45.9687
48.3114
50.1236
26.8819
29.5223
32.1753
34.8801
37.6585
40.4893
43.3013
45.9686
48.3113
50.1235
26.8818
29.5223
32.1753
34.8801
37.6584
40.4892
43.3012
45.9685
48.3112
50.1234
26.8818
29.5222
32.1752
34.88
37.6584
40.4892
43.3012
45.9684
48.3112
50.1234
26.8818
29.5222
32.1752
34.88
37.6583
40.4892
43.3012
45.9684
48.3112
50.1233
26.8818
29.5222
32.1752
34.88
37.6583
40.4892
43.3012
45.9684
48.3112
50.1233
26.8818
29.5222
32.1752
34.88
37.6584
40.4892
43.3012
45.9685
48.3112
50.1234
26.8818
29.5223
32.1753
34.8801
37.6584
40.4892
43.3013
45.9685
48.3113
50.1234
26.8819
29.5223
32.1753
34.8802
37.6585
40.4893
43.3013
45.9686
48.3113
50.1235
26.8819
29.5224
32.1754
34.8802
37.6586
40.4894
43.3014
45.9687
48.3114
50.1236
25.6486
28.7264
31.5345
34.2706
37.0044
39.7261
42.3576
44.745
46.6301
47.5716
25.6485
28.7263
31.5344
34.2705
37.0043
39.7261
42.3575
44.7449
46.6301
47.5715
25.6485
28.7263
31.5344
34.2705
37.0043
39.726
42.3575
44.7448
46.63
47.5714
25.6484
28.7262
31.5343
34.2704
37.0042
39.726
42.3574
44.7448
46.63
47.5714
25.6484
28.7262
31.5343
34.2704
37.0042
39.726
42.3574
44.7448
46.6299
47.5713
25.6484
28.7262
31.5343
34.2704
37.0042
39.726
42.3574
44.7448
46.6299
47.5713
25.6484
28.7262
31.5343
34.2704
37.0043
39.726
42.3575
44.7448
46.63
47.5714
25.6485
28.7263
31.5344
34.2705
37.0043
39.726
42.3575
44.7449
46.63
47.5714
25.6485
28.7263
31.5344
34.2706
37.0044
39.7261
42.3576
44.7449
46.6301
47.5715
25.6486
28.7264
31.5345
34.2706
37.0045
39.7262
42.3577
44.745
46.6302
47.5716
130.548
143.028
150.747
156.196
160.26
163.331
165.621
167.253
168.304
168.819
130.547
143.028
150.746
156.196
160.26
163.331
165.62
167.253
168.304
168.819
130.547
143.027
150.746
156.196
160.26
163.331
165.62
167.252
168.304
168.819
130.547
143.027
150.746
156.196
160.26
163.331
165.62
167.252
168.304
168.819
130.547
143.027
150.746
156.196
160.26
163.331
165.62
167.252
168.304
168.819
130.547
143.027
150.746
156.196
160.26
163.331
165.62
167.252
168.304
168.819
130.547
143.027
150.746
156.196
160.26
163.331
165.62
167.252
168.304
168.819
130.547
143.027
150.746
156.196
160.26
163.331
165.62
167.252
168.304
168.819
130.547
143.028
150.746
156.196
160.26
163.331
165.62
167.253
168.304
168.819
130.548
143.028
150.746
156.196
160.26
163.331
165.621
167.253
168.304
168.819
112.06
123.29
131.279
137.117
141.48
144.76
147.19
148.915
150.022
150.564
112.059
123.29
131.279
137.117
141.479
144.759
147.19
148.915
150.022
150.564
112.059
123.29
131.279
137.117
141.479
144.759
147.19
148.915
150.022
150.564
112.059
123.29
131.279
137.117
141.479
144.759
147.19
148.915
150.022
150.564
112.059
123.29
131.279
137.117
141.479
144.759
147.19
148.915
150.022
150.564
112.059
123.29
131.279
137.117
141.479
144.759
147.19
148.915
150.022
150.564
112.059
123.29
131.279
137.117
141.479
144.759
147.19
148.915
150.022
150.564
112.059
123.29
131.279
137.117
141.479
144.759
147.19
148.915
150.022
150.564
112.059
123.29
131.279
137.117
141.479
144.759
147.19
148.915
150.022
150.564
112.059
123.29
131.279
137.117
141.48
144.76
147.19
148.915
150.022
150.564
98.5216
107.605
114.782
120.339
124.616
127.878
130.311
132.044
133.159
133.704
98.5215
107.605
114.782
120.339
124.616
127.877
130.311
132.044
133.158
133.704
98.5214
107.605
114.782
120.339
124.616
127.877
130.311
132.044
133.158
133.704
98.5213
107.605
114.782
120.339
124.616
127.877
130.311
132.044
133.158
133.704
98.5213
107.605
114.782
120.339
124.616
127.877
130.311
132.044
133.158
133.704
98.5213
107.605
114.782
120.339
124.616
127.877
130.311
132.044
133.158
133.704
98.5213
107.605
114.782
120.339
124.616
127.877
130.311
132.044
133.158
133.704
98.5213
107.605
114.782
120.339
124.616
127.877
130.311
132.044
133.158
133.704
98.5214
107.605
114.782
120.339
124.616
127.877
130.311
132.044
133.159
133.704
98.5215
107.605
114.782
120.339
124.616
127.878
130.311
132.044
133.159
133.704
87.4149
94.6458
100.734
105.682
109.615
112.678
114.994
116.657
117.732
118.259
87.4148
94.6457
100.734
105.682
109.615
112.678
114.994
116.657
117.732
118.259
87.4147
94.6456
100.734
105.682
109.615
112.678
114.994
116.657
117.731
118.259
87.4146
94.6455
100.734
105.682
109.615
112.678
114.994
116.657
117.731
118.259
87.4146
94.6455
100.734
105.682
109.614
112.678
114.994
116.657
117.731
118.259
87.4146
94.6455
100.734
105.682
109.614
112.678
114.994
116.657
117.731
118.259
87.4146
94.6455
100.734
105.682
109.615
112.678
114.994
116.657
117.731
118.259
87.4147
94.6456
100.734
105.682
109.615
112.678
114.994
116.657
117.731
118.259
87.4148
94.6457
100.734
105.682
109.615
112.678
114.994
116.657
117.732
118.259
87.4149
94.6458
100.734
105.682
109.615
112.678
114.994
116.657
117.732
118.259
77.9215
83.6509
88.6623
92.8828
96.3364
99.0852
101.196
102.729
103.726
104.217
77.9214
83.6508
88.6621
92.8826
96.3363
99.0851
101.196
102.728
103.725
104.217
77.9213
83.6507
88.662
92.8825
96.3362
99.085
101.196
102.728
103.725
104.217
77.9212
83.6506
88.662
92.8825
96.3361
99.085
101.196
102.728
103.725
104.217
77.9212
83.6506
88.662
92.8824
96.3361
99.0849
101.196
102.728
103.725
104.217
77.9212
83.6506
88.662
92.8824
96.3361
99.0849
101.196
102.728
103.725
104.217
77.9212
83.6506
88.662
92.8825
96.3362
99.085
101.196
102.728
103.725
104.217
77.9213
83.6507
88.662
92.8825
96.3362
99.085
101.196
102.728
103.725
104.217
77.9213
83.6508
88.6621
92.8826
96.3363
99.0851
101.196
102.728
103.726
104.217
77.9215
83.6509
88.6623
92.8828
96.3364
99.0853
101.197
102.729
103.726
104.217
69.7107
74.1935
78.2123
81.6922
84.6134
86.988
88.842
90.2034
91.0966
91.5389
69.7106
74.1934
78.2121
81.6921
84.6133
86.9879
88.8418
90.2033
91.0965
91.5388
69.7105
74.1933
78.2121
81.692
84.6132
86.9878
88.8417
90.2032
91.0964
91.5387
69.7104
74.1932
78.212
81.6919
84.6132
86.9878
88.8417
90.2031
91.0964
91.5387
69.7104
74.1932
78.212
81.6919
84.6131
86.9877
88.8417
90.2031
91.0964
91.5386
69.7104
74.1932
78.212
81.6919
84.6131
86.9877
88.8417
90.2031
91.0964
91.5387
69.7104
74.1932
78.212
81.692
84.6132
86.9878
88.8417
90.2032
91.0964
91.5387
69.7105
74.1933
78.2121
81.692
84.6132
86.9878
88.8418
90.2032
91.0965
91.5388
69.7106
74.1934
78.2122
81.6921
84.6133
86.9879
88.8419
90.2033
91.0966
91.5389
69.7107
74.1935
78.2123
81.6922
84.6135
86.9881
88.842
90.2035
91.0967
91.539
62.6167
66.0119
69.1244
71.8935
74.2786
76.2602
77.8343
79.0052
79.7803
80.1661
62.6166
66.0117
69.1242
71.8934
74.2785
76.2601
77.8342
79.0051
79.7802
80.166
62.6165
66.0117
69.1241
71.8933
74.2784
76.26
77.8341
79.005
79.7801
80.1659
62.6164
66.0116
69.1241
71.8933
74.2783
76.2599
77.834
79.005
79.7801
80.1659
62.6164
66.0116
69.1241
71.8932
74.2783
76.2599
77.834
79.005
79.7801
80.1659
62.6164
66.0116
69.1241
71.8932
74.2783
76.2599
77.834
79.005
79.7801
80.1659
62.6164
66.0116
69.1241
71.8933
74.2784
76.2599
77.834
79.005
79.7801
80.1659
62.6165
66.0117
69.1242
71.8933
74.2784
76.26
77.8341
79.0051
79.7802
80.166
62.6166
66.0118
69.1242
71.8934
74.2785
76.2601
77.8342
79.0052
79.7803
80.1661
62.6167
66.0119
69.1244
71.8936
74.2786
76.2602
77.8343
79.0053
79.7804
80.1662
56.5299
58.913
61.1901
63.2982
65.1742
66.7733
68.0685
69.0457
69.6989
70.0258
56.5298
58.9129
61.19
63.2981
65.1741
66.7732
68.0684
69.0456