/*--------------------------------*- C++ -*----------------------------------*\
  =========                 |
  \\      /  F ield         | OpenFOAM: The Open Source CFD Toolbox
   \\    /   O peration     | Website:  https://openfoam.org
    \\  /    A nd           | Version:  6
     \\/     M anipulation  |
\*---------------------------------------------------------------------------*/
FoamFile
{
    version     2.0;
    format      ascii;
    class       volScalarField;
    location    "0.765";
    object      T;
}
// * * * * * * * * * * * * * * * * * * * * * * * * * * * * * * * * * * * * * //

dimensions      [0 0 0 1 0 0 0];

internalField   nonuniform List<scalar> 
7000
(
106.345
106.343
106.34
106.335
106.329
106.322
106.316
106.31
106.305
106.303
106.345
106.343
106.34
106.335
106.329
106.322
106.316
106.31
106.305
106.303
106.345
106.343
106.34
106.335
106.329
106.322
106.316
106.31
106.305
106.303
106.345
106.343
106.34
106.335
106.329
106.322
106.316
106.31
106.305
106.303
106.345
106.343
106.34
106.335
106.329
106.322
106.316
106.31
106.305
106.303
106.345
106.343
106.34
106.335
106.329
106.322
106.316
106.31
106.305
106.303
106.345
106.343
106.34
106.335
106.329
106.322
106.316
106.31
106.305
106.303
106.345
106.343
106.34
106.335
106.329
106.322
106.316
106.31
106.305
106.303
106.345
106.343
106.34
106.335
106.329
106.322
106.316
106.31
106.305
106.303
106.345
106.343
106.34
106.335
106.329
106.322
106.316
106.31
106.305
106.303
99.0595
99.054
99.0432
99.028
99.0095
98.9892
98.969
98.9511
98.9376
98.9304
99.0595
99.054
99.0432
99.028
99.0095
98.9892
98.969
98.9511
98.9376
98.9303
99.0595
99.054
99.0432
99.028
99.0095
98.9892
98.969
98.9511
98.9376
98.9303
99.0595
99.0539
99.0432
99.028
99.0095
98.9892
98.969
98.9511
98.9376
98.9303
99.0595
99.0539
99.0432
99.028
99.0095
98.9892
98.969
98.9511
98.9376
98.9303
99.0595
99.0539
99.0432
99.028
99.0095
98.9892
98.969
98.9511
98.9376
98.9303
99.0595
99.0539
99.0432
99.028
99.0095
98.9892
98.969
98.9511
98.9376
98.9303
99.0595
99.0539
99.0432
99.028
99.0095
98.9892
98.969
98.9511
98.9376
98.9303
99.0595
99.0539
99.0432
99.028
99.0095
98.9892
98.969
98.9511
98.9376
98.9303
99.0595
99.054
99.0432
99.028
99.0095
98.9892
98.969
98.9511
98.9376
98.9303
91.8466
91.837
91.8186
91.7923
91.7602
91.7247
91.6892
91.6574
91.6333
91.6203
91.8465
91.837
91.8185
91.7923
91.7602
91.7247
91.6892
91.6574
91.6333
91.6203
91.8465
91.837
91.8185
91.7923
91.7602
91.7247
91.6892
91.6574
91.6333
91.6202
91.8465
91.837
91.8185
91.7923
91.7602
91.7247
91.6892
91.6574
91.6333
91.6202
91.8465
91.837
91.8185
91.7923
91.7602
91.7247
91.6892
91.6574
91.6333
91.6202
91.8465
91.837
91.8185
91.7923
91.7602
91.7247
91.6892
91.6574
91.6333
91.6202
91.8465
91.837
91.8185
91.7923
91.7602
91.7247
91.6892
91.6574
91.6333
91.6202
91.8465
91.837
91.8185
91.7923
91.7602
91.7247
91.6892
91.6574
91.6333
91.6202
91.8465
91.837
91.8185
91.7923
91.7602
91.7247
91.6892
91.6574
91.6333
91.6202
91.8465
91.837
91.8185
91.7923
91.7602
91.7247
91.6892
91.6574
91.6333
91.6203
84.7535
84.7396
84.7127
84.6742
84.6267
84.5736
84.5197
84.4709
84.4333
84.4128
84.7535
84.7396
84.7127
84.6742
84.6266
84.5736
84.5197
84.4708
84.4333
84.4128
84.7535
84.7396
84.7127
84.6742
84.6266
84.5735
84.5197
84.4708
84.4333
84.4127
84.7534
84.7396
84.7127
84.6742
84.6266
84.5735
84.5197
84.4708
84.4333
84.4127
84.7534
84.7396
84.7126
84.6742
84.6266
84.5735
84.5197
84.4708
84.4333
84.4127
84.7534
84.7396
84.7126
84.6742
84.6266
84.5735
84.5197
84.4708
84.4332
84.4127
84.7534
84.7396
84.7126
84.6742
84.6266
84.5735
84.5197
84.4708
84.4333
84.4127
84.7534
84.7396
84.7127
84.6742
84.6266
84.5735
84.5197
84.4708
84.4333
84.4127
84.7534
84.7396
84.7127
84.6742
84.6266
84.5735
84.5197
84.4708
84.4333
84.4128
84.7535
84.7396
84.7127
84.6742
84.6266
84.5736
84.5197
84.4708
84.4333
84.4128
77.8262
77.8077
77.7714
77.7191
77.6537
77.5795
77.5029
77.4318
77.376
77.345
77.8262
77.8076
77.7713
77.719
77.6536
77.5795
77.5028
77.4318
77.376
77.3449
77.8262
77.8076
77.7713
77.719
77.6536
77.5795
77.5028
77.4317
77.3759
77.3449
77.8261
77.8076
77.7713
77.719
77.6536
77.5795
77.5028
77.4317
77.3759
77.3449
77.8261
77.8076
77.7713
77.719
77.6536
77.5794
77.5028
77.4317
77.3759
77.3449
77.8261
77.8076
77.7713
77.719
77.6536
77.5794
77.5028
77.4317
77.3759
77.3449
77.8261
77.8076
77.7713
77.719
77.6536
77.5795
77.5028
77.4317
77.3759
77.3449
77.8261
77.8076
77.7713
77.719
77.6536
77.5795
77.5028
77.4317
77.3759
77.3449
77.8262
77.8076
77.7713
77.719
77.6536
77.5795
77.5028
77.4317
77.376
77.3449
77.8262
77.8076
77.7713
77.719
77.6536
77.5795
77.5028
77.4318
77.376
77.345
71.1084
71.0848
71.0384
70.9707
70.8848
70.7853
70.6796
70.5785
70.4964
70.4493
71.1084
71.0848
71.0383
70.9707
70.8847
70.7852
70.6795
70.5784
70.4963
70.4493
71.1084
71.0847
71.0383
70.9706
70.8847
70.7852
70.6795
70.5784
70.4963
70.4493
71.1083
71.0847
71.0383
70.9706
70.8847
70.7852
70.6795
70.5784
70.4963
70.4492
71.1083
71.0847
71.0383
70.9706
70.8847
70.7852
70.6795
70.5784
70.4963
70.4492
71.1083
71.0847
71.0383
70.9706
70.8847
70.7852
70.6795
70.5784
70.4963
70.4492
71.1083
71.0847
71.0383
70.9706
70.8847
70.7852
70.6795
70.5784
70.4963
70.4492
71.1083
71.0847
71.0383
70.9706
70.8847
70.7852
70.6795
70.5784
70.4963
70.4493
71.1084
71.0847
71.0383
70.9706
70.8847
70.7852
70.6795
70.5784
70.4963
70.4493
71.1084
71.0848
71.0383
70.9707
70.8847
70.7852
70.6796
70.5785
70.4964
70.4493
64.641
64.6122
64.5552
64.4712
64.3623
64.2328
64.0902
63.9474
63.8251
63.7512
64.6409
64.6122
64.5552
64.4711
64.3623
64.2328
64.0901
63.9474
63.8251
63.7512
64.6409
64.6121
64.5552
64.4711
64.3622
64.2327
64.0901
63.9473
63.8251
63.7512
64.6409
64.6121
64.5551
64.4711
64.3622
64.2327
64.0901
63.9473
63.825
63.7512
64.6409
64.6121
64.5551
64.4711
64.3622
64.2327
64.0901
63.9473
63.825
63.7511
64.6409
64.6121
64.5551
64.4711
64.3622
64.2327
64.0901
63.9473
63.825
63.7511
64.6409
64.6121
64.5551
64.4711
64.3622
64.2327
64.0901
63.9473
63.825
63.7511
64.6409
64.6121
64.5551
64.4711
64.3622
64.2327
64.0901
63.9473
63.8251
63.7512
64.6409
64.6121
64.5552
64.4711
64.3622
64.2327
64.0901
63.9474
63.8251
63.7512
64.6409
64.6122
64.5552
64.4711
64.3623
64.2328
64.0902
63.9474
63.8251
63.7512
58.4611
58.4276
58.3606
58.2604
58.1276
57.9644
57.7761
57.5751
57.3881
57.2639
58.4611
58.4276
58.3606
58.2604
58.1276
57.9644
57.776
57.575
57.3881
57.2638
58.4611
58.4275
58.3605
58.2603
58.1276
57.9643
57.776
57.575
57.388
57.2638
58.461
58.4275
58.3605
58.2603
58.1275
57.9643
57.7759
57.575
57.388
57.2638
58.461
58.4275
58.3605
58.2603
58.1275
57.9643
57.7759
57.5749
57.388
57.2638
58.461
58.4275
58.3605
58.2603
58.1275
57.9643
57.7759
57.5749
57.388
57.2638
58.461
58.4275
58.3605
58.2603
58.1275
57.9643
57.7759
57.5749
57.388
57.2638
58.461
58.4275
58.3605
58.2603
58.1275
57.9643
57.776
57.575
57.388
57.2638
58.4611
58.4275
58.3606
58.2603
58.1276
57.9644
57.776
57.575
57.3881
57.2638
58.4611
58.4276
58.3606
58.2604
58.1276
57.9644
57.776
57.575
57.3881
57.2639
52.6017
52.5644
52.4894
52.3756
52.2212
52.0241
51.7834
51.5035
51.2088
50.9761
52.6017
52.5644
52.4894
52.3755
52.2211
52.0241
51.7833
51.5035
51.2087
50.976
52.6016
52.5644
52.4894
52.3755
52.2211
52.024
51.7833
51.5034
51.2087
50.976
52.6016
52.5643
52.4893
52.3755
52.2211
52.024
51.7832
51.5034
51.2086
50.976
52.6016
52.5643
52.4893
52.3755
52.221
52.024
51.7832
51.5034
51.2086
50.9759
52.6016
52.5643
52.4893
52.3755
52.221
52.024
51.7832
51.5034
51.2086
50.9759
52.6016
52.5643
52.4893
52.3755
52.221
52.024
51.7832
51.5034
51.2086
50.976
52.6016
52.5643
52.4893
52.3755
52.2211
52.024
51.7833
51.5034
51.2087
50.976
52.6016
52.5644
52.4894
52.3755
52.2211
52.024
51.7833
51.5035
51.2087
50.976
52.6017
52.5644
52.4894
52.3756
52.2211
52.0241
51.7833
51.5035
51.2088
50.9761
47.0899
47.0508
46.9716
46.85
46.6815
46.4586
46.169
45.7952
45.3245
44.8192
47.0898
47.0507
46.9716
46.8499
46.6815
46.4585
46.1689
45.7952
45.3244
44.8191
47.0898
47.0507
46.9715
46.8499
46.6814
46.4585
46.1689
45.7951
45.3244
44.8191
47.0898
47.0507
46.9715
46.8499
46.6814
46.4585
46.1689
45.7951
45.3243
44.819
47.0897
47.0506
46.9715
46.8499
46.6814
46.4584
46.1688
45.7951
45.3243
44.819
47.0897
47.0506
46.9715
46.8499
46.6814
46.4584
46.1688
45.7951
45.3243
44.819
47.0897
47.0507
46.9715
46.8499
46.6814
46.4585
46.1688
45.7951
45.3243
44.819
47.0898
47.0507
46.9715
46.8499
46.6814
46.4585
46.1689
45.7951
45.3244
44.8191
47.0898
47.0507
46.9715
46.8499
46.6814
46.4585
46.1689
45.7952
45.3244
44.8191
47.0898
47.0507
46.9716
46.85
46.6815
46.4586
46.169
45.7952
45.3245
44.8192
41.9462
41.908
41.8304
41.7105
41.5424
41.3147
41.0047
40.5629
39.8683
38.5641
41.9462
41.9079
41.8303
41.7104
41.5423
41.3147
41.0046
40.5629
39.8682
38.564
41.9461
41.9079
41.8303
41.7104
41.5423
41.3146
41.0046
40.5628
39.8682
38.564
41.9461
41.9079
41.8302
41.7103
41.5423
41.3146
41.0045
40.5628
39.8681
38.5639
41.9461
41.9078
41.8302
41.7103
41.5422
41.3146
41.0045
40.5628
39.8681
38.5639
41.9461
41.9078
41.8302
41.7103
41.5422
41.3146
41.0045
40.5628
39.8681
38.5639
41.9461
41.9078
41.8302
41.7103
41.5422
41.3146
41.0045
40.5628
39.8681
38.5639
41.9461
41.9079
41.8303
41.7103
41.5423
41.3146
41.0046
40.5628
39.8682
38.564
41.9461
41.9079
41.8303
41.7104
41.5423
41.3147
41.0046
40.5629
39.8682
38.564
41.9462
41.9079
41.8303
41.7104
41.5424
41.3147
41.0046
40.5629
39.8683
38.5641
37.1837
37.1495
37.0802
36.9739
36.8259
36.6272
36.3598
35.9888
35.4501
34.6462
37.1837
37.1494
37.0802
36.9738
36.8259
36.6271
36.3597
35.9888
35.45
34.6461
37.1836
37.1494
37.0801
36.9738
36.8258
36.6271
36.3597
35.9887
35.4499
34.6461
37.1836
37.1494
37.0801
36.9738
36.8258
36.6271
36.3596
35.9887
35.4499
34.646
37.1836
37.1493
37.0801
36.9737
36.8258
36.6271
36.3596
35.9887
35.4499
34.646
37.1836
37.1493
37.0801
36.9737
36.8258
36.627
36.3596
35.9887
35.4499
34.646
37.1836
37.1493
37.0801
36.9738
36.8258
36.6271
36.3596
35.9887
35.4499
34.646
37.1836
37.1494
37.0801
36.9738
36.8258
36.6271
36.3597
35.9887
35.4499
34.6461
37.1836
37.1494
37.0802
36.9738
36.8258
36.6271
36.3597
35.9888
35.45
34.6461
37.1837
37.1494
37.0802
36.9739
36.8259
36.6272
36.3598
35.9888
35.45
34.6462
32.8073
32.7801
32.7257
32.6443
32.535
32.3957
32.2217
32.0065
31.7474
31.4756
32.8073
32.78
32.7257
32.6442
32.5349
32.3956
32.2217
32.0064
31.7473
31.4755
32.8072
32.78
32.7256
32.6442
32.5349
32.3955
32.2216
32.0064
31.7472
31.4754
32.8072
32.7799
32.7256
32.6441
32.5348
32.3955
32.2216
32.0063
31.7472
31.4754
32.8072
32.7799
32.7256
32.6441
32.5348
32.3955
32.2216
32.0063
31.7472
31.4754
32.8072
32.7799
32.7256
32.6441
32.5348
32.3955
32.2216
32.0063
31.7472
31.4754
32.8072
32.7799
32.7256
32.6441
32.5348
32.3955
32.2216
32.0063
31.7472
31.4754
32.8072
32.78
32.7256
32.6441
32.5349
32.3955
32.2216
32.0064
31.7472
31.4754
32.8072
32.78
32.7257
32.6442
32.5349
32.3956
32.2217
32.0064
31.7473
31.4755
32.8073
32.78
32.7257
32.6442
32.5349
32.3956
32.2217
32.0065
31.7473
31.4756
28.8141
28.7961
28.7616
28.7131
28.6551
28.5935
28.5374
28.5025
28.5195
28.6553
28.8141
28.7961
28.7615
28.7131
28.655
28.5934
28.5374
28.5024
28.5194
28.6552
28.814
28.796
28.7615
28.713
28.655
28.5934
28.5373
28.5023
28.5194
28.6552
28.814
28.796
28.7614
28.713
28.655
28.5933
28.5373
28.5023
28.5194
28.6551
28.814
28.796
28.7614
28.713
28.6549
28.5933
28.5373
28.5023
28.5193
28.6551
28.814
28.796
28.7614
28.713
28.6549
28.5933
28.5373
28.5023
28.5193
28.6551
28.814
28.796
28.7614
28.713
28.655
28.5933
28.5373
28.5023
28.5193
28.6551
28.814
28.796
28.7615
28.713
28.655
28.5934
28.5373
28.5023
28.5194
28.6552
28.814
28.7961
28.7615
28.7131
28.655
28.5934
28.5374
28.5024
28.5194
28.6552
28.8141
28.7961
28.7615
28.7131
28.6551
28.5935
28.5374
28.5024
28.5195
28.6553
25.1944
25.1868
25.1744
25.1627
25.1609
25.1824
25.2471
25.3844
25.6389
26.078
25.1943
25.1868
25.1743
25.1627
25.1608
25.1823
25.247
25.3844
25.6388
26.0779
25.1943
25.1867
25.1743
25.1626
25.1608
25.1823
25.247
25.3843
25.6387
26.0779
25.1943
25.1867
25.1743
25.1626
25.1608
25.1822
25.2469
25.3843
25.6387
26.0778
25.1942
25.1867
25.1743
25.1626
25.1607
25.1822
25.2469
25.3843
25.6387
26.0778
25.1942
25.1867
25.1743
25.1626
25.1607
25.1822
25.2469
25.3843
25.6387
26.0778
25.1942
25.1867
25.1743
25.1626
25.1608
25.1822
25.2469
25.3843
25.6387
26.0778
25.1943
25.1867
25.1743
25.1626
25.1608
25.1823
25.247
25.3843
25.6387
26.0779
25.1943
25.1867
25.1743
25.1627
25.1608
25.1823
25.247
25.3844
25.6388
26.0779
25.1943
25.1868
25.1744
25.1627
25.1609
25.1824
25.2471
25.3844
25.6388
26.078
21.9328
21.9356
21.9451
21.9694
22.0215
22.1212
22.2962
22.5847
23.0369
23.7134
21.9328
21.9356
21.9451
21.9693
22.0215
22.1211
22.2961
22.5847
23.0369
23.7133
21.9327
21.9355
21.945
21.9693
22.0214
22.1211
22.2961
22.5846
23.0368
23.7133
21.9327
21.9355
21.945
21.9692
22.0214
22.121
22.296
22.5846
23.0368
23.7132
21.9327
21.9355
21.945
21.9692
22.0214
22.121
22.296
22.5846
23.0368
23.7132
21.9327
21.9355
21.945
21.9692
22.0214
22.121
22.296
22.5846
23.0368
23.7132
21.9327
21.9355
21.945
21.9692
22.0214
22.121
22.296
22.5846
23.0368
23.7132
21.9327
21.9355
21.945
21.9693
22.0214
22.1211
22.2961
22.5846
23.0368
23.7132
21.9327
21.9355
21.945
21.9693
22.0215
22.1211
22.2961
22.5847
23.0369
23.7133
21.9328
21.9356
21.9451
21.9694
22.0215
22.1212
22.2962
22.5847
23.0369
23.7134
19.0104
19.0224
19.051
19.1063
19.2044
19.3694
19.6356
20.0489
20.6665
21.5478
19.0103
19.0223
19.051
19.1063
19.2044
19.3694
19.6355
20.0488
20.6664
21.5477
19.0103
19.0223
19.051
19.1062
19.2043
19.3693
19.6355
20.0488
20.6664
21.5477
19.0103
19.0223
19.0509
19.1062
19.2043
19.3693
19.6354
20.0488
20.6663
21.5476
19.0103
19.0222
19.0509
19.1062
19.2043
19.3693
19.6354
20.0487
20.6663
21.5476
19.0103
19.0222
19.0509
19.1062
19.2043
19.3693
19.6354
20.0487
20.6663
21.5476
19.0103
19.0223
19.0509
19.1062
19.2043
19.3693
19.6354
20.0488
20.6663
21.5476
19.0103
19.0223
19.051
19.1062
19.2043
19.3693
19.6355
20.0488
20.6664
21.5477
19.0103
19.0223
19.051
19.1063
19.2044
19.3694
19.6355
20.0488
20.6664
21.5477
19.0104
19.0223
19.051
19.1063
19.2044
19.3694
19.6356
20.0489
20.6665
21.5478
16.4059
16.425
16.4682
16.5465
16.6776
16.8887
17.2188
17.7233
18.4753
19.5557
16.4059
16.4249
16.4682
16.5464
16.6776
16.8886
17.2188
17.7233
18.4753
19.5556
16.4059
16.4249
16.4681
16.5464
16.6776
16.8886
17.2187
17.7232
18.4752
19.5556
16.4058
16.4249
16.4681
16.5464
16.6775
16.8886
17.2187
17.7232
18.4752
19.5555
16.4058
16.4248
16.4681
16.5464
16.6775
16.8886
17.2187
17.7232
18.4752
19.5555
16.4058
16.4248
16.4681
16.5464
16.6775
16.8886
17.2187
17.7232
18.4752
19.5555
16.4058
16.4249
16.4681
16.5464
16.6775
16.8886
17.2187
17.7232
18.4752
19.5555
16.4059
16.4249
16.4681
16.5464
16.6776
16.8886
17.2187
17.7232
18.4752
19.5556
16.4059
16.4249
16.4681
16.5464
16.6776
16.8886
17.2188
17.7233
18.4753
19.5556
16.4059
16.425
16.4682
16.5465
16.6777
16.8887
17.2188
17.7233
18.4753
19.5557
14.0976
14.121
14.173
14.2642
14.4123
14.6444
15.0016
15.5471
16.3814
17.6592
14.0975
14.1209
14.1729
14.2641
14.4122
14.6443
15.0015
15.5471
16.3814
17.6592
14.0975
14.1209
14.1729
14.2641
14.4122
14.6443
15.0015
15.547
16.3813
17.6591
14.0975
14.1209
14.1729
14.2641
14.4122
14.6443
15.0014
15.547
16.3813
17.6591
14.0974
14.1209
14.1729
14.2641
14.4122
14.6443
15.0014
15.547
16.3813
17.6591
14.0974
14.1209
14.1729
14.2641
14.4122
14.6443
15.0014
15.547
16.3813
17.6591
14.0975
14.1209
14.1729
14.2641
14.4122
14.6443
15.0014
15.547
16.3813
17.6591
14.0975
14.1209
14.1729
14.2641
14.4122
14.6443
15.0015
15.547
16.3813
17.6591
14.0975
14.1209
14.1729
14.2641
14.4122
14.6443
15.0015
15.5471
16.3814
17.6592
14.0975
14.121
14.173
14.2642
14.4123
14.6444
15.0016
15.5471
16.3814
17.6592
12.0639
12.089
12.1437
12.2374
12.3853
12.6106
12.9485
13.4564
14.2462
15.6025
12.0638
12.0889
12.1436
12.2373
12.3853
12.6106
12.9484
13.4563
14.2462
15.6024
12.0638
12.0889
12.1436
12.2373
12.3852
12.6105
12.9484
13.4563
14.2461
15.6024
12.0638
12.0889
12.1436
12.2373
12.3852
12.6105
12.9484
13.4563
14.2461
15.6024
12.0638
12.0889
12.1436
12.2373
12.3852
12.6105
12.9484
13.4563
14.2461
15.6024
12.0638
12.0889
12.1436
12.2373
12.3852
12.6105
12.9484
13.4563
14.2461
15.6024
12.0638
12.0889
12.1436
12.2373
12.3852
12.6105
12.9484
13.4563
14.2461
15.6024
12.0638
12.0889
12.1436
12.2373
12.3852
12.6106
12.9484
13.4563
14.2462
15.6024
12.0638
12.0889
12.1436
12.2373
12.3853
12.6106
12.9484
13.4564
14.2462
15.6025
12.0638
12.089
12.1437
12.2374
12.3853
12.6106
12.9485
13.4564
14.2463
15.6025
35.3846
34.5332
35.3184
37.5186
41.1216
46.2521
53.1746
62.3581
74.653
91.762
35.3845
34.5332
35.3183
37.5185
41.1215
46.252
53.1745
62.358
74.6529
91.7619
35.3844
34.5331
35.3182
37.5184
41.1214
46.2519
53.1744
62.3579
74.6528
91.7618
35.3844
34.533
35.3182
37.5183
41.1214
46.2519
53.1743
62.3578
74.6527
91.7617
35.3844
34.533
35.3181
37.5183
41.1213
46.2518
53.1743
62.3578
74.6527
91.7617
35.3844
34.533
35.3181
37.5183
41.1213
46.2518
53.1743
62.3578
74.6527
91.7617
35.3844
34.533
35.3182
37.5183
41.1214
46.2518
53.1743
62.3578
74.6527
91.7617
35.3844
34.5331
35.3182
37.5184
41.1214
46.2519
53.1743
62.3579
74.6528
91.7617
35.3845
34.5331
35.3182
37.5184
41.1215
46.2519
53.1744
62.3579
74.6528
91.7618
35.3845
34.5332
35.3183
37.5185
41.1215
46.252
53.1745
62.358
74.6529
91.7619
33.5806
33.474
34.5296
36.7892
40.3136
45.2243
51.7207
60.0949
70.7247
83.9197
33.5806
33.4739
34.5296
36.7891
40.3135
45.2242
51.7206
60.0948
70.7245
83.9195
33.5805
33.4738
34.5295
36.789
40.3134
45.2241
51.7205
60.0947
70.7244
83.9194
33.5804
33.4738
34.5294
36.789
40.3133
45.224
51.7204
60.0946
70.7244
83.9194
33.5804
33.4738
34.5294
36.7889
40.3133
45.224
51.7204
60.0946
70.7243
83.9193
33.5804
33.4738
34.5294
36.7889
40.3133
45.224
51.7204
60.0946
70.7243
83.9193
33.5804
33.4738
34.5294
36.7889
40.3133
45.224
51.7204
60.0946
70.7244
83.9193
33.5805
33.4738
34.5294
36.789
40.3133
45.2241
51.7205
60.0946
70.7244
83.9194
33.5805
33.4739
34.5295
36.789
40.3134
45.2241
51.7205
60.0947
70.7245
83.9195
33.5806
33.4739
34.5296
36.7891
40.3135
45.2242
51.7206
60.0948
70.7246
83.9196
31.3496
31.8317
33.1631
35.4671
38.8366
43.3724
49.1933
56.4208
65.1135
75.0828
31.3496
31.8317
33.163
35.467
38.8365
43.3723
49.1932
56.4207
65.1134
75.0826
31.3495
31.8316
33.1629
35.4669
38.8364
43.3722
49.1931
56.4206
65.1133
75.0825
31.3495
31.8315
33.1628
35.4668
38.8363
43.3721
49.1931
56.4206
65.1132
75.0824
31.3494
31.8315
33.1628
35.4668
38.8363
43.3721
49.193
56.4205
65.1132
75.0824
31.3494
31.8315
33.1628
35.4668
38.8363
43.3721
49.193
56.4205
65.1132
75.0824
31.3495
31.8315
33.1628
35.4668
38.8363
43.3721
49.1931
56.4205
65.1132
75.0824
31.3495
31.8316
33.1629
35.4669
38.8363
43.3721
49.1931
56.4206
65.1132
75.0825
31.3495
31.8316
33.1629
35.4669
38.8364
43.3722
49.1932
56.4207
65.1133
75.0826
31.3496
31.8317
33.163
35.467
38.8365
43.3723
49.1933
56.4208
65.1135
75.0827
29.0472
29.9202
31.4481
33.7483
36.9063
40.9916
46.0577
52.1196
59.1007
66.7333
29.0471
29.9201
31.448
33.7482
36.9062
40.9915
46.0575
52.1195
59.1006
66.7332
29.0471
29.92
31.4479
33.7481
36.9061
40.9914
46.0575
52.1194
59.1005
66.7331
29.047
29.92
31.4478
33.7481
36.906
40.9914
46.0574
52.1193
59.1004
66.733
29.047
29.9199
31.4478
33.748
36.906
40.9914
46.0574
52.1193
59.1004
66.733
29.047
29.9199
31.4478
33.748
36.906
40.9914
46.0574
52.1193
59.1004
66.733
29.047
29.9199
31.4478
33.748
36.906
40.9914
46.0574
52.1193
59.1004
66.733
29.0471
29.92
31.4479
33.7481
36.9061
40.9914
46.0574
52.1194
59.1005
66.7331
29.0471
29.92
31.4479
33.7482
36.9061
40.9915
46.0575
52.1195
59.1006
66.7332
29.0472
29.9201
31.448
33.7483
36.9062
40.9916
46.0576
52.1196
59.1007
66.7333
26.8008
27.9315
29.5812
31.8354
34.7553
38.3791
42.7155
47.7272
53.3003
59.2077
26.8007
27.9314
29.5811
31.8353
34.7552
38.3789
42.7154
47.7271
53.3002
59.2075
26.8006
27.9313
29.5811
31.8352
34.7551
38.3789
42.7153
47.727
53.3001
59.2074
26.8006
27.9313
29.581
31.8352
34.7551
38.3788
42.7153
47.7269
53.3001
59.2074
26.8005
27.9313
29.581
31.8352
34.755
38.3788
42.7152
47.7269
53.3
59.2073
26.8005
27.9313
29.581
31.8351
34.755
38.3788
42.7152
47.7269
53.3
59.2073
26.8006
27.9313
29.581
31.8352
34.7551
38.3788
42.7153
47.7269
53.3001
59.2074
26.8006
27.9313
29.581
31.8352
34.7551
38.3789
42.7153
47.727
53.3001
59.2074
26.8007
27.9314
29.5811
31.8353
34.7552
38.3789
42.7154
47.7271
53.3002
59.2075
26.8007
27.9315
29.5812
31.8354
34.7553
38.379
42.7155
47.7272
53.3003
59.2077
24.6794
25.9967
27.7245
29.9135
32.599
35.7933
39.4769
43.5888
48.0154
52.5861
24.6794
25.9967
27.7244
29.9134
32.5989
35.7931
39.4768
43.5887
48.0153
52.5859
24.6793
25.9966
27.7243
29.9133
32.5989
35.7931
39.4767
43.5886
48.0152
52.5858
24.6793
25.9966
27.7243
29.9133
32.5988
35.793
39.4766
43.5885
48.0151
52.5858
24.6792
25.9965
27.7242
29.9133
32.5988
35.793
39.4766
43.5885
48.0151
52.5858
24.6792
25.9965
27.7242
29.9133
32.5988
35.793
39.4766
43.5885
48.0151
52.5858
24.6793
25.9965
27.7243
29.9133
32.5988
35.793
39.4766
43.5885
48.0151
52.5858
24.6793
25.9966
27.7243
29.9133
32.5989
35.7931
39.4767
43.5886
48.0152
52.5859
24.6794
25.9967
27.7244
29.9134
32.5989
35.7931
39.4768
43.5887
48.0153
52.5859
24.6794
25.9967
27.7245
29.9135
32.599
35.7933
39.4769
43.5888
48.0154
52.5861
22.7326
24.2171
26.0132
28.1436
30.6236
33.4472
36.5765
39.9371
43.4194
46.8944
22.7325
24.217
26.0132
28.1435
30.6235
33.4471
36.5764
39.937
43.4192
46.8943
22.7324
24.217
26.0131
28.1434
30.6235
33.447
36.5763
39.9369
43.4191
46.8942
22.7324
24.2169
26.013
28.1434
30.6234
33.4469
36.5763
39.9369
43.4191
46.8942
22.7324
24.2169
26.013
28.1433
30.6234
33.4469
36.5763
39.9369
43.4191
46.8941
22.7324
24.2169
26.013
28.1434
30.6234
33.4469
36.5763
39.9369
43.4191
46.8941
22.7324
24.2169
26.013
28.1434
30.6234
33.4469
36.5763
39.9369
43.4191
46.8942
22.7324
24.217
26.0131
28.1434
30.6235
33.447
36.5764
39.937
43.4192
46.8942
22.7325
24.217
26.0132
28.1435
30.6235
33.4471
36.5764
39.937
43.4192
46.8943
22.7326
24.2171
26.0132
28.1436
30.6236
33.4472
36.5765
39.9372
43.4194
46.8945
21.0012
22.6821
24.5659
26.6637
28.9849
31.514
34.1994
36.9507
39.6458
42.1623
21.0011
22.6821
24.5658
26.6636
28.9848
31.5139
34.1993
36.9506
39.6457
42.1622
21.001
22.682
24.5657
26.6635
28.9848
31.5138
34.1992
36.9505
39.6456
42.1621
21.001
22.682
24.5657
26.6635
28.9847
31.5137
34.1992
36.9505
39.6456
42.1621
21.001
22.682
24.5657
26.6635
28.9847
31.5137
34.1991
36.9505
39.6456
42.1621
21.001
22.682
24.5657
26.6635
28.9847
31.5137
34.1991
36.9505
39.6456
42.1621
21.001
22.682
24.5657
26.6635
28.9847
31.5137
34.1992
36.9505
39.6456
42.1621
21.001
22.682
24.5657
26.6635
28.9848
31.5138
34.1992
36.9506
39.6457
42.1622
21.0011
22.6821
24.5658
26.6636
28.9848
31.5139
34.1993
36.9506
39.6457
42.1623
21.0012
22.6822
24.5659
26.6637
28.9849
31.514
34.1994
36.9508
39.6459
42.1624
19.5365
21.4902
23.4937
25.5919
27.8101
30.1336
32.4997
34.7938
36.8491
38.4711
19.5365
21.4902
23.4937
25.5918
27.8101
30.1335
32.4996
34.7937
36.849
38.471
19.5364
21.4901
23.4936
25.5917
27.81
30.1334
32.4995
34.7936
36.8489
38.4709
19.5364
21.4901
23.4936
25.5917
27.8099
30.1334
32.4995
34.7936
36.8489
38.4708
19.5364
21.4901
23.4935
25.5917
27.8099
30.1333
32.4995
34.7936
36.8488
38.4708
19.5364
21.4901
23.4935
25.5917
27.8099
30.1334
32.4995
34.7936
36.8488
38.4708
19.5364
21.4901
23.4936
25.5917
27.81
30.1334
32.4995
34.7936
36.8489
38.4709
19.5364
21.4901
23.4936
25.5918
27.81
30.1334
32.4996
34.7936
36.8489
38.4709
19.5365
21.4902
23.4937
25.5918
27.8101
30.1335
32.4996
34.7937
36.849
38.471
19.5365
21.4903
23.4938
25.5919
27.8102
30.1336
32.4997
34.7938
36.8491
38.4711
18.4831
20.7844
22.9087
25.0249
27.1954
29.4126
31.6068
33.6379
35.2691
36.0944
18.483
20.7844
22.9086
25.0249
27.1953
29.4125
31.6067
33.6379
35.2691
36.0943
18.483
20.7843
22.9086
25.0248
27.1952
29.4124
31.6066
33.6378
35.269
36.0943
18.483
20.7843
22.9085
25.0248
27.1952
29.4124
31.6066
33.6378
35.2689
36.0942
18.483
20.7843
22.9085
25.0248
27.1952
29.4124
31.6066
33.6377
35.2689
36.0942
18.483
20.7843
22.9085
25.0248
27.1952
29.4124
31.6066
33.6377
35.2689
36.0942
18.483
20.7843
22.9085
25.0248
27.1952
29.4124
31.6066
33.6378
35.2689
36.0942
18.483
20.7843
22.9086
25.0248
27.1953
29.4125
31.6067
33.6378
35.269
36.0943
18.4831
20.7844
22.9086
25.0249
27.1953
29.4125
31.6067
33.6379
35.2691
36.0944
18.4831
20.7845
22.9087
25.025
27.1954
29.4126
31.6068
33.638
35.2692
36.0945
117.632
129.943
137.496
142.787
146.705
149.648
151.83
153.38
154.375
154.861
117.632
129.943
137.496
142.787
146.705
149.648
151.83
153.38
154.374
154.861
117.632
129.943
137.496
142.787
146.705
149.648
151.83
153.379
154.374
154.861
117.632
129.943
137.496
142.787
146.705
149.648
151.83
153.379
154.374
154.861
117.632
129.943
137.496
142.787
146.705
149.648
151.83
153.379
154.374
154.861
117.632
129.943
137.496
142.787
146.705
149.648
151.83
153.379
154.374
154.861
117.632
129.943
137.496
142.787
146.705
149.648
151.83
153.379
154.374
154.861
117.632
129.943
137.496
142.787
146.705
149.648
151.83
153.379
154.374
154.861
117.632
129.943
137.496
142.787
146.705
149.648
151.83
153.38
154.374
154.861
117.632
129.943
137.496
142.787
146.705
149.648
151.83
153.38
154.375
154.861
99.0252
110.021
117.8
123.449
127.644
130.781
133.094
134.728
135.774
136.285
99.0251
110.021
117.8
123.448
127.644
130.781
133.094
134.728
135.774
136.285
99.025
110.021
117.799
123.448
127.644
130.781
133.093
134.728
135.774
136.285
99.0249
110.021
117.799
123.448
127.644
130.781
133.093
134.728
135.774
136.285
99.0249
110.021
117.799
123.448
127.644
130.781
133.093
134.728
135.774
136.285
99.0249
110.02
117.799
123.448
127.644
130.781
133.093
134.728
135.774
136.285
99.0249
110.021
117.799
123.448
127.644
130.781
133.093
134.728
135.774
136.285
99.025
110.021
117.799
123.448
127.644
130.781
133.093
134.728
135.774
136.285
99.025
110.021
117.799
123.448
127.644
130.781
133.094
134.728
135.774
136.285
99.0252
110.021
117.8
123.449
127.644
130.781
133.094
134.728
135.774
136.285
85.4731
94.2839
101.223
106.571
110.666
113.774
116.083
117.721
118.771
119.284
85.4729
94.2837
101.222
106.571
110.666
113.774
116.083
117.721
118.771
119.284
85.4728
94.2836
101.222
106.571
110.666
113.774
116.083
117.721
118.771
119.284
85.4728
94.2836
101.222
106.571
110.666
113.774
116.083
117.72
118.771
119.284
85.4727
94.2835
101.222
106.571
110.666
113.774
116.083
117.72
118.771
119.284
85.4727
94.2835
101.222
106.571
110.666
113.774
116.083
117.72
118.771
119.284
85.4728
94.2835
101.222
106.571
110.666
113.774
116.083
117.72
118.771
119.284
85.4728
94.2836
101.222
106.571
110.666
113.774
116.083
117.721
118.771
119.284
85.4729
94.2837
101.222
106.571
110.666
113.774
116.083
117.721
118.771
119.284
85.4731
94.2839
101.223
106.571
110.666
113.774
116.083
117.721
118.771
119.284
74.4388
81.3832
87.2223
91.9524
95.6984
98.6039
100.793
102.359
103.368
103.863
74.4386
81.383
87.2221
91.9523
95.6982
98.6038
100.792
102.358
103.368
103.863
74.4385
81.3829
87.222
91.9521
95.6981
98.6037
100.792
102.358
103.368
103.863
74.4385
81.3828
87.2219
91.9521
95.698
98.6036
100.792
102.358
103.368
103.862
74.4384
81.3828
87.2219
91.952
95.698
98.6036
100.792
102.358
103.368
103.862
74.4384
81.3828
87.2219
91.952
95.698
98.6036
100.792
102.358
103.368
103.862
74.4385
81.3828
87.2219
91.9521
95.698
98.6036
100.792
102.358
103.368
103.863
74.4385
81.3829
87.222
91.9522
95.6981
98.6037
100.792
102.358
103.368
103.863
74.4386
81.383
87.2221
91.9523
95.6982
98.6038
100.792
102.358
103.368
103.863
74.4388
81.3832
87.2223
91.9524
95.6984
98.604
100.793
102.359
103.368
103.863
65.0914
70.5395
75.3055
79.3125
82.5824
85.1764
87.1623
88.5991
89.5321
89.9912
65.0913
70.5394
75.3054
79.3124
82.5822
85.1763
87.1622
88.599
89.532
89.9911
65.0912
70.5393
75.3053
79.3123
82.5821
85.1762
87.162
88.5989
89.5319
89.991
65.0911
70.5392
75.3052
79.3122
82.5821
85.1761
87.162
88.5988
89.5318
89.991
65.0911
70.5392
75.3052
79.3122
82.582
85.1761
87.162
88.5988
89.5318
89.9909
65.0911
70.5392
75.3052
79.3122
82.582
85.1761
87.162
88.5988
89.5318
89.9909
65.0911
70.5392
75.3052
79.3122
82.5821
85.1761
87.162
88.5988
89.5318
89.991
65.0912
70.5393
75.3053
79.3123
82.5821
85.1762
87.1621
88.5989
89.5319
89.9911
65.0913
70.5394
75.3054
79.3124
82.5823
85.1763
87.1622
88.599
89.532
89.9912
65.0914
70.5396
75.3055
79.3125
82.5824
85.1765
87.1624
88.5992
89.5322
89.9914
57.088
61.3109
65.1024
68.3835
71.1325
73.3613
75.0966
76.3677
77.1999
77.6115
57.0879
61.3108
65.1023
68.3834
71.1324
73.3612
75.0965
76.3675
77.1998
77.6114
57.0878
61.3107
65.1022
68.3833
71.1323
73.3611
75.0964
76.3674
77.1997
77.6113
57.0877
61.3106
65.1021
68.3832
71.1322
73.361
75.0963
76.3674
77.1997
77.6112
57.0877
61.3106
65.1021
68.3832
71.1322
73.361
75.0963
76.3674
77.1996
77.6112
57.0877
61.3106
65.1021
68.3832
71.1322
73.361
75.0963
76.3674
77.1997
77.6112
57.0877
61.3106
65.1021
68.3832
71.1322
73.361
75.0963
76.3674
77.1997
77.6113
57.0878
61.3107
65.1022
68.3833
71.1323
73.3611
75.0964
76.3675
77.1998
77.6114
57.0879
61.3108
65.1023
68.3834
71.1324
73.3612
75.0965
76.3676
77.1999
77.6115
57.088
61.3109
65.1024
68.3835
71.1325
73.3614
75.0967
76.3678
77.2001
77.6116
50.2499
53.4221
56.3378
58.9322
61.1637
63.0136
64.4796
65.5676
66.2866
66.6439
50.2498
53.422
56.3377
58.9321
61.1635
63.0135
64.4794
65.5675
66.2864
66.6438
50.2497
53.4219
56.3376
58.932
61.1634
63.0134
64.4793
65.5674
66.2864
66.6438
50.2496
53.4218
56.3375
58.9319
61.1634
63.0133
64.4793
65.5674
66.2863
66.6437
50.2496
53.4218
56.3375
58.9319
61.1633
63.0133
64.4793
65.5673
66.2863
66.6437
50.2496
53.4218
56.3375
58.9319
61.1634
63.0133
64.4793
65.5673
66.2863
66.6437
50.2496
53.4218
56.3375
58.9319
61.1634
63.0133
64.4793
65.5674
66.2863
66.6438
50.2497
53.4219
56.3376
58.932
61.1635
63.0134
64.4794
65.5675
66.2864
66.6438
50.2498
53.422
56.3377
58.9321
61.1636
63.0135
64.4795
65.5676
66.2865
66.644
50.2499
53.4221
56.3379
58.9323
61.1637
63.0137
64.4796
65.5677
66.2867
66.6441
44.456
46.6693
48.7908
50.7553
52.5012
53.9863
55.1865
56.0901
56.6931
56.9946
44.4559
46.6692
48.7907
50.7552