/*--------------------------------*- C++ -*----------------------------------*\
  =========                 |
  \\      /  F ield         | OpenFOAM: The Open Source CFD Toolbox
   \\    /   O peration     | Website:  https://openfoam.org
    \\  /    A nd           | Version:  6
     \\/     M anipulation  |
\*---------------------------------------------------------------------------*/
FoamFile
{
    version     2.0;
    format      ascii;
    class       volScalarField;
    location    "0.165";
    object      T;
}
// * * * * * * * * * * * * * * * * * * * * * * * * * * * * * * * * * * * * * //

dimensions      [0 0 0 1 0 0 0];

internalField   nonuniform List<scalar> 
7000
(
102.33
102.329
102.329
102.329
102.329
102.329
102.328
102.328
102.328
102.328
102.33
102.329
102.329
102.329
102.329
102.329
102.328
102.328
102.328
102.328
102.329
102.329
102.329
102.329
102.329
102.329
102.328
102.328
102.328
102.328
102.329
102.329
102.329
102.329
102.329
102.329
102.328
102.328
102.328
102.328
102.329
102.329
102.329
102.329
102.329
102.329
102.328
102.328
102.328
102.328
102.329
102.329
102.329
102.329
102.329
102.329
102.328
102.328
102.328
102.328
102.329
102.329
102.329
102.329
102.329
102.329
102.328
102.328
102.328
102.328
102.329
102.329
102.329
102.329
102.329
102.329
102.328
102.328
102.328
102.328
102.329
102.329
102.329
102.329
102.329
102.329
102.328
102.328
102.328
102.328
102.329
102.329
102.329
102.329
102.329
102.329
102.328
102.328
102.328
102.328
87.2231
87.2228
87.2224
87.2219
87.2212
87.2203
87.2194
87.2184
87.2176
87.2172
87.223
87.2227
87.2223
87.2218
87.2211
87.2202
87.2192
87.2183
87.2175
87.2171
87.2229
87.2226
87.2222
87.2217
87.221
87.2201
87.2192
87.2182
87.2174
87.217
87.2228
87.2226
87.2222
87.2217
87.221
87.2201
87.2191
87.2182
87.2174
87.217
87.2228
87.2225
87.2222
87.2216
87.2209
87.2201
87.2191
87.2181
87.2174
87.217
87.2228
87.2225
87.2222
87.2216
87.2209
87.2201
87.2191
87.2181
87.2174
87.217
87.2228
87.2225
87.2222
87.2216
87.221
87.2201
87.2191
87.2182
87.2174
87.217
87.2228
87.2226
87.2222
87.2217
87.221
87.2201
87.2192
87.2182
87.2174
87.217
87.2229
87.2226
87.2223
87.2218
87.2211
87.2202
87.2192
87.2183
87.2175
87.2171
87.2229
87.2227
87.2223
87.2218
87.2211
87.2203
87.2193
87.2184
87.2176
87.2172
72.7983
72.7979
72.7971
72.7961
72.7946
72.7928
72.7907
72.7885
72.7867
72.7857
72.7981
72.7977
72.797
72.7959
72.7945
72.7926
72.7905
72.7884
72.7866
72.7856
72.798
72.7976
72.7968
72.7958
72.7943
72.7925
72.7904
72.7882
72.7865
72.7855
72.7979
72.7975
72.7968
72.7957
72.7943
72.7924
72.7903
72.7882
72.7864
72.7854
72.7979
72.7974
72.7967
72.7957
72.7942
72.7924
72.7903
72.7881
72.7864
72.7854
72.7979
72.7974
72.7967
72.7957
72.7942
72.7924
72.7903
72.7882
72.7864
72.7854
72.7979
72.7975
72.7967
72.7957
72.7943
72.7925
72.7903
72.7882
72.7864
72.7855
72.798
72.7975
72.7968
72.7958
72.7943
72.7925
72.7904
72.7883
72.7865
72.7855
72.7981
72.7976
72.7969
72.7959
72.7945
72.7926
72.7905
72.7884
72.7866
72.7856
72.7981
72.7977
72.797
72.796
72.7946
72.7928
72.7907
72.7885
72.7867
72.7858
59.4414
59.4407
59.4394
59.4376
59.4349
59.4314
59.4272
59.4228
59.419
59.4168
59.4412
59.4404
59.4392
59.4374
59.4347
59.4312
59.427
59.4226
59.4188
59.4166
59.441
59.4403
59.4391
59.4372
59.4345
59.4311
59.4269
59.4225
59.4187
59.4165
59.4409
59.4402
59.439
59.4371
59.4345
59.431
59.4268
59.4224
59.4186
59.4164
59.4408
59.4401
59.4389
59.4371
59.4344
59.4309
59.4267
59.4223
59.4186
59.4164
59.4408
59.4401
59.4389
59.4371
59.4344
59.4309
59.4268
59.4224
59.4186
59.4164
59.4409
59.4402
59.439
59.4371
59.4345
59.431
59.4268
59.4224
59.4186
59.4165
59.441
59.4403
59.4391
59.4372
59.4346
59.4311
59.4269
59.4225
59.4187
59.4166
59.4411
59.4404
59.4392
59.4373
59.4347
59.4312
59.4271
59.4227
59.4189
59.4167
59.4412
59.4405
59.4394
59.4375
59.4349
59.4314
59.4272
59.4228
59.4191
59.4169
47.4465
47.4454
47.4435
47.4403
47.4357
47.4293
47.4214
47.4126
47.4047
47.4
47.4463
47.4452
47.4432
47.4401
47.4354
47.4291
47.4211
47.4124
47.4045
47.3998
47.4461
47.445
47.4431
47.4399
47.4353
47.4289
47.421
47.4122
47.4044
47.3997
47.446
47.4449
47.443
47.4398
47.4352
47.4288
47.4209
47.4122
47.4043
47.3996
47.4459
47.4449
47.4429
47.4398
47.4351
47.4288
47.4208
47.4121
47.4043
47.3996
47.4459
47.4449
47.4429
47.4398
47.4351
47.4288
47.4209
47.4121
47.4043
47.3996
47.446
47.4449
47.443
47.4398
47.4352
47.4288
47.4209
47.4122
47.4044
47.3997
47.4461
47.445
47.4431
47.4399
47.4353
47.429
47.421
47.4123
47.4045
47.3998
47.4462
47.4452
47.4432
47.4401
47.4355
47.4291
47.4212
47.4125
47.4047
47.4
47.4464
47.4454
47.4434
47.4403
47.4357
47.4294
47.4214
47.4127
47.4049
47.4002
36.9988
36.9972
36.9942
36.9891
36.9813
36.9701
36.9555
36.9386
36.9225
36.9122
36.9985
36.997
36.9939
36.9889
36.981
36.9699
36.9553
36.9384
36.9223
36.912
36.9984
36.9968
36.9938
36.9887
36.9809
36.9697
36.9551
36.9382
36.9221
36.9119
36.9982
36.9967
36.9937
36.9886
36.9808
36.9696
36.955
36.9381
36.9221
36.9118
36.9982
36.9967
36.9936
36.9885
36.9807
36.9696
36.955
36.9381
36.922
36.9118
36.9982
36.9967
36.9936
36.9885
36.9807
36.9696
36.955
36.9381
36.922
36.9118
36.9982
36.9967
36.9937
36.9886
36.9808
36.9697
36.9551
36.9382
36.9221
36.9119
36.9984
36.9968
36.9938
36.9887
36.9809
36.9698
36.9552
36.9383
36.9223
36.9121
36.9985
36.997
36.994
36.9889
36.9811
36.97
36.9554
36.9385
36.9224
36.9122
36.9987
36.9972
36.9942
36.9891
36.9813
36.9702
36.9556
36.9387
36.9227
36.9125
28.171
28.1689
28.1643
28.1565
28.1439
28.1252
28.0992
28.0672
28.0344
28.0119
28.1708
28.1686
28.1641
28.1563
28.1437
28.1249
28.099
28.067
28.0342
28.0118
28.1706
28.1685
28.164
28.1561
28.1436
28.1248
28.0988
28.0668
28.0341
28.0116
28.1705
28.1684
28.1639
28.156
28.1435
28.1247
28.0987
28.0667
28.034
28.0116
28.1705
28.1683
28.1638
28.156
28.1434
28.1246
28.0987
28.0667
28.034
28.0115
28.1705
28.1683
28.1638
28.156
28.1434
28.1247
28.0987
28.0667
28.034
28.0116
28.1705
28.1684
28.1639
28.156
28.1435
28.1247
28.0988
28.0668
28.0341
28.0117
28.1707
28.1685
28.164
28.1562
28.1436
28.1249
28.0989
28.0669
28.0342
28.0118
28.1708
28.1687
28.1642
28.1563
28.1438
28.1251
28.0991
28.0671
28.0344
28.012
28.171
28.1689
28.1644
28.1566
28.1441
28.1253
28.0994
28.0674
28.0347
28.0122
20.9342
20.9313
20.9249
20.9135
20.8944
20.8644
20.8202
20.7612
20.6947
20.6435
20.934
20.9311
20.9247
20.9133
20.8942
20.8642
20.82
20.761
20.6946
20.6434
20.9338
20.9309
20.9246
20.9131
20.8941
20.8641
20.8199
20.7609
20.6944
20.6433
20.9337
20.9308
20.9245
20.913
20.894
20.864
20.8198
20.7608
20.6944
20.6432
20.9337
20.9308
20.9244
20.913
20.894
20.864
20.8198
20.7608
20.6943
20.6432
20.9337
20.9308
20.9244
20.913
20.894
20.864
20.8198
20.7608
20.6944
20.6432
20.9338
20.9309
20.9245
20.9131
20.894
20.864
20.8199
20.7609
20.6945
20.6433
20.9339
20.931
20.9246
20.9132
20.8942
20.8642
20.82
20.761
20.6946
20.6434
20.934
20.9311
20.9248
20.9134
20.8943
20.8643
20.8202
20.7612
20.6948
20.6436
20.9342
20.9313
20.925
20.9136
20.8946
20.8646
20.8204
20.7614
20.695
20.6438
15.1771
15.1734
15.165
15.1495
15.1225
15.0777
15.007
14.9028
14.7687
14.6449
15.177
15.1732
15.1649
15.1493
15.1223
15.0776
15.0068
14.9027
14.7686
14.6448
15.1768
15.1731
15.1647
15.1492
15.1222
15.0775
15.0067
14.9026
14.7685
14.6447
15.1767
15.173
15.1647
15.1491
15.1222
15.0774
15.0066
14.9025
14.7684
14.6446
15.1767
15.173
15.1646
15.1491
15.1221
15.0774
15.0066
14.9025
14.7684
14.6446
15.1767
15.173
15.1646
15.1491
15.1221
15.0774
15.0066
14.9025
14.7684
14.6446
15.1768
15.1731
15.1647
15.1492
15.1222
15.0775
15.0067
14.9026
14.7685
14.6447
15.1769
15.1732
15.1648
15.1493
15.1223
15.0776
15.0068
14.9027
14.7686
14.6448
15.177
15.1733
15.165
15.1494
15.1225
15.0777
15.007
14.9029
14.7688
14.645
15.1772
15.1735
15.1652
15.1496
15.1227
15.0779
15.0072
14.9031
14.769
14.6452
10.732
10.7275
10.7174
10.698
10.6631
10.6023
10.4989
10.3288
10.0668
9.74014
10.7318
10.7274
10.7172
10.6978
10.6629
10.6021
10.4988
10.3287
10.0667
9.74006
10.7317
10.7273
10.7171
10.6977
10.6628
10.602
10.4987
10.3286
10.0667
9.73999
10.7316
10.7272
10.717
10.6976
10.6628
10.602
10.4986
10.3286
10.0666
9.73996
10.7316
10.7272
10.717
10.6976
10.6628
10.602
10.4986
10.3286
10.0666
9.73995
10.7316
10.7272
10.717
10.6976
10.6628
10.602
10.4986
10.3286
10.0666
9.73997
10.7317
10.7273
10.7171
10.6977
10.6628
10.602
10.4987
10.3287
10.0667
9.74003
10.7318
10.7274
10.7172
10.6978
10.6629
10.6021
10.4988
10.3288
10.0668
9.74012
10.7319
10.7275
10.7173
10.6979
10.6631
10.6023
10.4989
10.3289
10.0669
9.74025
10.732
10.7276
10.7175
10.6981
10.6632
10.6024
10.4991
10.3291
10.0671
9.74041
7.40004
7.39519
7.38387
7.36196
7.32171
7.24919
7.119
6.88195
6.42964
5.4703
7.39992
7.39507
7.38376
7.36185
7.3216
7.24908
7.1189
6.88185
6.42955
5.47024
7.39984
7.39499
7.38367
7.36176
7.32152
7.249
7.11883
6.88179
6.4295
5.47019
7.39978
7.39494
7.38362
7.36172
7.32147
7.24896
7.11878
6.88175
6.42947
5.47016
7.39976
7.39492
7.38361
7.3617
7.32146
7.24895
7.11877
6.88174
6.42946
5.47016
7.39978
7.39493
7.38362
7.36171
7.32148
7.24897
7.11879
6.88176
6.42948
5.47018
7.39982
7.39498
7.38366
7.36176
7.32153
7.24901
7.11884
6.88181
6.42952
5.47022
7.39989
7.39505
7.38374
7.36184
7.32161
7.2491
7.11892
6.88189
6.4296
5.47028
7.39998
7.39516
7.38385
7.36196
7.32172
7.24921
7.11904
6.882
6.4297
5.47037
7.4001
7.39529
7.384
7.36211
7.32187
7.24936
7.11918
6.88214
6.42984
5.47049
4.97502
4.97016
4.95874
4.9366
4.89589
4.82267
4.69238
4.46163
4.05425
3.3483
4.97493
4.97007
4.95866
4.93651
4.89581
4.82259
4.6923
4.46156
4.05419
3.34825
4.97486
4.97
4.95859
4.93645
4.89575
4.82253
4.69225
4.46152
4.05415
3.34821
4.97483
4.96997
4.95856
4.93642
4.89571
4.8225
4.69222
4.46149
4.05412
3.3482
4.97481
4.96995
4.95854
4.9364
4.8957
4.82249
4.69221
4.46148
4.05412
3.34819
4.97482
4.96996
4.95856
4.93642
4.89572
4.82251
4.69223
4.4615
4.05414
3.34821
4.97486
4.97
4.95859
4.93646
4.89576
4.82255
4.69227
4.46154
4.05417
3.34824
4.97491
4.97006
4.95865
4.93652
4.89582
4.82261
4.69233
4.4616
4.05423
3.34829
4.97499
4.97014
4.95874
4.93661
4.89591
4.8227
4.69242
4.46169
4.05431
3.34835
4.97508
4.97025
4.95886
4.93673
4.89603
4.82282
4.69254
4.4618
4.05441
3.34844
3.26088
3.25641
3.24594
3.22581
3.18931
3.12513
3.01495
2.8309
2.53544
2.09469
3.26082
3.25635
3.24588
3.22574
3.18925
3.12507
3.0149
2.83085
2.53539
2.09466
3.26077
3.2563
3.24583
3.2257
3.1892
3.12503
3.01486
2.83082
2.53536
2.09463
3.26074
3.25627
3.24581
3.22567
3.18918
3.125
3.01484
2.8308
2.53535
2.09462
3.26073
3.25626
3.2458
3.22566
3.18917
3.125
3.01483
2.8308
2.53534
2.09462
3.26074
3.25627
3.24581
3.22568
3.18919
3.12501
3.01485
2.83081
2.53536
2.09463
3.26077
3.2563
3.24584
3.22571
3.18922
3.12504
3.01488
2.83084
2.53538
2.09465
3.26081
3.25635
3.24589
3.22576
3.18927
3.12509
3.01493
2.83088
2.53543
2.09469
3.26087
3.25641
3.24595
3.22583
3.18934
3.12516
3.015
2.83095
2.53549
2.09474
3.26094
3.2565
3.24604
3.22592
3.18943
3.12525
3.01508
2.83103
2.53556
2.09481
2.08381
2.08002
2.07121
2.05452
2.02492
1.97445
1.89143
1.76065
1.56667
1.30475
2.08376
2.07997
2.07116
2.05447
2.02488
1.97441
1.89139
1.76061
1.56664
1.30472
2.08373
2.07994
2.07113
2.05444
2.02485
1.97438
1.89136
1.76059
1.56662
1.30471
2.08371
2.07992
2.07111
2.05442
2.02483
1.97436
1.89135
1.76058
1.56661
1.3047
2.0837
2.07991
2.07111
2.05442
2.02483
1.97436
1.89135
1.76057
1.56661
1.3047
2.08371
2.07992
2.07112
2.05443
2.02483
1.97437
1.89136
1.76058
1.56662
1.3047
2.08373
2.07994
2.07114
2.05445
2.02486
1.97439
1.89138
1.76061
1.56664
1.30472
2.08376
2.07998
2.07117
2.05449
2.0249
1.97443
1.89142
1.76064
1.56667
1.30475
2.08381
2.08003
2.07123
2.05454
2.02495
1.97448
1.89147
1.76069
1.56671
1.30479
2.08386
2.08009
2.07129
2.05461
2.02502
1.97455
1.89153
1.76075
1.56677
1.30483
1.29835
1.29536
1.2885
1.27571
1.25359
1.21707
1.15942
1.07316
0.952835
0.800889
1.29832
1.29533
1.28846
1.27568
1.25356
1.21704
1.1594
1.07313
0.952813
0.800871
1.2983
1.29531
1.28844
1.27565
1.25354
1.21702
1.15938
1.07312
0.952799
0.800859
1.29828
1.2953
1.28843
1.27564
1.25353
1.21701
1.15937
1.07311
0.952792
0.800853
1.29828
1.29529
1.28843
1.27564
1.25352
1.21701
1.15937
1.07311
0.952791
0.800853
1.29828
1.2953
1.28843
1.27565
1.25353
1.21702
1.15938
1.07311
0.952798
0.800859
1.2983
1.29532
1.28845
1.27566
1.25355
1.21703
1.15939
1.07313
0.952812
0.800871
1.29832
1.29534
1.28847
1.27569
1.25358
1.21706
1.15942
1.07315
0.952835
0.800891
1.29836
1.29538
1.28851
1.27573
1.25361
1.2171
1.15945
1.07319
0.952865
0.800917
1.2984
1.29542
1.28856
1.27578
1.25366
1.21715
1.1595
1.07323
0.952904
0.800951
0.78884
0.786636
0.781623
0.772462
0.757008
0.732267
0.694632
0.640685
0.568938
0.482503
0.788818
0.786614
0.781601
0.772442
0.756988
0.732248
0.694614
0.640669
0.568924
0.482491
0.788803
0.786599
0.781587
0.772427
0.756974
0.732235
0.694602
0.640658
0.568914
0.482483
0.788794
0.78659
0.781578
0.772419
0.756967
0.732228
0.694596
0.640652
0.568909
0.482479
0.788792
0.786588
0.781576
0.772418
0.756966
0.732228
0.694595
0.640652
0.568909
0.482479
0.788796
0.786593
0.781581
0.772423
0.756971
0.732233
0.694601
0.640657
0.568914
0.482483
0.788807
0.786604
0.781593
0.772435
0.756983
0.732245
0.694612
0.640668
0.568924
0.482492
0.788824
0.786622
0.781611
0.772454
0.757002
0.732263
0.69463
0.640685
0.56894
0.482506
0.788847
0.786647
0.781637
0.77248
0.757028
0.732289
0.694655
0.640708
0.568961
0.482524
0.788874
0.786679
0.781671
0.772514
0.757061
0.732322
0.694686
0.640737
0.568987
0.482547
0.46743
0.465895
0.462444
0.456252
0.446049
0.430173
0.406799
0.37449
0.33313
0.285069
0.467416
0.465881
0.46243
0.456238
0.446036
0.430161
0.406788
0.37448
0.333121
0.285061
0.467406
0.465871
0.462421
0.456229
0.446027
0.430152
0.40678
0.374473
0.333115
0.285056
0.4674
0.465866
0.462415
0.456224
0.446023
0.430148
0.406777
0.37447
0.333112
0.285053
0.467399
0.465865
0.462415
0.456224
0.446022
0.430148
0.406776
0.37447
0.333112
0.285053
0.467402
0.465868
0.462418
0.456227
0.446026
0.430152
0.40678
0.374473
0.333115
0.285056
0.46741
0.465876
0.462426
0.456235
0.446034
0.43016
0.406788
0.374481
0.333122
0.285062
0.467422
0.465888
0.462438
0.456248
0.446047
0.430172
0.4068
0.374492
0.333132
0.285071
0.467437
0.465905
0.462456
0.456266
0.446064
0.430189
0.406816
0.374507
0.333146
0.285084
0.467455
0.465926
0.462478
0.456288
0.446087
0.430211
0.406837
0.374527
0.333164
0.285099
0.270183
0.269169
0.266913
0.262936
0.256526
0.246809
0.232922
0.214347
0.191391
0.165653
0.270174
0.26916
0.266904
0.262927
0.256518
0.246801
0.232915
0.214341
0.191385
0.165648
0.270168
0.269154
0.266898
0.262922
0.256512
0.246796
0.232911
0.214336
0.191381
0.165645
0.270165
0.26915
0.266895
0.262918
0.256509
0.246794
0.232908
0.214334
0.191379
0.165643
0.270164
0.26915
0.266895
0.262918
0.256509
0.246794
0.232908
0.214335
0.19138
0.165643
0.270166
0.269152
0.266897
0.262921
0.256512
0.246796
0.232911
0.214337
0.191382
0.165645
0.270171
0.269157
0.266903
0.262926
0.256517
0.246801
0.232916
0.214342
0.191386
0.165649
0.270179
0.269165
0.266911
0.262934
0.256525
0.24681
0.232924
0.214349
0.191393
0.165655
0.270189
0.269176
0.266922
0.262946
0.256537
0.246821
0.232934
0.214359
0.191402
0.165663
0.270201
0.26919
0.266937
0.262961
0.256551
0.246835
0.232948
0.214372
0.191414
0.165674
0.152373
0.151734
0.150327
0.147887
0.144038
0.138347
0.130451
0.120261
0.108252
0.095726
0.152368
0.151728
0.150322
0.147882
0.144033
0.138342
0.130446
0.120257
0.108248
0.0957227
0.152364
0.151725
0.150318
0.147879
0.144029
0.138339
0.130443
0.120254
0.108246
0.0957206
0.152362
0.151723
0.150316
0.147877
0.144028
0.138337
0.130442
0.120253
0.108245
0.0957196
0.152362
0.151723
0.150316
0.147877
0.144028
0.138337
0.130442
0.120253
0.108245
0.0957198
0.152363
0.151724
0.150318
0.147879
0.144029
0.138339
0.130444
0.120255
0.108247
0.0957212
0.152366
0.151727
0.150321
0.147882
0.144033
0.138343
0.130447
0.120258
0.108249
0.0957238
0.152371
0.151732
0.150327
0.147887
0.144038
0.138348
0.130452
0.120263
0.108254
0.0957277
0.152378
0.151739
0.150334
0.147895
0.144045
0.138355
0.130459
0.120269
0.108259
0.095733
0.152385
0.151748
0.150343
0.147904
0.144055
0.138364
0.130467
0.120277
0.108267
0.0957396
0.0838631
0.0834774
0.0826374
0.0812033
0.0789864
0.075792
0.0715031
0.0662289
0.0605682
0.0561865
0.0838599
0.0834742
0.0826343
0.0812002
0.0789835
0.0757893
0.0715005
0.0662265
0.060566
0.0561844
0.0838577
0.083472
0.0826322
0.0811982
0.0789816
0.0757875
0.0714989
0.066225
0.0605647
0.0561831
0.0838566
0.0834709
0.0826311
0.0811972
0.0789806
0.0757866
0.0714981
0.0662243
0.060564
0.0561825
0.0838565
0.0834708
0.082631
0.0811972
0.0789806
0.0757867
0.0714982
0.0662244
0.0605642
0.0561827
0.0838574
0.0834718
0.0826321
0.0811982
0.0789817
0.0757877
0.0714992
0.0662254
0.0605652
0.0561836
0.0838594
0.0834739
0.0826342
0.0812004
0.0789839
0.0757898
0.0715013
0.0662274
0.060567
0.0561854
0.0838625
0.0834771
0.0826374
0.0812036
0.0789871
0.075793
0.0715043
0.0662302
0.0605697
0.0561879
0.0838665
0.0834813
0.0826419
0.0812081
0.0789915
0.0757973
0.0715085
0.0662341
0.0605733
0.0561914
0.0838712
0.0834869
0.0826476
0.0812139
0.0789972
0.0758028
0.0715137
0.066239
0.0605778
0.0561956
3.01723
1.76545
1.13261
0.883257
0.937554
1.31612
2.13895
3.66487
6.39659
11.3491
3.01718
1.76542
1.13258
0.883227
0.937516
1.31607
2.13888
3.66475
6.39641
11.3489
3.01715
1.7654
1.13256
0.883206
0.937489
1.31603
2.13882
3.66467
6.39629
11.3487
3.01713
1.76538
1.13255
0.883194
0.937473
1.31601
2.13879
3.66462
6.39622
11.3486
3.01713
1.76538
1.13255
0.883189
0.937466
1.316
2.13877
3.6646
6.39619
11.3485
3.01714
1.76539
1.13255
0.883193
0.937468
1.316
2.13877
3.6646
6.39619
11.3486
3.01717
1.76541
1.13257
0.883204
0.937478
1.31601
2.13879
3.66463
6.39623
11.3486
3.01721
1.76544
1.13259
0.883221
0.937495
1.31603
2.13882
3.66467
6.3963
11.3487
3.01727
1.76548
1.13262
0.883244
0.937517
1.31606
2.13886
3.66473
6.39639
11.3489
3.01734
1.76552
1.13265
0.883269
0.937542
1.31609
2.1389
3.66479
6.39649
11.349
2.24852
1.45037
0.983728
0.792687
0.850976
1.18613
1.89195
3.14479
5.21626
8.42192
2.24848
1.45034
0.983701
0.79266
0.850942
1.18609
1.89188
3.14469
5.21612
8.42171
2.24846
1.45032
0.983684
0.792641
0.850918
1.18605
1.89184
3.14462
5.21601
8.42157
2.24844
1.45031
0.983674
0.79263
0.850903
1.18603
1.89181
3.14458
5.21595
8.42148
2.24844
1.45031
0.983671
0.792626
0.850897
1.18602
1.89179
3.14456
5.21592
8.42145
2.24845
1.45032
0.983677
0.792629
0.850899
1.18602
1.89179
3.14456
5.21593
8.42146
2.24848
1.45033
0.98369
0.792639
0.850908
1.18604
1.89181
3.14458
5.21597
8.42151
2.24851
1.45036
0.98371
0.792656
0.850925
1.18606
1.89184
3.14462
5.21603
8.42161
2.24856
1.4504
0.983737
0.792679
0.850948
1.18608
1.89188
3.14468
5.21612
8.42174
2.24863
1.45044
0.983772
0.792709
0.850978
1.18612
1.89193
3.14476
5.21623
8.42192
1.53552
1.07064
0.772216
0.649596
0.708166
0.975959
1.51493
2.42183
3.80759
5.71791
1.53549
1.07061
0.772194
0.649573
0.708137
0.975919
1.51487
2.42175
3.80748
5.71776
1.53547
1.0706
0.772179
0.649557
0.708117
0.975891
1.51483
2.42169
3.8074
5.71766
1.53546
1.07059
0.772171
0.649547
0.708104
0.975874
1.5148
2.42165
3.80735
5.71759
1.53545
1.07059
0.772169
0.649544
0.708099
0.975866
1.51479
2.42164
3.80733
5.71756
1.53546
1.07059
0.772174
0.649547
0.708101
0.975867
1.51479
2.42164
3.80733
5.71757
1.53548
1.07061
0.772185
0.649556
0.70811
0.975878
1.51481
2.42166
3.80736
5.71762
1.53551
1.07063
0.772202
0.649572
0.708125
0.975896
1.51483
2.4217
3.80742
5.7177
1.53555
1.07066
0.772227
0.649593
0.708147
0.975922
1.51487
2.42175
3.80749
5.71781
1.5356
1.0707
0.772258
0.64962
0.708175
0.975957
1.51492
2.42182
3.8076
5.71795
1.00328
0.740424
0.563874
0.494597
0.547204
0.744386
1.12275
1.72865
2.59804
3.71041
1.00326
0.740406
0.563857
0.494578
0.547181
0.744355
1.1227
1.72859
2.59796
3.71031
1.00325
0.740394
0.563846
0.494566
0.547165
0.744333
1.12267
1.72855
2.59791
3.71023
1.00324
0.740387
0.563839
0.494558
0.547155
0.744319
1.12265
1.72852
2.59787
3.71018
1.00324
0.740387
0.563838
0.494556
0.547151
0.744313
1.12264
1.72851
2.59785
3.71017
1.00325
0.740392
0.563842
0.494558
0.547153
0.744315
1.12265
1.72851
2.59786
3.71017
1.00326
0.740403
0.563851
0.494566
0.547161
0.744323
1.12266
1.72853
2.59788
3.71021
1.00328
0.740421
0.563865
0.494579
0.547174
0.744339
1.12268
1.72856
2.59793
3.71027
1.00331
0.740445
0.563885
0.494597
0.547192
0.744362
1.12271
1.7286
2.59799
3.71035
1.00335
0.740477
0.563911
0.49462
0.547217
0.744392
1.12275
1.72866
2.59807
3.71047
0.635139
0.489053
0.389781
0.354663
0.397249
0.533334
0.782965
1.16625
1.69083
2.331
0.635123
0.48904
0.389769
0.354649
0.397232
0.533311
0.782933
1.16621
1.69077
2.33093
0.635113
0.489031
0.38976
0.35464
0.397219
0.533294
0.78291
1.16618
1.69073
2.33088
0.635108
0.489026
0.389755
0.354634
0.397212
0.533284
0.782896
1.16616
1.69071
2.33085
0.635108
0.489026
0.389754
0.354632
0.397209
0.533279
0.78289
1.16615
1.6907
2.33084
0.635113
0.48903
0.389757
0.354635
0.397211
0.533281
0.782892
1.16615
1.6907
2.33084
0.635123
0.489038
0.389764
0.354641
0.397217
0.533288
0.782902
1.16617
1.69072
2.33087
0.63514
0.489052
0.389776
0.354651
0.397228
0.533301
0.782919
1.16619
1.69075
2.33091
0.635162
0.48907
0.389791
0.354665
0.397243
0.53332
0.782944
1.16622
1.6908
2.33098
0.63519
0.489093
0.389811
0.354683
0.397262
0.533344
0.782976
1.16627
1.69086
2.33106
0.391451
0.311635
0.257991
0.242139
0.27384
0.36304
0.520128
0.753035
1.06071
1.42477
0.39144
0.311625
0.257981
0.242129
0.273828
0.363023
0.520106
0.753005
1.06068
1.42472
0.391434
0.311619
0.257975
0.242122
0.273819
0.363011
0.52009
0.752984
1.06065
1.42469
0.39143
0.311616
0.257972
0.242118
0.273814
0.363004
0.52008
0.752971
1.06063
1.42467
0.39143
0.311616
0.257971
0.242117
0.273812
0.363001
0.520076
0.752965
1.06063
1.42466
0.391434
0.311619
0.257974
0.242119
0.273813
0.363003
0.520078
0.752968
1.06063
1.42466
0.391441
0.311625
0.257979
0.242124
0.273818
0.363008
0.520085
0.752978
1.06064
1.42468
0.391453
0.311635
0.257987
0.242131
0.273826
0.363018
0.520098
0.752996
1.06067
1.42471
0.391468
0.311648
0.257999
0.242142
0.273838
0.363032
0.520117
0.753021
1.0607
1.42476
0.391488
0.311665
0.258013
0.242156
0.273853
0.36305
0.520141
0.753054
1.06075
1.42482
0.235795
0.193138
0.165236
0.159244
0.181435
0.237664
0.33307
0.470339
0.646622
0.850492
0.235788
0.193132
0.16523
0.159237
0.181426
0.237652
0.333055
0.470319
0.646597
0.850461
0.235784
0.193128
0.165225
0.159232
0.18142
0.237644
0.333044
0.470304
0.646579
0.850439
0.235782
0.193125
0.165223
0.159229
0.181416
0.237639
0.333037
0.470296
0.646568
0.850426
0.235782
0.193125
0.165223
0.159229
0.181415
0.237637
0.333035
0.470292
0.646564
0.850421
0.235784
0.193128
0.165224
0.15923
0.181416
0.237638
0.333036
0.470295
0.646566
0.850425
0.235789
0.193132
0.165228
0.159233
0.18142
0.237643
0.333042
0.470302
0.646576
0.850438
0.235797
0.193139
0.165234
0.159239
0.181426
0.23765
0.333051
0.470315
0.646593
0.85046
0.235808
0.193148
0.165242
0.159247
0.181434
0.23766
0.333065
0.470333
0.646617
0.850491
0.235822
0.193159
0.165253
0.159257
0.181445
0.237673
0.333082
0.470356
0.646648
0.850531
0.140071
0.118128
0.104307
0.102981
0.118039
0.152815
0.209712
0.289196
0.38837
0.500019
0.140067
0.118123
0.104303
0.102976
0.118032
0.152807
0.209702
0.289183
0.388353
0.499999
0.140064
0.11812
0.1043
0.102973
0.118028
0.152802
0.209694
0.289174
0.388342
0.499985
0.140062
0.118119
0.104298
0.102971
0.118026
0.152798
0.20969
0.289168
0.388335
0.499977
0.140062
0.118119
0.104298
0.10297
0.118025
0.152797
0.209689
0.289166
0.388332
0.499974
0.140064
0.118121
0.104299
0.102971
0.118026
0.152798
0.20969
0.289168
0.388334
0.499977
0.140068
0.118124
0.104302
0.102974
0.118029
0.152801
0.209694
0.289173
0.388341
0.499986
0.140073
0.118128
0.104306
0.102978
0.118033
0.152807
0.2097
0.289182
0.388353
0.500001
0.14008
0.118134
0.104312
0.102984
0.118039
0.152814
0.20971
0.289194
0.388369
0.500022
0.140089
0.118142
0.104319
0.102991
0.118047
0.152824
0.209722
0.289211
0.38839
0.500048
0.084604
0.0743392
0.0680166
0.0687846
0.0792677
0.101441
0.136326
0.183334
0.239354
0.298203
0.0846009
0.0743362
0.0680135
0.0687811
0.0792633
0.101435
0.136319
0.183325
0.239343
0.29819
0.0845989
0.0743343
0.0680115
0.0687787
0.0792604
0.101431
0.136314
0.183319
0.239335
0.298181
0.084598
0.0743333
0.0680104
0.0687774
0.0792587
0.101429
0.136312
0.183315
0.239331
0.298176
0.0845981
0.0743334
0.0680103
0.0687772
0.0792582
0.101428
0.136311
0.183314
0.239329
0.298175
0.0845994
0.0743345
0.0680113
0.068778
0.079259
0.101429
0.136312
0.183315
0.239331
0.298177
0.0846018
0.0743366
0.0680132
0.0687799
0.079261
0.101432
0.136315
0.183319
0.239336
0.298183
0.0846054
0.0743399
0.0680163
0.0687829
0.0792642
0.101436
0.136319
0.183325
0.239344
0.298193
0.0846102
0.0743443
0.0680203
0.0687869
0.0792687
0.101441
0.136326
0.183334
0.239355
0.298207
0.0846162
0.0743497
0.0680254
0.068792
0.0792744
0.101448
0.136335
0.183346
0.23937
0.298225
0.0576556
0.0539233
0.0511311
0.0527498
0.0610434
0.0774348
0.102348
0.134608
0.170296
0.200498
0.0576536
0.0539214
0.051129
0.0527474
0.0610404
0.077431
0.102343
0.134603
0.170289
0.20049
0.0576523
0.05392
0.0511275
0.0527456
0.0610382
0.0774282
0.102339
0.134598
0.170284
0.200484
0.0576516
0.0539193
0.0511267
0.0527446
0.0610369
0.0774265
0.102337
0.134595
0.170281
0.20048
0.0576518
0.0539194
0.0511267
0.0527445
0.0610366
0.077426
0.102337
0.134594
0.17028
0.200479
0.0576527
0.0539203
0.0511275
0.0527452
0.0610373
0.0774267
0.102337
0.134596
0.170281
0.200481
0.0576546
0.053922
0.0511291
0.0527467
0.0610389
0.0774287
0.10234
0.134599
0.170285
0.200486
0.0576572
0.0539245
0.0511315
0.0527492
0.0610416
0.0774319
0.102344
0.134604
0.170291
0.200493
0.0576608
0.0539279
0.0511347
0.0527525
0.0610453
0.0774363
0.102349
0.134611
0.1703
0.200504
0.0576651
0.053932
0.0511387
0.0527565
0.0610498
0.0774417
0.102356
0.13462
0.170311
0.200517
20.8163
24.5181
26.2619
27.1746
27.6753
27.9538
28.1083
28.1923
28.2357
28.2541
20.8159
24.5176
26.2614
27.1741
27.6747
27.9533
28.1078
28.1918
28.2352
28.2537
20.8156
24.5173
26.2611
27.1738
27.6744
27.953
28.1074
28.1915
28.2349
28.2535
20.8154
24.5172
26.2609
27.1736
27.6742
27.9528
28.1072
28.1913
28.2347
28.2533
20.8154
24.5171
26.2608
27.1735
27.6742
27.9527
28.1072
28.1913
28.2347
28.2533
20.8154
24.5171
26.2609
27.1736
27.6742
27.9528
28.1073
28.1913
28.2348
28.2534
20.8155
24.5172
26.261
27.1737
27.6744
27.953
28.1074
28.1915
28.235
28.2536
20.8157
24.5175
26.2613
27.174
27.6747
27.9533
28.1078
28.1918
28.2353
28.2539
20.8159
24.5178
26.2616
27.1744
27.6751
27.9537
28.1082
28.1923
28.2357
28.2543
20.8162
24.5181
26.262
27.1748
27.6755
27.9541
28.1086
28.1927
28.2362
28.2548
12.7066
15.4434
17.0181
17.9081
18.4098
18.6912
18.8476
18.9325
18.9763
18.9948
12.7064
15.443
17.0178
17.9078
18.4094
18.6909
18.8472
18.9322
18.9759
18.9946
12.7062
15.4428
17.0176
17.9076
18.4092
18.6906
18.847
18.9319
18.9757
18.9944
12.7061
15.4427
17.0174
17.9074
18.409
18.6905
18.8468
18.9318
18.9756
18.9943
12.706
15.4426
17.0174
17.9074
18.409
18.6904
18.8468
18.9318
18.9756
18.9943
12.706
15.4427
17.0174
17.9074
18.409
18.6905
18.8468
18.9318
18.9756
18.9943
12.7061
15.4428
17.0175
17.9075
18.4091
18.6906
18.847
18.932
18.9758
18.9945
12.7062
15.4429
17.0177
17.9077
18.4094
18.6909
18.8472
18.9322
18.976
18.9948
12.7064
15.4432
17.018
17.908
18.4097
18.6912
18.8476
18.9326
18.9764
18.9951
12.7067
15.4435
17.0184
17.9084
18.4101
18.6916
18.848
18.933
18.9768
18.9955
7.92564
9.64562
10.7921
11.5036
11.9284
12.1754
12.3156
12.3929
12.4331
12.4502
7.92546
9.64541
10.7918
11.5033
11.9281
12.1751
12.3154
12.3927
12.4328
12.45
7.92533
9.64526
10.7917
11.5032
11.9279
12.1749
12.3152
12.3925
12.4327
12.4499
7.92524
9.64517
10.7916
11.5031
11.9278
12.1748
12.3151
12.3924
12.4326
12.4498
7.92521
9.64513
10.7915
11.503
11.9278
12.1748
12.315
12.3924
12.4326
12.4498
7.92523
9.64515
10.7915
11.503
11.9278
12.1748
12.3151
12.3924
12.4326
12.4498
7.92529
9.64522
10.7916
11.5031
11.9279
12.1749
12.3152
12.3925
12.4327
12.45
7.92539
9.64535
10.7918
11.5033
11.9281
12.1751
12.3154
12.3927
12.4329
12.4502
7.92554
9.64554
10.792
11.5035
11.9284
12.1754
12.3157
12.393
12.4332
12.4504
7.92574
9.64578
10.7923
11.5038
11.9287
12.1757
12.316
12.3933
12.4336
12.4508
4.92038
5.9513
6.70758
7.21462
7.53531
7.72977
7.8436
7.90772
7.94153
7.95607
4.92025
5.95116
6.70742
7.21445
7.53514
7.72959
7.84342
7.90755
7.94137
7.95595
4.92016
5.95105
6.7073
7.21433
7.53501
7.72947
7.8433
7.90743
7.94126
7.95586
4.92011
5.95099
6.70723
7.21426
7.53494
7.72939
7.84323
7.90736
7.9412
7.9558
4.92009
5.95097
6.70721
7.21424
7.53492
7.72937
7.84321
7.90735
7.94119
7.95579
4.9201
5.95098
6.70723
7.21426
7.53494
7.72941
7.84324
7.90739
7.94123
7.95584
4.92014
5.95104
6.7073
7.21433
7.53502
7.72949
7.84333
7.90748
7.94132
7.95593
4.92022
5.95113
6.7074
7.21446
7.53515
7.72963
7.84347
7.90762
7.94147
7.95608
4.92033
5.95127
6.70756
7.21463
7.53534
7.72982
7.84367
7.90782
7.94167
7.95628
4.92048
5.95145
6.70777
7.21485
7.53558
7.73007
7.84392
7.90808
7.94194
7.95655
3.00914
3.61342
4.08529
4.42093
4.64409
4.785
4.87015
4.9193
4.94569
4.95716
3.00906
3.61332
4.08518
4.42081
4.64398
4.78488
4.87002
4.91919
4.94558
4.95708
3.009
3.61325
4.0851
4.42073
4.64389
4.78479
4.86994
4.91911
4.94551
4.95701
3.00896
3.61321
4.08506
4.42068
4.64384
4.78474
4.86989
4.91906
4.94547
4.95698
3.00895
3.61319
4.08504
4.42067
4.64383
4.78473
4.86988
4.91905
4.94546
4.95697
3.00896
3.6132
4.08506
4.42069
4.64385
4.78475
4.86991
4.91908
4.94549
4.95701
3.00899
3.61325
4.0851
4.42074
4.64391
4.78481
4.86997
4.91915
4.94556
4.95708
3.00904
3.61331
4.08518
4.42083
4.644
4.78491
4.87008
4.91925
4.94567
4.95718
3.00913
3.61341
4.08529
4.42095
4.64413
4.78505
4.87022
4.9194
4.94582
4.95733
3.00923
3.61354
4.08544
4.42111
4.6443
4.78523
4.8704
4.91959
4.94601
4.95752
1.80553
2.15347
2.43681
2.64758
2.79365
2.88927
2.94884
2.98408
3.00335
3.01182
1.80548
2.1534
2.43674
2.6475
2.79357
2.88919
2.94876
2.984
3.00328
3.01177
1.80544
2.15336
2.43669
2.64745
2.79352
2.88914
2.9487
2.98395
3.00323
3.01173