/*--------------------------------*- C++ -*----------------------------------*\
  =========                 |
  \\      /  F ield         | OpenFOAM: The Open Source CFD Toolbox
   \\    /   O peration     | Website:  https://openfoam.org
    \\  /    A nd           | Version:  6
     \\/     M anipulation  |
\*---------------------------------------------------------------------------*/
FoamFile
{
    version     2.0;
    format      ascii;
    class       volScalarField;
    location    "0.44";
    object      T;
}
// * * * * * * * * * * * * * * * * * * * * * * * * * * * * * * * * * * * * * //

dimensions      [0 0 0 1 0 0 0];

internalField   nonuniform List<scalar> 
7000
(
105.279
105.277
105.273
105.268
105.262
105.255
105.248
105.242
105.237
105.235
105.279
105.277
105.273
105.268
105.262
105.255
105.248
105.242
105.237
105.235
105.279
105.277
105.273
105.268
105.262
105.255
105.248
105.242
105.237
105.235
105.279
105.277
105.273
105.268
105.262
105.255
105.248
105.242
105.237
105.235
105.279
105.277
105.273
105.268
105.262
105.255
105.248
105.242
105.237
105.235
105.279
105.277
105.273
105.268
105.262
105.255
105.248
105.242
105.237
105.235
105.279
105.277
105.273
105.268
105.262
105.255
105.248
105.242
105.237
105.235
105.279
105.277
105.273
105.268
105.262
105.255
105.248
105.242
105.237
105.235
105.279
105.277
105.273
105.268
105.262
105.255
105.248
105.242
105.237
105.235
105.279
105.277
105.273
105.268
105.262
105.255
105.248
105.242
105.237
105.235
95.8893
95.8837
95.8727
95.8569
95.8375
95.8159
95.7941
95.7745
95.7596
95.7516
95.8893
95.8836
95.8726
95.8569
95.8375
95.8159
95.7941
95.7745
95.7596
95.7515
95.8893
95.8836
95.8726
95.8569
95.8375
95.8159
95.7941
95.7745
95.7596
95.7515
95.8893
95.8836
95.8726
95.8569
95.8375
95.8158
95.7941
95.7745
95.7596
95.7515
95.8893
95.8836
95.8726
95.8569
95.8374
95.8158
95.7941
95.7745
95.7596
95.7515
95.8893
95.8836
95.8726
95.8569
95.8374
95.8158
95.7941
95.7745
95.7596
95.7515
95.8893
95.8836
95.8726
95.8569
95.8374
95.8158
95.7941
95.7745
95.7596
95.7515
95.8893
95.8836
95.8726
95.8569
95.8375
95.8159
95.7941
95.7745
95.7596
95.7515
95.8893
95.8836
95.8726
95.8569
95.8375
95.8159
95.7941
95.7745
95.7596
95.7515
95.8893
95.8836
95.8726
95.8569
95.8375
95.8159
95.7941
95.7745
95.7596
95.7515
86.6562
86.6462
86.6268
86.599
86.5643
86.5255
86.4859
86.45
86.4224
86.4074
86.6561
86.6462
86.6268
86.5989
86.5643
86.5255
86.4859
86.45
86.4224
86.4074
86.6561
86.6461
86.6267
86.5989
86.5643
86.5254
86.4859
86.4499
86.4224
86.4074
86.6561
86.6461
86.6267
86.5989
86.5642
86.5254
86.4858
86.4499
86.4224
86.4073
86.6561
86.6461
86.6267
86.5989
86.5642
86.5254
86.4858
86.4499
86.4224
86.4073
86.656
86.6461
86.6267
86.5989
86.5642
86.5254
86.4858
86.4499
86.4224
86.4073
86.6561
86.6461
86.6267
86.5989
86.5642
86.5254
86.4858
86.4499
86.4224
86.4073
86.6561
86.6461
86.6267
86.5989
86.5643
86.5254
86.4859
86.4499
86.4224
86.4074
86.6561
86.6461
86.6267
86.5989
86.5643
86.5254
86.4859
86.45
86.4224
86.4074
86.6561
86.6462
86.6268
86.5989
86.5643
86.5255
86.4859
86.45
86.4224
86.4074
77.6782
77.6632
77.6339
77.5915
77.5382
77.4777
77.4151
77.3573
77.3123
77.2875
77.6781
77.6632
77.6339
77.5915
77.5382
77.4776
77.415
77.3573
77.3123
77.2875
77.6781
77.6631
77.6338
77.5914
77.5381
77.4776
77.415
77.3573
77.3122
77.2874
77.6781
77.6631
77.6338
77.5914
77.5381
77.4776
77.415
77.3572
77.3122
77.2874
77.678
77.6631
77.6338
77.5914
77.5381
77.4776
77.415
77.3572
77.3122
77.2874
77.678
77.6631
77.6338
77.5914
77.5381
77.4776
77.415
77.3572
77.3122
77.2874
77.678
77.6631
77.6338
77.5914
77.5381
77.4776
77.415
77.3572
77.3122
77.2874
77.6781
77.6631
77.6338
77.5914
77.5381
77.4776
77.415
77.3572
77.3122
77.2874
77.6781
77.6631
77.6338
77.5914
77.5382
77.4776
77.415
77.3573
77.3123
77.2875
77.6781
77.6632
77.6339
77.5915
77.5382
77.4777
77.4151
77.3573
77.3123
77.2875
69.0464
69.0255
68.9843
68.924
68.8472
68.7584
68.6646
68.5759
68.5052
68.4655
69.0463
69.0254
68.9842
68.9239
68.8472
68.7583
68.6645
68.5759
68.5052
68.4654
69.0463
69.0254
68.9842
68.9239
68.8471
68.7583
68.6645
68.5758
68.5051
68.4654
69.0463
69.0253
68.9841
68.9239
68.8471
68.7583
68.6644
68.5758
68.5051
68.4654
69.0462
69.0253
68.9841
68.9238
68.8471
68.7582
68.6644
68.5758
68.5051
68.4654
69.0462
69.0253
68.9841
68.9238
68.8471
68.7582
68.6644
68.5758
68.5051
68.4654
69.0462
69.0253
68.9841
68.9239
68.8471
68.7583
68.6644
68.5758
68.5051
68.4654
69.0463
69.0254
68.9841
68.9239
68.8471
68.7583
68.6645
68.5758
68.5051
68.4654
69.0463
69.0254
68.9842
68.9239
68.8472
68.7583
68.6645
68.5759
68.5052
68.4654
69.0463
69.0254
68.9842
68.924
68.8472
68.7584
68.6646
68.5759
68.5052
68.4655
60.8416
60.8137
60.7582
60.6762
60.5698
60.4439
60.307
60.1732
60.0627
59.9986
60.8415
60.8136
60.7582
60.6761
60.5698
60.4438
60.3069
60.1731
60.0626
59.9985
60.8414
60.8135
60.7581
60.6761
60.5697
60.4438
60.3068
60.1731
60.0626
59.9985
60.8414
60.8135
60.7581
60.676
60.5697
60.4437
60.3068
60.1731
60.0625
59.9985
60.8414
60.8135
60.758
60.676
60.5697
60.4437
60.3068
60.173
60.0625
59.9985
60.8414
60.8135
60.758
60.676
60.5697
60.4437
60.3068
60.173
60.0625
59.9985
60.8414
60.8135
60.7581
60.676
60.5697
60.4437
60.3068
60.1731
60.0625
59.9985
60.8414
60.8135
60.7581
60.6761
60.5697
60.4437
60.3068
60.1731
60.0626
59.9985
60.8414
60.8135
60.7581
60.6761
60.5698
60.4438
60.3069
60.1731
60.0626
59.9986
60.8415
60.8136
60.7582
60.6762
60.5698
60.4439
60.3069
60.1732
60.0627
59.9986
53.1321
53.0963
53.0245
52.9167
52.774
52.6001
52.4038
52.2031
52.0282
51.9213
53.132
53.0962
53.0244
52.9166
52.7739
52.6
52.4037
52.203
52.0281
51.9213
53.132
53.0961
53.0244
52.9166
52.7739
52.5999
52.4037
52.203
52.0281
51.9213
53.1319
53.0961
53.0243
52.9166
52.7738
52.5999
52.4036
52.2029
52.0281
51.9212
53.1319
53.0961
53.0243
52.9165
52.7738
52.5999
52.4036
52.2029
52.028
51.9212
53.1319
53.0961
53.0243
52.9165
52.7738
52.5999
52.4036
52.2029
52.028
51.9212
53.1319
53.0961
53.0243
52.9165
52.7738
52.5999
52.4036
52.2029
52.0281
51.9212
53.1319
53.0961
53.0243
52.9166
52.7739
52.5999
52.4037
52.203
52.0281
51.9213
53.132
53.0962
53.0244
52.9166
52.7739
52.6
52.4037
52.203
52.0282
51.9213
53.132
53.0962
53.0245
52.9167
52.774
52.6001
52.4038
52.2031
52.0282
51.9214
45.9728
45.9285
45.839
45.7024
45.5172
45.2838
45.0079
44.7078
44.4248
44.2355
45.9727
45.9284
45.8389
45.7023
45.5171
45.2837
45.0078
44.7077
44.4248
44.2355
45.9727
45.9284
45.8388
45.7023
45.5171
45.2836
45.0078
44.7076
44.4247
44.2354
45.9726
45.9283
45.8388
45.7022
45.5171
45.2836
45.0077
44.7076
44.4247
44.2354
45.9726
45.9283
45.8388
45.7022
45.517
45.2836
45.0077
44.7076
44.4247
44.2354
45.9726
45.9283
45.8388
45.7022
45.517
45.2836
45.0077
44.7076
44.4247
44.2354
45.9726
45.9283
45.8388
45.7022
45.517
45.2836
45.0077
44.7076
44.4247
44.2354
45.9726
45.9283
45.8388
45.7023
45.5171
45.2836
45.0078
44.7076
44.4247
44.2354
45.9727
45.9284
45.8389
45.7023
45.5171
45.2837
45.0078
44.7077
44.4248
44.2355
45.9727
45.9285
45.8389
45.7024
45.5172
45.2838
45.0079
44.7078
44.4249
44.2356
39.4038
39.3512
39.2441
39.078
38.8473
38.5456
38.1693
37.7259
37.2569
36.8886
39.4037
39.3512
39.244
39.078
38.8473
38.5455
38.1692
37.7258
37.2569
36.8886
39.4037
39.3511
39.2439
39.0779
38.8472
38.5455
38.1691
37.7257
37.2568
36.8885
39.4036
39.3511
39.2439
39.0779
38.8472
38.5454
38.1691
37.7257
37.2568
36.8885
39.4036
39.351
39.2439
39.0778
38.8471
38.5454
38.1691
37.7257
37.2568
36.8885
39.4036
39.351
39.2439
39.0778
38.8471
38.5454
38.1691
37.7257
37.2568
36.8885
39.4036
39.3511
39.2439
39.0779
38.8472
38.5454
38.1691
37.7257
37.2568
36.8885
39.4036
39.3511
39.2439
39.0779
38.8472
38.5455
38.1691
37.7258
37.2568
36.8885
39.4037
39.3511
39.244
39.078
38.8473
38.5456
38.1692
37.7258
37.2569
36.8886
39.4037
39.3512
39.244
39.078
38.8473
38.5456
38.1693
37.7259
37.257
36.8887
33.4501
33.3905
33.2681
33.076
32.8031
32.4337
31.9464
31.3161
30.5336
29.7182
33.45
33.3904
33.268
33.0759
32.803
32.4336
31.9463
31.316
30.5335
29.7181
33.45
33.3904
33.268
33.0758
32.803
32.4336
31.9462
31.3159
30.5334
29.718
33.4499
33.3903
33.2679
33.0758
32.8029
32.4335
31.9462
31.3159
30.5334
29.718
33.4499
33.3903
33.2679
33.0758
32.8029
32.4335
31.9462
31.3159
30.5334
29.718
33.4499
33.3903
33.2679
33.0758
32.8029
32.4335
31.9462
31.3159
30.5334
29.718
33.4499
33.3903
33.2679
33.0758
32.8029
32.4335
31.9462
31.3159
30.5334
29.718
33.4499
33.3904
33.268
33.0758
32.803
32.4336
31.9462
31.3159
30.5335
29.7181
33.45
33.3904
33.268
33.0759
32.803
32.4337
31.9463
31.316
30.5335
29.7181
33.4501
33.3905
33.2681
33.076
32.8031
32.4337
31.9464
31.3161
30.5336
29.7182
28.1213
28.0571
27.9245
27.7146
27.4124
26.9936
26.4176
25.6078
24.3921
22.2821
28.1212
28.057
27.9244
27.7145
27.4123
26.9936
26.4175
25.6077
24.392
22.282
28.1212
28.0569
27.9243
27.7145
27.4123
26.9935
26.4175
25.6077
24.392
22.2819
28.1211
28.0569
27.9243
27.7144
27.4122
26.9935
26.4174
25.6077
24.3919
22.2819
28.1211
28.0569
27.9243
27.7144
27.4122
26.9935
26.4174
25.6076
24.3919
22.2819
28.1211
28.0569
27.9243
27.7144
27.4122
26.9935
26.4174
25.6076
24.3919
22.2819
28.1211
28.0569
27.9243
27.7144
27.4122
26.9935
26.4174
25.6077
24.3919
22.2819
28.1212
28.0569
27.9243
27.7145
27.4123
26.9935
26.4175
25.6077
24.392
22.282
28.1212
28.057
27.9244
27.7145
27.4123
26.9936
26.4175
25.6078
24.392
22.282
28.1213
28.057
27.9245
27.7146
27.4124
26.9937
26.4176
25.6078
24.3921
22.2821
23.4121
23.3463
23.2105
22.9954
22.6852
22.2549
21.6644
20.8465
19.6874
18.011
23.412
23.3462
23.2105
22.9953
22.6851
22.2549
21.6643
20.8465
19.6873
18.0109
23.4119
23.3462
23.2104
22.9953
22.6851
22.2548
21.6642
20.8464
19.6873
18.0108
23.4119
23.3461
23.2104
22.9953
22.6851
22.2548
21.6642
20.8464
19.6872
18.0108
23.4119
23.3461
23.2104
22.9952
22.685
22.2548
21.6642
20.8464
19.6872
18.0108
23.4119
23.3461
23.2104
22.9952
22.685
22.2548
21.6642
20.8464
19.6872
18.0108
23.4119
23.3461
23.2104
22.9953
22.6851
22.2548
21.6642
20.8464
19.6872
18.0108
23.4119
23.3462
23.2104
22.9953
22.6851
22.2548
21.6643
20.8464
19.6873
18.0108
23.412
23.3462
23.2105
22.9954
22.6852
22.2549
21.6643
20.8465
19.6873
18.0109
23.412
23.3463
23.2105
22.9954
22.6852
22.255
21.6644
20.8466
19.6874
18.011
19.3028
19.239
19.1076
18.9005
18.6046
18.2006
17.661
16.9495
16.0262
14.881
19.3027
19.2389
19.1075
18.9004
18.6046
18.2005
17.6609
16.9494
16.0262
14.8809
19.3027
19.2389
19.1075
18.9004
18.6045
18.2005
17.6609
16.9493
16.0261
14.8808
19.3027
19.2388
19.1074
18.9004
18.6045
18.2004
17.6609
16.9493
16.0261
14.8808
19.3026
19.2388
19.1074
18.9003
18.6045
18.2004
17.6608
16.9493
16.0261
14.8808
19.3026
19.2388
19.1074
18.9003
18.6045
18.2004
17.6608
16.9493
16.0261
14.8808
19.3027
19.2389
19.1075
18.9004
18.6045
18.2005
17.6609
16.9493
16.0261
14.8808
19.3027
19.2389
19.1075
18.9004
18.6045
18.2005
17.6609
16.9494
16.0261
14.8809
19.3027
19.2389
19.1075
18.9005
18.6046
18.2006
17.661
16.9494
16.0262
14.8809
19.3028
19.239
19.1076
18.9005
18.6047
18.2006
17.661
16.9495
16.0263
14.881
15.7619
15.703
15.5824
15.3943
15.1299
14.7777
14.3249
13.761
13.0891
12.3514
15.7619
15.703
15.5824
15.3943
15.1298
14.7777
14.3248
13.7609
13.089
12.3513
15.7618
15.7029
15.5823
15.3942
15.1298
14.7776
14.3248
13.7609
13.089
12.3513
15.7618
15.7029
15.5823
15.3942
15.1297
14.7776
14.3248
13.7609
13.0889
12.3512
15.7618
15.7029
15.5823
15.3942
15.1297
14.7776
14.3247
13.7609
13.0889
12.3512
15.7618
15.7029
15.5823
15.3942
15.1297
14.7776
14.3247
13.7609
13.0889
12.3512
15.7618
15.7029
15.5823
15.3942
15.1298
14.7776
14.3248
13.7609
13.0889
12.3512
15.7618
15.7029
15.5823
15.3942
15.1298
14.7776
14.3248
13.7609
13.089
12.3513
15.7619
15.703
15.5824
15.3943
15.1298
14.7777
14.3249
13.761
13.089
12.3513
15.7619
15.703
15.5825
15.3943
15.1299
14.7778
14.3249
13.761
13.0891
12.3514
12.7481
12.6962
12.5909
12.4287
12.2055
11.9171
11.5619
11.1456
10.6895
10.2442
12.748
12.6962
12.5908
12.4286
12.2054
11.917
11.5618
11.1455
10.6894
10.2441
12.748
12.6961
12.5908
12.4286
12.2054
11.917
11.5618
11.1455
10.6894
10.2441
12.7479
12.6961
12.5907
12.4286
12.2053
11.9169
11.5618
11.1455
10.6893
10.244
12.7479
12.6961
12.5907
12.4286
12.2053
11.9169
11.5618
11.1455
10.6893
10.244
12.7479
12.6961
12.5907
12.4286
12.2053
11.9169
11.5618
11.1455
10.6893
10.244
12.748
12.6961
12.5907
12.4286
12.2053
11.9169
11.5618
11.1455
10.6893
10.244
12.748
12.6961
12.5908
12.4286
12.2054
11.917
11.5618
11.1455
10.6894
10.2441
12.748
12.6962
12.5908
12.4287
12.2054
11.917
11.5619
11.1456
10.6894
10.2441
12.7481
12.6962
12.5909
12.4287
12.2055
11.9171
11.5619
11.1456
10.6895
10.2442
10.2133
10.1696
10.0817
9.9484
9.76942
9.54622
9.28476
8.9991
8.71652
8.48284
10.2133
10.1696
10.0816
9.94835
9.76936
9.54617
9.2847
8.99904
8.71647
8.48278
10.2132
10.1695
10.0816
9.94831
9.76933
9.54613
9.28466
8.999
8.71643
8.48274
10.2132
10.1695
10.0815
9.94828
9.7693
9.54611
9.28464
8.99898
8.7164
8.48271
10.2132
10.1695
10.0815
9.94827
9.76929
9.5461
9.28463
8.99897
8.71639
8.4827
10.2132
10.1695
10.0815
9.94828
9.7693
9.5461
9.28463
8.99897
8.71639
8.4827
10.2132
10.1695
10.0815
9.94829
9.76931
9.54612
9.28465
8.99899
8.71641
8.48272
10.2132
10.1696
10.0816
9.94832
9.76934
9.54615
9.28468
8.99902
8.71644
8.48275
10.2133
10.1696
10.0816
9.94837
9.76939
9.5462
9.28473
8.99907
8.71649
8.4828
10.2133
10.1696
10.0817
9.94843
9.76945
9.54626
9.28479
8.99913
8.71655
8.48286
8.10612
8.07077
8.00033
7.89563
7.75901
7.59585
7.41676
7.2403
7.09558
7.02252
8.10608
8.07073
8.00028
7.89558
7.75896
7.59581
7.41671
7.24025
7.09553
7.02247
8.10604
8.07069
8.00025
7.89555
7.75893
7.59577
7.41668
7.24022
7.09549
7.02243
8.10602
8.07067
8.00023
7.89552
7.7589
7.59575
7.41666
7.24019
7.09547
7.0224
8.10601
8.07066
8.00022
7.89552
7.7589
7.59574
7.41665
7.24018
7.09546
7.02239
8.10601
8.07066
8.00022
7.89552
7.7589
7.59575
7.41665
7.24019
7.09546
7.02239
8.10603
8.07068
8.00024
7.89553
7.75892
7.59576
7.41667
7.2402
7.09548
7.02241
8.10605
8.0707
8.00026
7.89556
7.75894
7.59579
7.4167
7.24023
7.09551
7.02244
8.10608
8.07074
8.0003
7.8956
7.75898
7.59583
7.41674
7.24028
7.09555
7.02249
8.10612
8.07079
8.00036
7.89566
7.75904
7.59589
7.41679
7.24033
7.09561
7.02255
6.37398
6.34644
6.2922
6.21332
6.11394
6.00183
5.89038
5.80124
5.76633
5.82612
6.37394
6.3464
6.29216
6.21328
6.1139
6.00179
5.89034
5.80119
5.76628
5.82607
6.37391
6.34637
6.29213
6.21325
6.11388
6.00176
5.89031
5.80116
5.76625
5.82603
6.37389
6.34635
6.29212
6.21323
6.11386
6.00174
5.89029
5.80114
5.76623
5.82601
6.37389
6.34634
6.29211
6.21322
6.11385
6.00173
5.89029
5.80113
5.76622
5.826
6.37389
6.34634
6.29211
6.21323
6.11385
6.00174
5.89029
5.80114
5.76622
5.826
6.3739
6.34636
6.29212
6.21324
6.11387
6.00175
5.8903
5.80115
5.76624
5.82602
6.37392
6.34638
6.29215
6.21327
6.11389
6.00178
5.89033
5.80118
5.76627
5.82605
6.37395
6.34641
6.29218
6.2133
6.11393
6.00181
5.89037
5.80122
5.76631
5.82609
6.37399
6.34645
6.29223
6.21335
6.11398
6.00186
5.89042
5.80127
5.76636
5.82614
4.9657
4.94496
4.90464
4.84743
4.77833
4.70608
4.64532
4.61991
4.66799
4.84698
4.96567
4.94492
4.90461
4.8474
4.7783
4.70605
4.64528
4.61987
4.66795
4.84694
4.96564
4.9449
4.90459
4.84737
4.77827
4.70602
4.64526
4.61984
4.66792
4.8469
4.96563
4.94488
4.90457
4.84736
4.77826
4.70601
4.64524
4.61983
4.6679
4.84689
4.96562
4.94487
4.90456
4.84735
4.77825
4.706
4.64523
4.61982
4.6679
4.84688
4.96562
4.94488
4.90457
4.84735
4.77825
4.706
4.64524
4.61982
4.6679
4.84688
4.96563
4.94489
4.90458
4.84737
4.77826
4.70602
4.64525
4.61984
4.66791
4.8469
4.96565
4.94491
4.9046
4.84739
4.77829
4.70604
4.64527
4.61986
4.66794
4.84692
4.96568
4.94494
4.90463
4.84742
4.77832
4.70607
4.64531
4.6199
4.66797
4.84696
4.96571
4.94497
4.90467
4.84746
4.77836
4.70611
4.64535
4.61994
4.66802
4.84701
3.83302
3.81784
3.78874
3.74847
3.702
3.65756
3.62864
3.6377
3.72616
3.98839
3.83299
3.81781
3.78871
3.74844
3.70197
3.65753
3.62861
3.63767
3.72612
3.98835
3.83297
3.81779
3.78869
3.74842
3.70195
3.65751
3.62858
3.63765
3.7261
3.98833
3.83296
3.81778
3.78867
3.74841
3.70193
3.65749
3.62857
3.63764
3.72609
3.98831
3.83295
3.81777
3.78867
3.74841
3.70193
3.65749
3.62857
3.63763
3.72608
3.9883
3.83295
3.81777
3.78867
3.74841
3.70193
3.65749
3.62857
3.63764
3.72609
3.98831
3.83296
3.81778
3.78868
3.74842
3.70194
3.6575
3.62858
3.63765
3.7261
3.98832
3.83298
3.8178
3.7887
3.74844
3.70196
3.65752
3.6286
3.63767
3.72612
3.98834
3.833
3.81782
3.78873
3.74846
3.70199
3.65755
3.62863
3.6377
3.72615
3.98838
3.83303
3.81786
3.78876
3.7485
3.70202
3.65759
3.62867
3.63774
3.72619
3.98842
17.5551
15.2168
14.4342
14.9253
16.6504
19.7242
24.4117
31.1871
40.9023
55.2366
17.555
15.2167
14.4341
14.9252
16.6502
19.7241
24.4115
31.187
40.9021
55.2364
17.5549
15.2166
14.4341
14.9251
16.6502
19.724
24.4114
31.1868
40.902
55.2362
17.5549
15.2166
14.434
14.925
16.6501
19.7239
24.4113
31.1868
40.9019
55.2361
17.5549
15.2165
14.434
14.925
16.6501
19.7239
24.4113
31.1867
40.9018
55.2361
17.5549
15.2165
14.434
14.925
16.6501
19.7239
24.4113
31.1867
40.9018
55.2361
17.5549
15.2166
14.434
14.925
16.6501
19.7239
24.4113
31.1867
40.9019
55.2361
17.5549
15.2166
14.434
14.9251
16.6501
19.7239
24.4114
31.1868
40.9019
55.2362
17.555
15.2167
14.4341
14.9251
16.6502
19.724
24.4114
31.1869
40.902
55.2363
17.555
15.2167
14.4342
14.9252
16.6503
19.7241
24.4115
31.187
40.9022
55.2364
15.7278
14.2475
13.7857
14.3694
16.0491
18.9443
23.2616
29.3085
37.4885
48.158
15.7277
14.2474
13.7856
14.3693
16.049
18.9442
23.2614
29.3083
37.4884
48.1578
15.7276
14.2474
13.7855
14.3692
16.0489
18.9441
23.2613
29.3082
37.4882
48.1577
15.7276
14.2473
13.7855
14.3692
16.0488
18.944
23.2612
29.3081
37.4881
48.1576
15.7276
14.2473
13.7854
14.3692
16.0488
18.944
23.2612
29.3081
37.4881
48.1575
15.7276
14.2473
13.7854
14.3691
16.0488
18.944
23.2612
29.3081
37.4881
48.1575
15.7276
14.2473
13.7855
14.3692
16.0488
18.944
23.2612
29.3081
37.4881
48.1575
15.7276
14.2474
13.7855
14.3692
16.0488
18.9441
23.2613
29.3081
37.4882
48.1576
15.7277
14.2474
13.7856
14.3693
16.0489
18.9441
23.2614
29.3082
37.4883
48.1578
15.7278
14.2475
13.7856
14.3694
16.049
18.9442
23.2615
29.3084
37.4885
48.1579
13.6475
12.836
12.7061
13.3848
14.9671
17.561
21.3006
26.3323
32.7542
40.4408
13.6475
12.836
12.706
13.3847
14.967
17.5609
21.3005
26.3322
32.754
40.4407
13.6474
12.8359
12.706
13.3846
14.9669
17.5608
21.3004
26.3321
32.7539
40.4405
13.6474
12.8359
12.7059
13.3846
14.9668
17.5608
21.3003
26.332
32.7538
40.4404
13.6473
12.8358
12.7059
13.3845
14.9668
17.5607
21.3003
26.332
32.7538
40.4404
13.6473
12.8358
12.7059
13.3845
14.9668
17.5607
21.3003
26.3319
32.7538
40.4404
13.6474
12.8359
12.7059
13.3846
14.9668
17.5607
21.3003
26.332
32.7538
40.4404
13.6474
12.8359
12.706
13.3846
14.9669
17.5608
21.3003
26.332
32.7539
40.4405
13.6475
12.836
12.706
13.3847
14.9669
17.5609
21.3004
26.3321
32.754
40.4406
13.6475
12.836
12.7061
13.3848
14.967
17.561
21.3005
26.3323
32.7542
40.4408
11.675
11.2996
11.4129
12.1426
13.5843
15.8223
18.9311
22.9567
27.8643
33.4434
11.6749
11.2995
11.4129
12.1425
13.5842
15.8222
18.931
22.9566
27.8642
33.4432
11.6749
11.2994
11.4128
12.1424
13.5842
15.8221
18.9309
22.9565
27.8641
33.4431
11.6748
11.2994
11.4128
12.1424
13.5841
15.822
18.9309
22.9564
27.864
33.443
11.6748
11.2994
11.4127
12.1424
13.5841
15.822
18.9308
22.9563
27.864
33.443
11.6748
11.2994
11.4127
12.1424
13.5841
15.822
18.9308
22.9563
27.864
33.443
11.6748
11.2994
11.4128
12.1424
13.5841
15.822
18.9308
22.9564
27.864
33.443
11.6749
11.2994
11.4128
12.1424
13.5841
15.8221
18.9309
22.9564
27.8641
33.4431
11.6749
11.2995
11.4129
12.1425
13.5842
15.8221
18.931
22.9565
27.8642
33.4432
11.675
11.2996
11.4129
12.1426
13.5843
15.8223
18.9311
22.9567
27.8643
33.4434
9.90422
9.80468
10.0717
10.8056
12.084
13.9646
16.4822
19.6319
23.3399
27.4244
9.90415
9.8046
10.0716
10.8055
12.0839
13.9645
16.4821
19.6318
23.3398
27.4242
9.9041
9.80455
10.0715
10.8055
12.0838
13.9644
16.482
19.6317
23.3397
27.4241
9.90407
9.80452
10.0715
10.8054
12.0837
13.9644
16.4819
19.6316
23.3396
27.424
9.90405
9.8045
10.0715
10.8054
12.0837
13.9644
16.4819
19.6316
23.3396
27.424
9.90406
9.8045
10.0715
10.8054
12.0837
13.9644
16.4819
19.6316
23.3396
27.424
9.90408
9.80452
10.0715
10.8054
12.0837
13.9644
16.4819
19.6316
23.3396
27.424
9.90411
9.80456
10.0715
10.8055
12.0838
13.9644
16.482
19.6317
23.3397
27.4241
9.90417
9.80461
10.0716
10.8055
12.0839
13.9645
16.4821
19.6318
23.3398
27.4242
9.90424
9.80469
10.0717
10.8056
12.084
13.9646
16.4822
19.6319
23.3399
27.4244
8.36459
8.44308
8.80041
9.50828
10.6223
12.1782
14.1856
16.6176
19.3976
22.3895
8.36452
8.44301
8.80034
9.50819
10.6222
12.1781
14.1855
16.6175
19.3975
22.3893
8.36448
8.44296
8.80028
9.50813
10.6222
12.1781
14.1854
16.6174
19.3974
22.3892
8.36445
8.44293
8.80025
9.5081
10.6221
12.178
14.1854
16.6174
19.3973
22.3892
8.36443
8.44291
8.80023
9.50808
10.6221
12.178
14.1854
16.6173
19.3973
22.3891
8.36444
8.44292
8.80023
9.50808
10.6221
12.178
14.1854
16.6173
19.3973
22.3891
8.36446
8.44294
8.80025
9.5081
10.6221
12.178
14.1854
16.6174
19.3973
22.3892
8.36449
8.44297
8.80029
9.50814
10.6222
12.1781
14.1854
16.6174
19.3974
22.3892
8.36454
8.44302
8.80035
9.5082
10.6222
12.1781
14.1855
16.6175
19.3975
22.3893
8.36461
8.4431
8.80042
9.50828
10.6223
12.1782
14.1856
16.6176
19.3976
22.3895
7.06666
7.27019
7.68293
8.35383
9.32084
10.6032
12.195
14.0589
16.1231
18.2867
7.06661
7.27013
7.68286
8.35375
9.32075
10.6031
12.1949
14.0587
16.123
18.2865
7.06656
7.27008
7.68281
8.35369
9.32069
10.6031
12.1948
14.0587
16.1229
18.2864
7.06654
7.27005
7.68277
8.35366
9.32065
10.603
12.1948
14.0586
16.1228
18.2864
7.06653
7.27004
7.68276
8.35364
9.32063
10.603
12.1947
14.0586
16.1228
18.2864
7.06653
7.27004
7.68276
8.35364
9.32064
10.603
12.1947
14.0586
16.1228
18.2864
7.06655
7.27006
7.68278
8.35366
9.32066
10.603
12.1948
14.0586
16.1228
18.2864
7.06658
7.27009
7.68282
8.3537
9.3207
10.6031
12.1948
14.0587
16.1229
18.2865
7.06663
7.27014
7.68287
8.35376
9.32076
10.6031
12.1949
14.0588
16.123
18.2866
7.06669
7.27021
7.68294
8.35384
9.32085
10.6032
12.195
14.0589
16.1231
18.2867
6.0148
6.32411
6.78007
7.41912
8.26914
9.33897
10.6119
12.0419
13.5545
15.0613
6.01474
6.32405
6.78
7.41905
8.26907
9.33888
10.6118
12.0418
13.5544
15.0612
6.01471
6.32401
6.77996
7.419
8.26901
9.33882
10.6118
12.0417
13.5543
15.0611
6.01468
6.32398
6.77993
7.41897
8.26898
9.33878
10.6117
12.0417
13.5543
15.0611
6.01467
6.32397
6.77992
7.41896
8.26896
9.33876
10.6117
12.0417
13.5543
15.0611
6.01468
6.32397
6.77992
7.41896
8.26896
9.33877
10.6117
12.0417
13.5543
15.0611
6.01469
6.32399
6.77994
7.41898
8.26898
9.33879
10.6117
12.0417
13.5543
15.0611
6.01472
6.32402
6.77997
7.41902
8.26903
9.33884
10.6118
12.0418
13.5543
15.0612
6.01477
6.32407
6.78002
7.41907
8.26909
9.3389
10.6119
12.0418
13.5544
15.0613
6.01482
6.32413
6.78009
7.41914
8.26917
9.33899
10.612
12.0419
13.5545
15.0614
5.21666
5.63903
6.13943
6.76083
7.53141
8.45546
9.50828
10.6317
11.732
12.6902
5.21662
5.63897
6.13937
6.76076
7.53134
8.45539
9.5082
10.6316
11.7319
12.6901
5.21658
5.63894
6.13933
6.76072
7.53129
8.45533
9.50814
10.6316
11.7318
12.69
5.21656
5.63891
6.1393
6.76069
7.53126
8.4553
9.50811
10.6315
11.7318
12.69
5.21655
5.6389
6.13929
6.76067
7.53124
8.45528
9.50809
10.6315
11.7318
12.6899
5.21656
5.63891
6.1393
6.76068
7.53125
8.45529
9.50809
10.6315
11.7318
12.6899
5.21657
5.63892
6.13932
6.7607
7.53127
8.45531
9.50812
10.6315
11.7318
12.69
5.2166
5.63895
6.13935
6.76073
7.53131
8.45535
9.50817
10.6316
11.7319
12.69
5.21664
5.639
6.1394
6.76079
7.53137
8.45542
9.50824
10.6317
11.7319
12.6901
5.21669
5.63906
6.13946
6.76086
7.53144
8.4555
9.50833
10.6318
11.732
12.6902
4.71296
5.26096
5.80235
6.4197
7.15102
8.0006
8.93863
9.89449
10.7412
11.2573
4.71292
5.26092
5.8023
6.41965
7.15097
8.00054
8.93856
9.89443
10.7412
11.2572
4.71289
5.26089
5.80227
6.41961
7.15092
8.00049
8.93851
9.89437
10.7411
11.2572
4.71287
5.26086
5.80224
6.41959
7.1509
8.00046
8.93848
9.89434
10.7411
11.2571
4.71287
5.26085
5.80223
6.41957
7.15088
8.00044
8.93846
9.89432
10.7411
11.2571
4.71287
5.26086
5.80224
6.41958
7.15089
8.00045
8.93847
9.89432
10.7411
11.2571
4.71289
5.26087
5.80225
6.4196
7.15091
8.00047
8.93849
9.89435
10.7411
11.2572
4.71291
5.2609
5.80229
6.41963
7.15095
8.00051
8.93854
9.8944
10.7411
11.2572
4.71295
5.26095
5.80233
6.41969
7.151
8.00058
8.93861
9.89447
10.7412
11.2573
4.713
5.261
5.80239
6.41975
7.15108
8.00066
8.93869
9.89457
10.7413
11.2574
78.0254
88.4685
94.5726
98.6411
101.513
103.576
105.047
106.056
106.689
106.993
78.0251
88.4682
94.5723
98.6408
101.512
103.576
105.046
106.056
106.688
106.993
78.0249
88.468
94.5721
98.6406
101.512
103.576
105.046
106.056
106.688
106.993
78.0248
88.4679
94.572
98.6404
101.512
103.575
105.046
106.056
106.688
106.993
78.0248
88.4678
94.5719
98.6404
101.512
103.575
105.046
106.056
106.688
106.993
78.0247
88.4678
94.5719
98.6404
101.512
103.575
105.046
106.056
106.688
106.993
78.0248
88.4679
94.572
98.6404
101.512
103.575
105.046
106.056
106.688
106.993
78.0249
88.468
94.5721
98.6406
101.512
103.576
105.046
106.056
106.688
106.993
78.0251
88.4682
94.5723
98.6408
101.512
103.576
105.046
106.056
106.689
106.993
78.0252
88.4684
94.5725
98.641
101.513
103.576
105.047
106.057
106.689
106.994
60.7824
69.7729
75.9101
80.1843
83.2235
85.4014
86.9465
88.0032
88.6628
88.98
60.7822
69.7726
75.9099
80.1841
83.2233
85.4011
86.9462
88.0029
88.6626
88.9798
60.782
69.7725
75.9097
80.1839
83.2231
85.4009
86.946
88.0027
88.6624
88.9796
60.7819
69.7723
75.9096
80.1838
83.2229
85.4008
86.9459
88.0026
88.6623
88.9795
60.7818
69.7723
75.9095
80.1837
83.2229
85.4007
86.9458
88.0025
88.6622
88.9795
60.7818
69.7723
75.9095
80.1837
83.2229
85.4008
86.9459
88.0025
88.6623
88.9795
60.7819
69.7723
75.9096
80.1838
83.223
85.4008
86.9459
88.0026
88.6623
88.9796
60.782
69.7724
75.9097
80.1839
83.2231
85.401
86.9461
88.0028
88.6625
88.9798
60.7821
69.7726
75.9099
80.1841
83.2233
85.4012
86.9463
88.003
88.6627
88.98
60.7823
69.7728
75.9101
80.1843
83.2236
85.4015
86.9466
88.0033
88.663
88.9803
48.6433
55.5223
60.7991
64.7297
67.6271
69.7432
71.2596
72.3022
72.955
73.2692
48.6431
55.522
60.7989
64.7294
67.6269
69.743
71.2594
72.302
72.9547
73.269
48.643
55.5219
60.7987
64.7293
67.6267
69.7428
71.2592
72.3018
72.9546
73.2689
48.6429
55.5218
60.7986
64.7291
67.6266
69.7427
71.2591
72.3017
72.9545
73.2688
48.6428
55.5217
60.7986
64.7291
67.6265
69.7426
71.259
72.3016
72.9544
73.2688
48.6428
55.5217
60.7986
64.7291
67.6266
69.7426
71.259
72.3017
72.9544
73.2688
48.6429
55.5218
60.7986
64.7292
67.6266
69.7427
71.2591
72.3017
72.9545
73.2689
48.6429
55.5219
60.7988
64.7293
67.6268
69.7429
71.2593
72.3019
72.9547
73.269
48.6431
55.522
60.7989
64.7295
67.627
69.7431
71.2595
72.3021
72.9549
73.2692
48.6433
55.5222
60.7992
64.7297
67.6272
69.7433
71.2597
72.3024
72.9552
73.2695
39.1891
44.3462
48.6015
51.9541
54.5238
56.4498
57.8535
58.8292
59.4442
59.7413
39.1889
44.346
48.6013
51.9539
54.5236
56.4495
57.8533
58.829
59.4439
59.7412
39.1888
44.3459
48.6011
51.9538
54.5234
56.4494
57.8531
58.8288
59.4438
59.741
39.1887
44.3458
48.601
51.9537
54.5233
56.4493
57.853
58.8287
59.4437
59.7409
39.1886
44.3457
48.601
51.9536
54.5233
56.4492
57.8529
58.8287
59.4437
59.7409
39.1886
44.3457
48.601
51.9536
54.5233
56.4492
57.853
58.8287
59.4437
59.7409
39.1887
44.3458
48.601
51.9537
54.5233
56.4493
57.853
58.8288
59.4438
59.741
39.1888
44.3459
48.6011
51.9538
54.5235
56.4494
57.8532
58.8289
59.4439
59.7412
39.1889
44.346
48.6013
51.954
54.5236
56.4496
57.8534
58.8291
59.4441
59.7414
39.1891
44.3462
48.6015
51.9542
54.5239
56.4499
57.8536
58.8294
59.4444
59.7416
31.5751
35.4221
38.7435
41.4735
43.6392
45.3054
46.5431
47.4151
47.9695
48.2388
31.5749
35.422
38.7433
41.4733
43.639
45.3052
46.5429
47.4149
47.9693
48.2387
31.5748
35.4218
38.7432
41.4732
43.6388
45.305
46.5428
47.4147
47.9692
48.2385
31.5747
35.4217
38.7431
41.4731
43.6387
45.3049
46.5427
47.4147
47.9691
48.2385
31.5747
35.4217
38.743
41.473
43.6387
45.3049
46.5427
47.4146
47.9691
48.2384
31.5747
35.4217
38.7431
41.473
43.6387
45.3049
46.5427
47.4146
47.9691
48.2385
31.5747
35.4218
38.7431
41.4731
43.6388
45.305
46.5427
47.4147
47.9692
48.2385
31.5748
35.4219
38.7432
41.4732
43.6389
45.3051
46.5429
47.4149
47.9693
48.2387
31.5749
35.422
38.7434
41.4734
43.6391
45.3053
46.5431
47.415
47.9695
48.2389
31.5751
35.4222
38.7436
41.4736
43.6393
45.3055
46.5433
47.4153
47.9698
48.2391
25.4057
28.2496
30.7796
32.9276
34.6825
36.066
37.1137
37.8623
38.3429
38.5777
25.4055
28.2494
30.7795
32.9275
34.6823
36.0658
37.1135
37.8621
38.3427
38.5775
25.4054
28.2493
30.7793
32.9273
34.6822
36.0657
37.1133
37.8619
38.3426
38.5774
25.4053
28.2492
30.7793
32.9273
34.6821
36.0656
37.1133
37.8619
38.3426
38.5774
25.4053
28.2492
30.7792
32.9272
34.6821
36.0656
37.1132
37.8618
38.3425
38.5774
25.4053
28.2492
30.7792
32.9272
34.6821
36.0656
37.1133
37.8619
38.3426
38.5774
25.4054
28.2492
30.7793
32.9273
34.6821
36.0656
37.1133
37.8619
38.3426
38.5775
25.4054
28.2493
30.7794
32.9274
34.6822
36.0658
37.1134
37.8621
38.3428
38.5776
25.4056
28.2494
30.7795
32.9275
34.6824
36.0659
37.1136
37.8622
38.3429
38.5778
25.4057
28.2496
30.7797
32.9277
34.6826
36.0661
37.1138
37.8624
38.3432
38.578
20.44
22.4933
24.3659
26.0018
27.3751
28.4836
29.3391
29.9594
30.3617
30.5593
20.4399
22.4932
24.3657
26.0017
27.375
28.4835
29.339
29.9592
30.3615
30.5592
20.4398
22.4931
24.3656
26.0015
27.3749
28.4833
29.3389
29.9591
30.3614
30.5591
20.4397
22.493
24.3655
26.0015
27.3748
28.4833
29.3388
29.959
30.3614
30.5591
20.4397
22.493
24.3655
26.0014
27.3748
28.4833
29.3388
29.959
30.3613
30.5591
20.4397
22.493
24.3655
26.0015
27.3748
28.4833
29.3388
29.959
30.3614
30.5591
20.4397
22.493
24.3656
26.0015
27.3749
28.4833
29.3389
29.9591
30.3614
30.5591
20.4398
22.4931
24.3657
26.0016
27.3749
28.4834
29.339
29.9592
30.3615
30.5593
20.4399
22.4932
24.3658
26.0017
27.3751
28.4836
29.3391
29.9594
30.3617
30.5594
20.4401
22.4934
24.3659
26.0019
27.3753
28.4838
29.3393
29.9595
30.3619
30.5596
16.5009
17.901
19.2251
20.4239
21.4615
22.3202
22.9962
23.4937
23.8198
23.981
16.5008
17.9009
19.225