/*--------------------------------*- C++ -*----------------------------------*\
  =========                 |
  \\      /  F ield         | OpenFOAM: The Open Source CFD Toolbox
   \\    /   O peration     | Website:  https://openfoam.org
    \\  /    A nd           | Version:  7
     \\/     M anipulation  |
\*---------------------------------------------------------------------------*/
FoamFile
{
    version     2.0;
    format      ascii;
    class       volScalarField;
    location    "100";
    object      p;
}
// * * * * * * * * * * * * * * * * * * * * * * * * * * * * * * * * * * * * * //

dimensions      [0 2 -2 0 0 0 0];

internalField   nonuniform List<scalar> 
3000
(
0.0211141
0.0188684
0.0183427
0.0181091
0.0179935
0.0180064
0.0181468
0.0184014
0.0189437
0.021211
0.0188558
0.0166083
0.0160836
0.0158499
0.0157339
0.0157466
0.0158869
0.0161414
0.0166826
0.0189518
0.0183196
0.0160731
0.015548
0.0153141
0.0151979
0.0152103
0.0153503
0.0156045
0.0161458
0.0184137
0.0180716
0.0158248
0.0152994
0.0150652
0.0149484
0.0149601
0.0150995
0.0153532
0.015894
0.0181612
0.0179379
0.0156904
0.0151646
0.0149297
0.014812
0.0148228
0.0149612
0.0152139
0.015754
0.0180203
0.0179307
0.0156825
0.015156
0.0149202
0.0148015
0.014811
0.0149481
0.0151996
0.0157387
0.0180034
0.0180507
0.0158017
0.0152746
0.0150378
0.0149178
0.0149259
0.0150615
0.0153117
0.0158496
0.0181124
0.0182872
0.0160373
0.0155095
0.0152717
0.0151506
0.0151574
0.0152916
0.0155405
0.0160772
0.0183384
0.0188147
0.0165629
0.0160347
0.0157962
0.015674
0.0156797
0.0158127
0.0160606
0.0165961
0.0188569
0.0210616
0.0188106
0.0182804
0.0180407
0.0179172
0.0179213
0.0180525
0.0182989
0.0188342
0.0210912
0.0181691
0.0167513
0.0167692
0.016539
0.0164216
0.0164355
0.0165796
0.0168331
0.0168309
0.0182738
0.0167371
0.0153181
0.0153391
0.015108
0.0149902
0.0150039
0.015148
0.0154023
0.0153971
0.0168416
0.0167456
0.0153297
0.0153496
0.0151183
0.0150003
0.0150137
0.0151577
0.0154119
0.0154077
0.016849
0.0164999
0.0150828
0.0151025
0.0148709
0.0147523
0.014765
0.0149083
0.0151617
0.0151572
0.0165986
0.0163634
0.0149455
0.0149647
0.0147323
0.0146127
0.0146244
0.0147665
0.0150189
0.0150137
0.0164539
0.0163559
0.0149371
0.0149557
0.0147223
0.0146015
0.0146116
0.0147522
0.0150031
0.0149969
0.0164349
0.016478
0.0150583
0.0150762
0.0148417
0.0147194
0.0147279
0.0148667
0.0151158
0.0151082
0.0165435
0.0167114
0.0152914
0.0153086
0.0150728
0.014949
0.0149559
0.0150929
0.0153405
0.0153317
0.0167636
0.0166954
0.0152713
0.0152891
0.0150525
0.0149278
0.0149336
0.0150693
0.0153156
0.0153048
0.0167381
0.0181142
0.0166899
0.0167035
0.0164661
0.0163398
0.0163435
0.0164769
0.0167204
0.0167111
0.0181403
0.0157142
0.01489
0.0152324
0.0150181
0.0149578
0.0149737
0.0150651
0.0153071
0.014981
0.0158371
0.0148733
0.0140522
0.0143997
0.0141833
0.0141231
0.014139
0.0142302
0.0144748
0.0141445
0.0149991
0.0152068
0.0143908
0.0147361
0.0145199
0.0144594
0.0144752
0.0145665
0.0148108
0.0144831
0.015333
0.014975
0.0141564
0.014502
0.0142854
0.0142241
0.014239
0.0143296
0.0145731
0.0142448
0.0150963
0.0148933
0.0140742
0.0144191
0.0142015
0.0141389
0.0141524
0.0142416
0.0144838
0.0141549
0.0150042
0.0148851
0.0140648
0.014409
0.0141901
0.0141259
0.0141375
0.0142245
0.0144645
0.0141342
0.0149802
0.0149511
0.0141291
0.0144726
0.0142522
0.0141862
0.0141955
0.0142799
0.0145172
0.0141848
0.0150267
0.015169
0.0143475
0.0146898
0.0144677
0.0143998
0.0144068
0.0144886
0.0147234
0.0143893
0.0152249
0.0148286
0.0140011
0.014345
0.0141215
0.0140525
0.0140581
0.0141381
0.0143714
0.014034
0.0148714
0.0156536
0.0148208
0.0151584
0.0149349
0.0148631
0.0148658
0.0149429
0.0151709
0.014836
0.0156714
0.0144523
0.0138546
0.0142189
0.013991
0.0140013
0.0140207
0.014048
0.0143106
0.0139654
0.014604
0.0138352
0.0132427
0.0136126
0.0133821
0.0133934
0.0134131
0.0134404
0.0137074
0.0133592
0.0139978
0.0141904
0.0136032
0.0139701
0.0137404
0.0137512
0.0137709
0.0137988
0.0140654
0.0137215
0.0143568
0.013942
0.0133517
0.0137193
0.0134887
0.0134984
0.0135172
0.0135444
0.0138106
0.0134661
0.0141043
0.0139276
0.0133372
0.0137038
0.0134718
0.01348
0.0134969
0.0135221
0.0137865
0.0134415
0.0140763
0.0139184
0.0133264
0.0136921
0.0134584
0.0134642
0.0134784
0.0135005
0.0137615
0.0134142
0.0140433
0.0139153
0.0133204
0.0136854
0.0134497
0.0134529
0.0134637
0.0134819
0.0137384
0.0133873
0.0140097
0.0141473
0.013553
0.0139159
0.0136781
0.0136787
0.0136861
0.0137002
0.013952
0.0135982
0.0142099
0.0137852
0.0131842
0.0135495
0.0133094
0.0133087
0.013314
0.0133251
0.0135749
0.0132157
0.0138269
0.0143835
0.0137744
0.0141326
0.0138922
0.013887
0.013888
0.0138952
0.014137
0.0137789
0.014386
0.013586
0.013094
0.0134032
0.0131591
0.013217
0.013241
0.0132297
0.0135181
0.0132323
0.0137763
0.013072
0.0125864
0.012902
0.0126548
0.0127141
0.0127393
0.0127295
0.0130252
0.0127394
0.0132907
0.0133713
0.0128916
0.013204
0.0129577
0.013016
0.0130415
0.0130334
0.0133298
0.0130503
0.0136018
0.0131031
0.0126196
0.0129326
0.0126849
0.0127422
0.0127666
0.0127577
0.0130544
0.0127756
0.0133335
0.0131322
0.0126482
0.0129595
0.0127102
0.0127653
0.0127872
0.0127756
0.0130697
0.0127908
0.0133446
0.0131217
0.0126356
0.0129457
0.012694
0.0127459
0.0127637
0.0127473
0.0130358
0.0127528
0.0132967
0.0130729
0.0125833
0.0128928
0.0126381
0.0126862
0.012699
0.0126763
0.0129575
0.0126673
0.0131975
0.0133219
0.0128326
0.0131394
0.012882
0.012926
0.0129336
0.0129046
0.0131777
0.0128817
0.0133931
0.0130151
0.0125181
0.0128273
0.012567
0.0126096
0.012614
0.0125801
0.0128492
0.0125453
0.0130513
0.0135072
0.0130003
0.0133013
0.0130401
0.0130768
0.0130749
0.0130346
0.0132919
0.0129865
0.0134816
0.012636
0.0122488
0.0125309
0.0122932
0.0123801
0.0124098
0.0123805
0.0126746
0.012421
0.0128704
0.0122243
0.0118466
0.0121355
0.0118936
0.0119828
0.0120151
0.0119899
0.012298
0.0120515
0.0125244
0.0124957
0.0121244
0.012409
0.0121678
0.0122563
0.0122894
0.012267
0.0125783
0.0123431
0.0128263
0.0122303
0.0118534
0.0121384
0.0118957
0.011983
0.0120149
0.0119921
0.0123051
0.012074
0.012573
0.0122838
0.0119062
0.0121895
0.0119447
0.0120286
0.012057
0.0120308
0.01234
0.0121089
0.012604
0.0122718
0.0118916
0.0121733
0.0119251
0.0120045
0.0120268
0.0119932
0.0122932
0.0120543
0.0125306
0.0121961
0.0118114
0.012092
0.0118396
0.0119139
0.0119287
0.0118849
0.0121722
0.0119201
0.0123681
0.0124392
0.0120553
0.0123328
0.0120764
0.0121447
0.0121517
0.0120978
0.0123714
0.0121069
0.0125188
0.0121595
0.0117671
0.0120476
0.0117879
0.0118538
0.011856
0.0117948
0.0120605
0.0117831
0.0121786
0.0125459
0.0121394
0.0124107
0.0121502
0.012208
0.0122013
0.01213
0.0123774
0.0120934
0.0124668
0.0116271
0.0113356
0.0116031
0.0113858
0.0114923
0.011528
0.0114911
0.0117799
0.0115459
0.0119021
0.0113091
0.0110304
0.0113033
0.0110807
0.0111917
0.0112321
0.0112027
0.0115164
0.011306
0.0117251
0.0115656
0.0112916
0.0115583
0.0113369
0.0114479
0.0114895
0.0114644
0.0117853
0.0115961
0.0120522
0.0113175
0.0110362
0.0113035
0.0110803
0.0111897
0.0112299
0.0112053
0.0115308
0.0113521
0.0118465
0.0113861
0.0111052
0.011371
0.0111447
0.0112492
0.0112844
0.0112554
0.0115759
0.0113972
0.0118895
0.0113723
0.011088
0.0113517
0.0111207
0.0112188
0.0112453
0.0112047
0.0115098
0.0113165
0.0117721
0.0112787
0.0109876
0.0112491
0.0110126
0.0111039
0.0111194
0.0110626
0.0113456
0.0111277
0.0115234
0.0115014
0.0112116
0.0114692
0.0112272
0.0113103
0.0113144
0.0112416
0.0115013
0.0112591
0.011583
0.0112359
0.0109387
0.0112009
0.0109546
0.0110334
0.0110307
0.0109477
0.0111938
0.0109296
0.0112128
0.0115245
0.0112085
0.0114623
0.0112149
0.0112821
0.0112672
0.0111703
0.0113891
0.011109
0.0113482
0.0106614
0.0104377
0.0106808
0.0104835
0.0106006
0.0106411
0.0106039
0.0108905
0.0106874
0.0109408
0.0104104
0.0102012
0.0104478
0.0102456
0.0103695
0.010417
0.0103924
0.0107197
0.0105706
0.0109768
0.0106431
0.0104365
0.0106764
0.0104761
0.0106
0.0106489
0.0106309
0.010972
0.0108634
0.0113761
0.0104129
0.0101987
0.0104399
0.0102369
0.0103581
0.0104054
0.0103897
0.0107412
0.010658
0.0112653
0.0104891
0.0102761
0.0105154
0.0103078
0.0104228
0.0104632
0.010441
0.010786
0.0107058
0.0113258
0.0104732
0.0102558
0.010492
0.0102782
0.0103845
0.0104124
0.0103723
0.0106916
0.0105826
0.0111261
0.010369
0.0101422
0.0103754
0.0101547
0.0102515
0.0102635
0.0101988
0.0104798
0.0103204
0.0107272
0.0105705
0.0103439
0.0105717
0.0103442
0.0104306
0.0104267
0.0103375
0.0105793
0.0103713
0.0106278
0.0103282
0.0100959
0.0103287
0.0100952
0.0101761
0.0101636
0.0100603
0.0102809
0.0100369
0.0102037
0.0105458
0.0102915
0.0105172
0.010281
0.0103465
0.0103186
0.0101977
0.0103812
0.0101079
0.0101908
0.00974381
0.00956381
0.00977513
0.00959338
0.00971071
0.00975312
0.00971964
0.0100118
0.00986175
0.00996946
0.00953748
0.00937315
0.00958741
0.00940172
0.0095264
0.00957759
0.00956398
0.00991648
0.00986278
0.0103115
0.00974036
0.00957794
0.00978685
0.0096033
0.00972617
0.00977862
0.0097746
0.0101479
0.0101591
0.0108697
0.00952554
0.0093563
0.00956694
0.00937889
0.00949782
0.00954789
0.00954788
0.00993903
0.00999648
0.0109269
0.00960162
0.00943311
0.00964015
0.00944614
0.00955772
0.00959813
0.00958773
0.00996919
0.010034
0.0110173
0.00958375
0.00940952
0.00961283
0.00941093
0.00951112
0.00953394
0.00949726
0.00983698
0.00984769
0.0106686
0.00947658
0.00929147
0.00949194
0.00928167
0.00936873
0.00937009
0.00929811
0.00957618
0.0094927
0.0100034
0.00965921
0.00947189
0.00966527
0.00944723
0.00952161
0.00950206
0.00939536
0.00961263
0.00944337
0.009638
0.00944682
0.00925389
0.00945059
0.00922523
0.0092944
0.00926482
0.00913969
0.00932735
0.0091096
0.00912876
0.00961649
0.00939911
0.0095888
0.00935822
0.00941004
0.00936308
0.00921732
0.0093609
0.00910547
0.00897872
0.0088433
0.00869256
0.00887192
0.00870157
0.00880902
0.00884877
0.00881683
0.00910994
0.00908543
0.00879526
0.00866926
0.00853503
0.00871696
0.0085423
0.00865451
0.0087026
0.00869623
0.00906792
0.0092069
0.00958407
0.00884357
0.00871106
0.00888876
0.00871491
0.00882202
0.0088692
0.0088736
0.00927244
0.00951864
0.0105865
0.00864313
0.00850391
0.00868258
0.00850194
0.00860341
0.00864588
0.00865398
0.00907801
0.00940359
0.0109815
0.00871386
0.00857342
0.00874643
0.00855856
0.00865108
0.00867994
0.00867234
0.00908153
0.00942232
0.0112079
0.00869462
0.00854757
0.00871651
0.00851925
0.00859752
0.00860338
0.00855931
0.00890459
0.00913878
0.010564
0.0085908
0.00843309
0.00860035
0.00839319
0.00845511
0.0084342
0.00834324
0.00859614
0.00864804
0.00934105
0.00875575
0.00859364
0.00875322
0.00853796
0.00858527
0.00853939
0.0084043
0.00857029
0.00846466
0.00845225
0.00857226
0.00840398
0.0085651
0.00834274
0.00838684
0.00833116
0.00817551
0.00830708
0.00814251
0.00781057
0.00870736
0.00851257
0.0086665
0.00843767
0.00846586
0.00839381
0.0082185
0.00830751
0.00810703
0.00755676
0.00795053
0.00781848
0.00796683
0.00780336
0.00789138
0.00792135
0.00788482
0.00812802
0.00833173
0.00805387
0.00780043
0.00768459
0.00783336
0.0076627
0.00774951
0.00778076
0.00776514
0.00808066
0.00840322
0.0092503
0.00794894
0.00783326
0.00797674
0.00780388
0.00788129
0.00790488
0.00789243
0.00822507
0.00855007
0.0103732
0.00776269
0.0076391
0.00778159
0.0075993
0.00766839
0.00768135
0.00766478
0.00801393
0.00834725
0.010832
0.00782605
0.00769877
0.00783408
0.00764341
0.00770099
0.00769518
0.00765567
0.00797993
0.00828221
0.0110213
0.00780644
0.00767198
0.00780318
0.0076019
0.00764308
0.00761001
0.00752458
0.00776713
0.00793261
0.010036
0.00770976
0.00756596
0.00769669
0.00748458
0.00750831
0.0074464
0.00730651
0.00743978
0.0074271
0.0083678
0.0078579
0.00770913
0.00783336
0.0076137
0.00762239
0.00753551
0.00734898
0.00738519
0.00724259
0.00711127
0.00770047
0.00754649
0.00767296
0.00744843
0.00745724
0.00736462
0.00716398
0.00717712
0.00705189
0.00662051
0.00781009
0.00762861
0.00774936
0.00751981
0.00751775
0.00741541
0.00720623
0.00719838
0.00712104
0.00649997
0.00707172
0.00694904
0.00706666
0.00690575
0.00696621
0.00697447
0.00694083
0.00710006
0.00746808
0.00891798
0.00693854
0.00683031
0.00694432
0.00677121
0.00682116
0.00681143
0.00676295
0.00693575
0.00703722
0.00905588
0.00706355
0.00695255
0.00705868
0.00687971
0.00691487
0.00688182
0.00679482
0.00690906
0.0065189
0.00769946
0.00689176
0.00677111
0.00687422
0.00668308
0.00670553
0.00664943
0.00652657
0.00660193
0.00591793
0.00681543
0.00694803
0.00682186
0.00691742
0.00671672
0.0067242
0.00664267
0.00648101
0.00650096
0.00562659
0.00612126
0.0069287
0.00679499
0.00688649
0.00667458
0.00666527
0.00655677
0.00634957
0.00629184
0.00539736
0.00538577
0.00684044
0.00669871
0.00679035
0.00656792
0.00654405
0.0064137
0.00616868
0.00604117
0.00529757
0.00491325
0.00697254
0.00682656
0.00691384
0.00668538
0.00664919
0.00650305
0.00623562
0.00605802
0.00552243
0.00498308
0.00683877
0.00669036
0.00678267
0.00655266
0.00652087
0.00637946
0.0061255
0.0059755
0.00570598
0.00574077
0.00692999
0.00675465
0.00684468
0.00661332
0.00657847
0.00644169
0.00621044
0.00609236
0.00609657
0.00668541
0.00620746
0.00608737
0.00617603
0.00601521
0.00604416
0.00601101
0.00596859
0.00604111
0.0059116
0.00737138
0.00608639
0.00597848
0.00605941
0.0058809
0.005889
0.00581361
0.00569348
0.00573894
0.00512634
0.00655114
0.0061914
0.00607808
0.00614944
0.00596228
0.00595042
0.00583544
0.005617
0.00553573
0.00440816
0.00415465
0.00603515
0.00591136
0.00597896
0.00577752
0.00574797
0.00559826
0.00530798
0.00515569
0.00376706
0.00303932
0.00608569
0.00595589
0.00601689
0.00580508
0.00575745
0.00557813
0.00523541
0.00501417
0.00349832
0.00247981
0.00606687
0.00592941
0.00598662
0.00576397
0.00570146
0.00550099
0.00512772
0.0048419
0.00342139
0.00218088
0.00598671
0.00584191
0.00589919
0.0056678
0.00559709
0.00538842
0.00501353
0.00468793
0.00353463
0.00222644
0.00610318
0.00595471
0.00600915
0.0057737
0.00569585
0.00548496
0.00512573
0.00477691
0.00388094
0.00258175
0.00598995
0.00584208
0.00590387
0.00566936
0.00559962
0.00540359
0.0050895
0.00479588
0.00412164
0.0033948
0.00606787
0.00589433
0.00595757
0.00572565
0.00566093
0.00548481
0.00523273
0.00500794
0.00460814
0.00467081
0.00535392
0.00523359
0.0052983
0.00513776
0.00513868
0.00505177
0.0049496
0.00498739
0.00434542
0.00518711
0.00524276
0.00513314
0.00518789
0.00500609
0.00497923
0.00484066
0.00461532
0.00462951
0.00361712
0.00426709
0.0053327
0.00521673
0.00526272
0.00507217
0.0050239
0.00484737
0.00451023
0.00438331
0.00319369
0.00240091
0.00519313
0.00506741
0.00511064
0.00490543
0.00483721
0.00462748
0.0042178
0.00402564
0.00273617
0.0015408
0.00523929
0.00510834
0.00514682
0.00493143
0.00484429
0.00460788
0.00415085
0.00389505
0.0025601
0.00119948
0.00522099
0.00508258
0.00511782
0.00489283
0.00479378
0.00454237
0.00407281
0.0037543
0.00252998
0.0011133
0.00514825
0.00500255
0.00503736
0.00480589
0.00470458
0.00445227
0.00400449
0.00363826
0.00261955
0.00127037
0.00524937
0.00509954
0.00513154
0.00489714
0.00479263
0.00454192
0.00412507
0.00371983
0.00285752
0.00144104
0.00515297
0.00500522
0.00504437
0.00481087
0.00471476
0.00447676
0.0041064
0.00374165
0.00294302
0.00171455
0.00522088
0.00504843
0.00509116
0.00486229
0.00477615
0.00456244
0.00427039
0.00397923
0.00330833
0.00267213
0.0045144
0.00439271
0.00444032
0.00428268
0.0042668
0.00414833
0.00397566
0.00406845
0.00332002
0.00391966
0.00441062
0.00429938
0.00433721
0.00415822
0.00411202
0.00395237
0.00364982
0.00371916
0.00278362
0.00317813
0.00448902
0.00437213
0.00440397
0.00421923
0.00415429
0.00397152
0.00359205
0.00351184
0.00262044
0.0018707
0.00436556
0.00424062
0.00427132
0.00407336
0.00398923
0.00378068
0.00334897
0.00319972
0.00224926
0.00100873
0.0044078
0.00427888
0.0043066
0.00409959
0.00399777
0.0037676
0.00330061
0.00308509
0.002102
0.000699821
0.00439019
0.00425426
0.00427942
0.00406427
0.00395309
0.00371019
0.00324311
0.00296193
0.00205939
0.000726929
0.00432495
0.00418175
0.00420615
0.00398623
0.00387605
0.00363046
0.00319306
0.00285775
0.00208724
0.000908016
0.00441262
0.0042641
0.00428487
0.00406197
0.00395021
0.00370182
0.00329455
0.00291227
0.00226686
0.001046
0.00433091
0.00418441
0.00421006
0.00398571
0.00387992
0.00363469
0.00325462
0.00289893
0.00228033
0.0011113
0.00439347
0.00422242
0.00425184
0.00403152
0.00393732
0.00371087
0.00340079
0.00311865
0.00253379
0.00179094
0.00369471
0.00357125
0.00360916
0.00345977
0.00344006
0.00333294
0.00312228
0.00329728
0.00263327
0.00315659
0.00359448
0.00348187
0.00351142
0.00334361
0.00329309
0.00316066
0.00284069
0.00297069
0.00222733
0.00255143
0.00366252
0.00354556
0.00357178
0.00340219
0.00333674
0.00319036
0.00283733
0.00280297
0.00216558
0.00158627
0.00355261
0.00342915
0.00345482
0.00327358
0.00319033
0.00301969
0.00262889
0.00251439
0.00182195
0.000706044
0.00359062
0.00346412
0.00348754
0.0032986
0.00319982
0.00300988
0.00259409
0.00240995
0.00169445
0.000418691
0.00357428
0.00344139
0.00346292
0.00326715
0.00316111
0.00295796
0.00255122
0.0023069
0.00164408
0.000514853
0.00351776
0.00337824
0.00339945
0.00320005
0.00309669
0.00288661
0.00251205
0.00222155
0.00164441
0.000687632
0.00359534
0.00344964
0.00346716
0.00326474
0.00316145
0.0029456
0.00260176
0.00227102
0.00182272
0.000860976
0.00352804
0.00338374
0.00340386
0.00319759
0.00309835
0.00288023
0.00254832
0.00224062
0.00184959
0.000944701
0.003591
0.00342223
0.00344562
0.00324138
0.00315423
0.00294876
0.0026696
0.002436
0.00203235
0.00144133
0.00292343
0.00278394
0.00281766
0.00268348
0.00266773
0.00260006
0.00238181
0.00261092
0.00203519
0.00248343
0.00280774
0.00267706
0.00270348
0.00255495
0.00250813
0.0024243
0.00212808
0.00228962
0.00169316
0.0020077
0.00286454
0.00273062
0.00275465
0.00260693
0.00254925
0.00245034
0.00215421
0.0021557
0.00168667
0.00135882
0.00276541
0.0026257
0.00264813
0.00248932
0.00241605
0.00229044
0.00196368
0.00188899
0.00140512
0.000584451
0.00279904
0.00265651
0.00267636
0.00251119
0.0024259
0.00228232
0.00194134
0.00180138
0.00132016
0.000322832
0.00278497
0.00263666
0.00265529
0.0024845
0.00239439
0.00223686
0.00191272
0.0017245
0.00127181
0.000422005
0.00273872
0.00258502
0.00260472
0.00243121
0.00234497
0.00217741
0.00188575
0.00166176
0.00125897
0.000573056
0.0028099
0.00265001
0.0026675
0.00249194
0.00240819
0.00223486
0.00197736
0.00171691
0.0014282
0.000743372
0.00275817
0.00259934
0.00261883
0.00243887
0.00235853
0.00218307
0.00193081
0.00168475
0.00146608
0.000833583
0.0028412
0.00266051
0.00268322
0.00250333
0.00243512
0.00226931
0.00205167
0.00187204
0.00159772
0.00115234
0.00214276
0.0020004
0.00203797
0.001925
0.00191366
0.00189045
0.00167699
0.00193248
0.00144715
0.00180155
0.00202111
0.00188565
0.001916
0.00179344
0.00175363
0.00171728
0.00146053
0.00164767
0.00118041
0.00155899
0.00207194
0.0019338
0.00196159
0.0018403
0.00179529
0.00173999
0.00150597
0.00155764
0.0012288
0.00122519
0.00198287
0.00183956
0.00186404
0.00173154
0.001675
0.00159389
0.00133662
0.00132239
0.00103417
0.000587681
0.00201266
0.00186664
0.00188801
0.00175068
0.00168744
0.00159059
0.00133069
0.00125538
0.000994702
0.000324554
0.00200145
0.00185053
0.00187136
0.0017295
0.00166443
0.00155273
0.00131431
0.00120165
0.000946988
0.000390035
0.00196559
0.00181115
0.00183478
0.00169069
0.00163026
0.00150635
0.00129874
0.00115855
0.000925476
0.000517011
0.0020308
0.00187087
0.00189479
0.00175006
0.0016943
0.00156435
0.00139306
0.00121547
0.00106718
0.000649568
0.00198849
0.00183016
0.00185669
0.00170875
0.00165584
0.00152426
0.00135582
0.00118039
0.00109515
0.000710138
0.00208366
0.0019067
0.0019376
0.00178831
0.0017462
0.00162238
0.00147088
0.00134705
0.00117085
0.000853225
0.00158737
0.00130632
0.00136736
0.00128805
0.00128554
0.00130519
0.00113037
0.00138189
0.0010508
0.00155851
0.00131693
0.0010017
0.0010639
0.000975849
0.000946196
0.000946226
0.000744146
0.000930108
0.000606441
0.00127172
0.00138265
0.00107445
0.00113251
0.0010463
0.00102002
0.00100378
0.00083967
0.000931676
0.000733806
0.0010756
0.00131288
0.000998412
0.00105353
0.000958114
0.000926545
0.000892987
0.000716371
0.000755367
0.000631418
0.000530079
0.00133927
0.00102148
0.00107423
0.00097632
0.000943874
0.000898457
0.00072856
0.000711125
0.000626475
0.000253658
0.00133309
0.00100975
0.00106317
0.000962085
0.000930774
0.00087081
0.000721493
0.0006779
0.000585147
0.00027877
0.00130936
0.000982253
0.00103994
0.000936896
0.000910318
0.000837772
0.000713963
0.000651162
0.000558653
0.000366222
0.00136453
0.00103205
0.00109234
0.000989647
0.000968758
0.000889037
0.000798338
0.000700029
0.000657205
0.000430395
0.00131318
0.00097348
0.00103951
0.000935722
0.000916341
0.0008336
0.000743495
0.000637984
0.000647816
0.000463093
0.00155419
0.00123324
0.00129498
0.00118862
0.0011769
0.00109976
0.0010171
0.000955307
0.000882831
0.000721612
9.37469e-05
0.00024561
0.000279173
0.000214048
0.000202259
0.000226371
9.31133e-05
0.00026349
4.99347e-05
0.000481271
0.000257746
0.000464951
0.000489845
0.000424307
0.000410854
0.000437289
0.000326121
0.00049893
0.000288801
0.000657813
0.00029221
0.000493504
0.000518402
0.000451797
0.000442814
0.000454198
0.000367451
0.000471429
0.000335334
0.000694699
0.000227676
0.000425163
0.000447952
0.000373453
0.000361238
0.00036181
0.000267859
0.000318942
0.000264091
0.000402653
0.000242656
0.000441566
0.000462714
0.000386585
0.000376896
0.000368613
0.000285293
0.000289148
0.000283363
0.000225528
0.000236689
0.000436352
0.000457693
0.000378508
0.000371436
0.000351751
0.000281985
0.000273517
0.000264999
0.000253775
0.000221348
0.00042329
0.000447255
0.000365439
0.000361924
0.000332913
0.000279296
0.000262647
0.000251631
0.00033748
0.000268396
0.000473264
0.000498262
0.000415552
0.000416889
0.000380756
0.000350677
0.000309708
0.000323912
0.000374841
0.000237517
0.000451199
0.000476495
0.000392742
0.000394852
0.00035567
0.000329035
0.00028521
0.000334226
0.000355824
7.78039e-05
0.000240522
0.000277
0.000195985
0.00020168
0.000164206
0.000126612
9.89728e-05
7.15445e-05
0.000150317
0.00717429
0.00747064
0.00742203
0.00776732
0.00825888
0.00865742
0.00899097
0.00967968
0.0103277
0.0101973
0.00748657
0.00715849
0.00663136
0.00677843
0.00736919
0.00794778
0.00836649
0.00944998
0.0107677
0.0107251
0.00760217
0.0066091
0.00604326
0.00679437
0.00807322
0.0090492
0.00944103
0.0104002
0.0127063
0.0138265
0.00750553
0.00628547
0.00655888
0.00870869
0.0109722
0.012112
0.0121242
0.0124226
0.0148039
0.0162481
0.00725191
0.00608097
0.00705806
0.0100761
0.0123025
0.0125271
0.0113692
0.0102686
0.0108454
0.0118402
0.00653233
0.00533648
0.00553591
0.00736137
0.00832571
0.00798984
0.00715165
0.00643153
0.00622452
0.00665786
0.00572815
0.00483631
0.00421742
0.00467066
0.00491648
0.00484442
0.00499066
0.00533752
0.00532642
0.00550087
0.00532252
0.0050047
0.0043717
0.00433658
0.00451834
0.004906
0.00568831
0.00654958
0.00676932
0.00667257
0.00538022
0.00560893
0.0054607
0.00561499
0.00586531
0.00633171
0.00716929
0.00814987
0.00838532
0.00778377
0.0055367
0.00611249
0.00630105
0.00670959
0.00706852
0.00750578
0.00827795
0.00939711
0.0096368
0.00850188
0.00775308
0.00714852
0.00654249
0.00657067
0.00681137
0.00687952
0.00675838
0.00708166
0.00771847
0.00799596
0.0067891
0.00558349
0.00432239
0.00429745
0.00478795
0.00535104
0.00592799
0.00683635
0.00796907
0.0083349
0.00511444
0.00372351
0.00323864
0.00394973
0.00512283
0.00631961
0.0070769
0.00776001
0.00908216
0.0104842
0.00402137
0.00316365
0.00346654
0.0051312
0.00704654
0.0084786
0.00889378
0.00875204
0.00948081
0.0111071
0.00321404
0.00273556
0.00335263
0.00551881
0.00739201
0.00812384
0.00762566
0.00625737
0.00545761
0.0061502
0.00265814
0.0021441
0.00222339
0.00344271
0.00421094
0.00430601
0.0040767
0.00331481
0.00276642
0.00320154
0.0026696
0.00189638
0.00153362
0.00200257
0.00246355
0.00286507
0.00309761
0.00280552
0.00250839
0.00306684
0.00339284
0.00245806
0.00164372
0.00169959
0.00199491
0.00250609
0.00307787
0.00325919
0.00331281
0.00424274
0.00466661
0.00390585
0.00289948
0.00257997
0.00269141
0.00322594
0.00410002
0.00482283
0.00531829
0.00600269
0.00566424
0.00527642
0.00483429
0.00484973
0.0051242
0.00576997
0.00681974
0.00800179
0.0083731
0.00748243
0.00635031
0.00570154
0.00462141
0.00416936
0.00419642
0.00440343
0.00460045
0.00491335
0.00520489
0.00535905
0.00474611
0.00363681
0.00251682
0.00244062
0.00281224
0.00346693
0.00418892
0.00485308
0.00542213
0.00575178
0.00259793
0.00187566
0.0017914
0.00224248
0.00299007
0.00404512
0.00496298
0.00556005
0.00605188
0.00702863
0.0015437
0.00147937
0.00176864
0.002767
0.00389556
0.0049855
0.00554026
0.00549698
0.00514909
0.00592456
0.00102428
0.00118664
0.00144563
0.00267033
0.00375831
0.00429716
0.00410045
0.00325158
0.00220479
0.00212739
0.000796614
0.000926892
0.000875822
0.00155103
0.00212947
0.00236133
0.00240648
0.00215445
0.00166648
0.00151576
0.000931685
0.000908009
0.000751492
0.00105426
0.00151259
0.00200094
0.00225761
0.002128
0.00182072
0.00179242
0.00160559
0.0012864
0.00088458
0.000954486
0.0012046
0.00157433
0.00182971
0.00180371
0.00181089
0.00236134
0.00294028
0.00238128
0.00153757
0.0013029
0.00137054
0.00165428
0.00196457
0.00217815
0.00263453
0.00348296
0.00409637
0.00369408
0.00308885
0.00287032
0.00292868
0.00332377
0.00398919
0.00478362
0.00536938
0.00504183
0.00425519
0.0039727
0.00293364
0.00233282
0.00224473
0.00247943
0.00282847
0.00311473
0.00320411
0.00325039
0.00292968
0.00211236
0.0013221
0.00128538
0.00148946
0.00196939
0.00253946
0.00299893
0.00312092
0.00335659
0.00140797
0.000941889
0.000915111
0.00123142
0.001629
0.00232922
0.0030712
0.00359727
0.00370786
0.00421888
0.000713921
0.00066423
0.000772409
0.00137428
0.00196563
0.00266111
0.00308621
0.00302749
0.00250814
0.00280657
0.000396587
0.000474345
0.000526348
0.00119216
0.00180631
0.0021716
0.00211442
0.001627
0.00104041
0.000902419
0.000285732
0.000385082
0.000302906
0.000626803
0.00109349
0.0013782
0.00150272
0.00138423
0.00111305
0.00100208
0.000362715
0.000429035
0.000330622
0.000464257
0.000813574
0.00122371
0.00145149
0.00140962
0.00122796
0.00115765
0.000752683
0.000671809
0.000421315
0.000459875
0.000628675
0.000889184
0.00106769
0.00108027
0.00111444
0.00135248
0.00158091
0.0013744
0.000816968
0.000674043
0.000732418
0.000937105
0.00113436
0.00124016
0.00135498
0.00185461
0.00239314
0.00235658
0.00195786
0.00172292
0.00163709
0.00180067
0.00210926
0.00250382
0.00294613
0.00287242
0.00296475
0.00280459
0.00190721
0.00131206
0.00113413
0.00124643
0.00147169
0.00163311
0.00168611
0.00179054
0.00206362
0.00122263
0.000491236
0.000505195
0.000636206
0.000933054
0.00126458
0.00148056
0.00137979
0.00160031
0.000981539
0.000464513
0.000351681
0.000592933
0.000795736
0.00118044
0.0016465
0.00201785
0.00198489
0.0022404
0.000405021
0.000290782
0.000240616
0.000603126
0.000897377
0.0012981
0.0015803
0.00154896
0.00112767
0.00135804
0.000175297
0.000210715
0.00015877
0.000506364
0.000843241
0.0011169
0.00116929
0.0009369
0.000641971
0.000624179
0.000104943
0.000183201
9.80879e-05
0.000220833
0.000543214
0.000809128
0.000945607
0.000897452
0.000734727
0.000743916
0.000132686
0.000208133
0.000111734
0.000151116
0.000371261
0.000668796
0.000861395
0.000881575
0.000781544
0.000783978
0.000421034
0.00036081
0.000140336
0.000168134
0.000292153
0.000492221
0.000648651
0.00070601
0.000728826
0.000836193
0.00100056
0.000880123
0.000404206
0.000238315
0.000297696
0.000468273
0.000620053
0.000736331
0.000830243
0.00109822
0.0015258
0.00161942
0.00133019
0.00109613
0.000910486
0.000956385
0.00111529
0.00135979
0.00169926
0.00171222
0.00224161
0.0020925
0.0013079
0.000766061
0.000514623
0.000503289
0.000567519
0.000615615
0.000727449
0.000937969
0.00162322
0.00077407
1.26193e-05
1.30413e-05
0.000124855
0.000279504
0.000377772
0.00035794
0.000250295
0.000633936
0.000735512
0.00023475
2.94547e-05
0.000181425
0.000293935
0.000482422
0.000705707
0.000897394
0.000812143
0.00104452
0.000207792
0.000151718
6.87615e-06
0.000201235
0.000336484
0.000552554
0.000728472
0.000761514
0.000544317
0.000767329
6.5847e-05
0.000137488
3.89466e-05
0.000212295
0.000378656
0.000592817
0.000701116
0.000617507
0.000480689
0.000540977
4.42894e-05
0.000127085
2.79327e-05
6.48557e-05
0.000251728
0.000459294
0.000580647
0.000580699
0.000507499
0.000579123
5.82907e-05
0.000144107
9.23555e-06
1.28182e-05
0.000143841
0.000351679
0.000512143
0.000559727
0.000508356
0.000562651
0.000333258
0.000271031
1.72897e-05
1.26274e-06
0.000104668
0.000274097
0.000418515
0.000493553
0.000485546
0.000577514
0.000845771
0.000721554
0.000225359
-1.89969e-06
6.14409e-05
0.000201039
0.000309816
0.000398525
0.00052772
0.00071038
0.00113737
0.00122718
0.000948949
0.000723779
0.000506231
0.000496301
0.000602187
0.000782676
0.00103957
0.00109728
0.00166299
0.0015633
0.000937159
0.000501002
0.000238218
0.000152978
0.000125135
0.000133062
0.000309784
0.000541433
0.00127305
0.000585553
-0.000113065
-0.000167125
-0.000122736
-9.08235e-05
-0.000142166
-0.000259548
-0.000235287
0.000299792
0.000606274
0.000211639
-3.76881e-05
1.02284e-05
4.29391e-05
9.96674e-05
0.00015419
0.000221302
0.000138044
0.000450641
0.000177927
0.000173461
-1.92847e-05
5.24026e-05
8.06092e-05
0.000178833
0.000281893
0.00036459
0.000319155
0.000522257
8.24684e-05
0.000170156
4.33185e-05
0.000112955
0.00015546
0.000312769
0.000444702
0.000443087
0.000385734
0.000456288
7.99159e-05
0.000160052
3.22023e-05
4.06949e-05
0.0001096
0.000243062
0.000344494
0.000384552
0.000376502
0.000449373
0.000104355
0.000179968
-4.00618e-06
-1.62098e-05
4.68247e-05
0.000179208
0.000299888
0.000358558
0.000342253
0.000414493
0.000356771
0.000294307
8.75382e-06
-4.34916e-05
1.401e-05
0.00012716
0.000231127
0.000311652
0.000306055
0.00040819
0.000785487
0.000675912
0.000178817
-7.72646e-05
-2.89939e-05
4.41735e-05
0.000110944
0.000163883
0.000283581
0.000444909
0.000850173
0.000946995
0.000693438
0.000508583
0.000313807
0.000255019
0.000326287
0.000462212
0.000618627
0.000684756
0.00112766
0.00111938
0.000686257
0.000392491
0.000189152
9.07283e-05
2.43539e-05
1.80775e-05
0.000188057
0.000354209
0.000957069
0.000511341
-1.10865e-05
-0.00010191
-0.000146109
-0.000201976
-0.000302832
-0.000392664
-0.000258355
0.000238803
0.000568651
0.000302435