/*--------------------------------*- C++ -*----------------------------------*\
  =========                 |
  \\      /  F ield         | OpenFOAM: The Open Source CFD Toolbox
   \\    /   O peration     | Website:  https://openfoam.org
    \\  /    A nd           | Version:  6
     \\/     M anipulation  |
\*---------------------------------------------------------------------------*/
FoamFile
{
    version     2.0;
    format      ascii;
    class       volScalarField;
    location    "0.04";
    object      T;
}
// * * * * * * * * * * * * * * * * * * * * * * * * * * * * * * * * * * * * * //

dimensions      [0 0 0 1 0 0 0];

internalField   nonuniform List<scalar> 
7000
(
94.2072
94.2068
94.2067
94.2066
94.2065
94.2065
94.2066
94.2066
94.2068
94.2069
94.2068
94.2065
94.2063
94.2062
94.2062
94.2062
94.2062
94.2063
94.2064
94.2066
94.2067
94.2063
94.2061
94.2061
94.206
94.206
94.2061
94.2061
94.2063
94.2065
94.2066
94.2062
94.2061
94.206
94.2059
94.2059
94.206
94.2061
94.2062
94.2064
94.2065
94.2062
94.206
94.2059
94.2059
94.2059
94.2059
94.206
94.2062
94.2064
94.2065
94.2062
94.206
94.2059
94.2059
94.2059
94.206
94.206
94.2062
94.2064
94.2066
94.2062
94.2061
94.206
94.2059
94.206
94.206
94.2061
94.2062
94.2064
94.2066
94.2063
94.2061
94.2061
94.206
94.206
94.2061
94.2062
94.2063
94.2065
94.2068
94.2064
94.2063
94.2062
94.2062
94.2062
94.2062
94.2063
94.2065
94.2067
94.2069
94.2066
94.2065
94.2064
94.2064
94.2064
94.2064
94.2065
94.2067
94.2069
64.6752
64.6745
64.674
64.6738
64.6737
64.6737
64.6738
64.674
64.6743
64.6747
64.6745
64.6737
64.6733
64.6731
64.673
64.673
64.6731
64.6733
64.6737
64.6742
64.674
64.6733
64.6729
64.6727
64.6726
64.6726
64.6727
64.6729
64.6733
64.6739
64.6738
64.6731
64.6727
64.6724
64.6723
64.6724
64.6725
64.6727
64.6731
64.6737
64.6737
64.673
64.6726
64.6723
64.6723
64.6723
64.6724
64.6726
64.6731
64.6736
64.6737
64.673
64.6726
64.6724
64.6723
64.6723
64.6724
64.6727
64.6731
64.6737
64.6738
64.6731
64.6727
64.6725
64.6724
64.6724
64.6725
64.6728
64.6732
64.6738
64.674
64.6733
64.6729
64.6727
64.6726
64.6727
64.6728
64.673
64.6735
64.674
64.6743
64.6737
64.6733
64.6731
64.6731
64.6731
64.6732
64.6735
64.6739
64.6745
64.6747
64.6742
64.6739
64.6737
64.6736
64.6737
64.6738
64.674
64.6745
64.675
40.4981
40.4973
40.4968
40.4965
40.4964
40.4964
40.4965
40.4968
40.4972
40.4978
40.4973
40.4964
40.4959
40.4957
40.4956
40.4956
40.4957
40.496
40.4965
40.4973
40.4968
40.4959
40.4954
40.4952
40.4951
40.4951
40.4952
40.4956
40.4961
40.4969
40.4965
40.4957
40.4952
40.4949
40.4948
40.4948
40.495
40.4953
40.4959
40.4967
40.4964
40.4956
40.4951
40.4948
40.4947
40.4947
40.4949
40.4952
40.4958
40.4966
40.4964
40.4956
40.4951
40.4948
40.4947
40.4948
40.4949
40.4953
40.4958
40.4967
40.4965
40.4957
40.4952
40.495
40.4949
40.4949
40.4951
40.4954
40.496
40.4969
40.4968
40.496
40.4956
40.4953
40.4952
40.4953
40.4954
40.4958
40.4964
40.4972
40.4972
40.4965
40.4961
40.4959
40.4958
40.4958
40.496
40.4964
40.4969
40.4978
40.4978
40.4973
40.4969
40.4967
40.4966
40.4967
40.4969
40.4972
40.4978
40.4986
23.0904
23.0897
23.0893
23.089
23.0889
23.089
23.0891
23.0894
23.0898
23.0904
23.0897
23.089
23.0886
23.0883
23.0882
23.0882
23.0884
23.0887
23.0892
23.09
23.0893
23.0886
23.0881
23.0879
23.0878
23.0878
23.088
23.0883
23.0888
23.0897
23.089
23.0883
23.0879
23.0876
23.0876
23.0876
23.0877
23.0881
23.0887
23.0895
23.0889
23.0882
23.0878
23.0876
23.0875
23.0875
23.0877
23.088
23.0886
23.0895
23.089
23.0882
23.0878
23.0876
23.0875
23.0875
23.0877
23.0881
23.0886
23.0895
23.0891
23.0884
23.088
23.0877
23.0877
23.0877
23.0879
23.0882
23.0888
23.0897
23.0894
23.0887
23.0883
23.0881
23.088
23.0881
23.0882
23.0886
23.0892
23.09
23.0898
23.0892
23.0888
23.0887
23.0886
23.0886
23.0888
23.0892
23.0897
23.0906
23.0904
23.09
23.0897
23.0895
23.0895
23.0895
23.0897
23.09
23.0906
23.0915
11.9973
11.9968
11.9965
11.9963
11.9963
11.9963
11.9964
11.9966
11.997
11.9976
11.9968
11.9963
11.996
11.9958
11.9958
11.9958
11.9959
11.9962
11.9966
11.9973
11.9965
11.996
11.9957
11.9955
11.9955
11.9955
11.9956
11.9959
11.9963
11.9971
11.9963
11.9958
11.9955
11.9954
11.9953
11.9953
11.9955
11.9957
11.9962
11.9969
11.9963
11.9958
11.9955
11.9953
11.9952
11.9953
11.9954
11.9957
11.9962
11.9969
11.9963
11.9958
11.9955
11.9953
11.9953
11.9953
11.9954
11.9957
11.9962
11.9969
11.9964
11.9959
11.9956
11.9955
11.9954
11.9954
11.9956
11.9959
11.9963
11.9971
11.9966
11.9962
11.9959
11.9957
11.9957
11.9957
11.9959
11.9961
11.9966
11.9974
11.997
11.9966
11.9963
11.9962
11.9962
11.9962
11.9963
11.9966
11.9971
11.9979
11.9976
11.9973
11.9971
11.9969
11.9969
11.9969
11.9971
11.9974
11.9979
11.9986
5.69494
5.69462
5.69443
5.69432
5.69429
5.6943
5.69438
5.69455
5.69483
5.69522
5.69462
5.69431
5.69412
5.69401
5.69398
5.694
5.69408
5.69426
5.69456
5.69504
5.69443
5.69412
5.69393
5.69382
5.69378
5.69381
5.6939
5.69408
5.69441
5.69492
5.69432
5.69401
5.69382
5.69372
5.69368
5.69371
5.6938
5.69399
5.69433
5.69484
5.69429
5.69398
5.69378
5.69368
5.69365
5.69367
5.69377
5.69396
5.6943
5.69482
5.6943
5.694
5.69381
5.69371
5.69367
5.6937
5.69379
5.69399
5.69433
5.69486
5.69439
5.69408
5.6939
5.6938
5.69377
5.6938
5.69389
5.69409
5.69443
5.69496
5.69455
5.69426
5.69408
5.69399
5.69396
5.69399
5.69409
5.69429
5.69463
5.69516
5.69483
5.69457
5.69441
5.69433
5.6943
5.69433
5.69443
5.69463
5.69498
5.6955
5.69523
5.69505
5.69492
5.69485
5.69483
5.69486
5.69496
5.69516
5.6955
5.69603
2.47844
2.47827
2.47817
2.47811
2.47809
2.4781
2.47815
2.47825
2.47842
2.47866
2.47827
2.4781
2.478
2.47794
2.47792
2.47794
2.47799
2.47809
2.47828
2.47856
2.47817
2.478
2.4779
2.47784
2.47782
2.47784
2.47789
2.478
2.47819
2.4785
2.47811
2.47794
2.47784
2.47779
2.47777
2.47778
2.47784
2.47795
2.47815
2.47846
2.47809
2.47792
2.47782
2.47777
2.47775
2.47777
2.47782
2.47794
2.47814
2.47845
2.4781
2.47794
2.47784
2.47778
2.47777
2.47778
2.47784
2.47796
2.47816
2.47847
2.47815
2.47799
2.47789
2.47784
2.47782
2.47784
2.4779
2.47802
2.47822
2.47853
2.47826
2.4781
2.47801
2.47796
2.47794
2.47796
2.47802
2.47814
2.47834
2.47865
2.47843
2.47829
2.47821
2.47816
2.47815
2.47817
2.47823
2.47835
2.47855
2.47886
2.47868
2.47859
2.47852
2.47848
2.47847
2.47849
2.47855
2.47867
2.47887
2.47919
0.992909
0.992828
0.992778
0.992751
0.992742
0.992748
0.992771
0.992814
0.992878
0.992972
0.992828
0.992748
0.992698
0.992671
0.992662
0.992669
0.992693
0.992739
0.992811
0.992929
0.992778
0.992698
0.992648
0.992622
0.992613
0.99262
0.992646
0.992694
0.992771
0.992897
0.992751
0.992671
0.992622
0.992595
0.992587
0.992595
0.992621
0.992671
0.992751
0.99288
0.992742
0.992663
0.992613
0.992587
0.992579
0.992587
0.992614
0.992665
0.992746
0.992876
0.99275
0.992671
0.992622
0.992596
0.992589
0.992597
0.992624
0.992676
0.992757
0.992888
0.992778
0.9927
0.992652
0.992627
0.99262
0.992629
0.992657
0.992708
0.99279
0.992921
0.992834
0.992759
0.992714
0.992691
0.992684
0.992694
0.992721
0.992773
0.992855
0.992986
0.992928
0.99286
0.992821
0.9928
0.992795
0.992805
0.992833
0.992885
0.992967
0.993098
0.993064
0.993021
0.992989
0.992971
0.992967
0.992977
0.993006
0.993058
0.99314
0.993273
0.367717
0.367682
0.36766
0.367649
0.367644
0.367644
0.367644
0.367626
0.36755
0.367404
0.367682
0.367647
0.367626
0.367614
0.36761
0.36761
0.36761
0.367593
0.367521
0.367386
0.36766
0.367626
0.367604
0.367593
0.367588
0.367589
0.36759
0.367574
0.367504
0.367372
0.367649
0.367614
0.367593
0.367581
0.367577
0.367578
0.367579
0.367564
0.367496
0.367365
0.367645
0.367611
0.367589
0.367578
0.367574
0.367575
0.367576
0.367562
0.367494
0.367364
0.367649
0.367615
0.367594
0.367583
0.367579
0.36758
0.367582
0.367567
0.367499
0.36737
0.367663
0.367629
0.367609
0.367598
0.367594
0.367596
0.367597
0.367583
0.367515
0.367385
0.36769
0.367657
0.367638
0.367628
0.367625
0.367626
0.367628
0.367614
0.367546
0.367417
0.367736
0.367707
0.36769
0.367681
0.367678
0.36768
0.367682
0.367668
0.3676
0.367471
0.367802
0.367784
0.36777
0.367763
0.367761
0.367763
0.367765
0.36775
0.367683
0.367554
0.126418
0.126404
0.126395
0.12639
0.126387
0.126381
0.126353
0.126234
0.125822
0.124782
0.126404
0.12639
0.126382
0.126377
0.126374
0.126367
0.126339
0.126222
0.125811
0.124775
0.126395
0.126382
0.126373
0.126368
0.126365
0.126359
0.126331
0.126214
0.125804
0.12477
0.126391
0.126377
0.126369
0.126364
0.126361
0.126355
0.126327
0.12621
0.125801
0.124767
0.12639
0.126376
0.126368
0.126363
0.12636
0.126354
0.126326
0.12621
0.1258
0.124767
0.126391
0.126378
0.12637
0.126365
0.126362
0.126356
0.126329
0.126212
0.125803
0.12477
0.126397
0.126384
0.126376
0.126371
0.126369
0.126363
0.126335
0.126219
0.125809
0.124776
0.126409
0.126397
0.126389
0.126385
0.126382
0.126376
0.126349
0.126232
0.125823
0.12479
0.126429
0.126418
0.126411
0.126407
0.126405
0.126399
0.126372
0.126256
0.125846
0.124813
0.126459
0.126452
0.126446
0.126443
0.126441
0.126435
0.126408
0.126291
0.125882
0.124848
0.0405081
0.0405031
0.0404999
0.0404977
0.0404946
0.0404828
0.0404267
0.0401668
0.0389869
0.0336237
0.0405031
0.0404981
0.040495
0.0404928
0.0404898
0.0404779
0.040422
0.0401623
0.0389831
0.0336214
0.0405
0.0404951
0.0404919
0.0404898
0.0404867
0.040475
0.0404191
0.0401596
0.0389808
0.0336199
0.0404984
0.0404935
0.0404903
0.0404882
0.0404852
0.0404734
0.0404176
0.0401582
0.0389797
0.0336191
0.040498
0.0404931
0.0404899
0.0404878
0.0404848
0.0404731
0.0404173
0.040158
0.0389796
0.033619
0.0404988
0.0404939
0.0404908
0.0404887
0.0404857
0.040474
0.0404183
0.040159
0.0389805
0.0336198
0.0405011
0.0404963
0.0404933
0.0404913
0.0404884
0.0404767
0.040421
0.0401617
0.0389831
0.0336221
0.0405059
0.0405013
0.0404984
0.0404965
0.0404936
0.040482
0.0404263
0.0401669
0.0389882
0.0336264
0.0405138
0.0405097
0.0405073
0.0405055
0.0405027
0.0404911
0.0404354
0.040176
0.038997
0.033634
0.0405256
0.0405231
0.0405211
0.0405196
0.0405169
0.0405053
0.0404495
0.0401901
0.0390108
0.0336462
0.0121442
0.0121425
0.0121414
0.0121404
0.0121381
0.0121286
0.0120868
0.0119148
0.0112636
0.00908295
0.0121425
0.0121409
0.0121398
0.0121388
0.0121365
0.0121269
0.0120852
0.0119133
0.0112624
0.00908224
0.0121415
0.0121399
0.0121388
0.0121378
0.0121355
0.012126
0.0120842
0.0119125
0.0112617
0.00908176
0.012141
0.0121393
0.0121382
0.0121373
0.012135
0.0121254
0.0120837
0.011912
0.0112613
0.00908152
0.0121409
0.0121392
0.0121381
0.0121371
0.0121349
0.0121254
0.0120837
0.011912
0.0112613
0.00908151
0.0121412
0.0121395
0.0121384
0.0121375
0.0121352
0.0121257
0.012084
0.0119123
0.0112617
0.00908179
0.012142
0.0121404
0.0121394
0.0121384
0.0121362
0.0121267
0.012085
0.0119133
0.0112626
0.00908252
0.0121438
0.0121422
0.0121412
0.0121403
0.0121381
0.0121286
0.0120869
0.0119152
0.0112643
0.00908395
0.0121467
0.0121453
0.0121444
0.0121436
0.0121414
0.0121319
0.0120902
0.0119184
0.0112674
0.00908645
0.012151
0.0121502
0.0121495
0.0121487
0.0121465
0.012137
0.0120953
0.0119235
0.0112722
0.00909047
0.00341853
0.003418
0.00341763
0.00341719
0.00341592
0.00341073
0.00338997
0.00331389
0.00306671
0.00239712
0.00341801
0.00341749
0.00341712
0.00341668
0.00341541
0.00341023
0.00338949
0.00331344
0.00306636
0.0023969
0.00341769
0.00341717
0.0034168
0.00341637
0.0034151
0.00340992
0.00338919
0.00331318
0.00306614
0.00239676
0.00341753
0.00341701
0.00341664
0.00341621
0.00341494
0.00340977
0.00338905
0.00331304
0.00306603
0.00239669
0.0034175
0.00341698
0.00341661
0.00341618
0.00341492
0.00340974
0.00338903
0.00331303
0.00306603
0.00239669
0.0034176
0.00341709
0.00341672
0.0034163
0.00341503
0.00340986
0.00338915
0.00331315
0.00306614
0.00239678
0.0034179
0.00341739
0.00341704
0.00341662
0.00341536
0.00341019
0.00338947
0.00331347
0.00306643
0.00239702
0.00341848
0.003418
0.00341766
0.00341725
0.003416
0.00341083
0.00339011
0.0033141
0.00306701
0.00239747
0.00341947
0.00341904
0.00341874
0.00341835
0.00341711
0.00341194
0.00339122
0.00331518
0.00306801
0.00239826
0.00342093
0.00342067
0.00342043
0.00342006
0.00341882
0.00341366
0.00339293
0.00331685
0.00306958
0.00239953
0.000906544
0.00090639
0.00090627
0.000906093
0.000905529
0.000903331
0.00089521
0.000868229
0.00079059
0.000609682
0.000906395
0.000906242
0.000906123
0.000905947
0.000905383
0.000903187
0.000895072
0.000868102
0.000790489
0.000609619
0.000906303
0.000906151
0.000906032
0.000905856
0.000905293
0.000903098
0.000894987
0.000868026
0.000790427
0.000609579
0.000906256
0.000906104
0.000905985
0.00090581
0.000905247
0.000903054
0.000894945
0.000867989
0.000790398
0.00060956
0.000906248
0.000906096
0.000905978
0.000905804
0.000905241
0.000903049
0.000894941
0.000867987
0.000790398
0.000609561
0.000906283
0.000906132
0.000906015
0.000905841
0.00090528
0.000903088
0.00089498
0.000868025
0.000790433
0.000609589
0.000906376
0.000906227
0.000906113
0.000905942
0.000905381
0.000903189
0.000895082
0.000868123
0.000790523
0.000609659
0.000906559
0.000906416
0.000906307
0.00090614
0.000905581
0.00090339
0.00089528
0.000868316
0.000790698
0.000609796
0.000906868
0.000906742
0.000906644
0.000906481
0.000905925
0.000903734
0.000895622
0.000868648
0.000791001
0.000610034
0.000907327
0.000907252
0.00090717
0.000907014
0.000906459
0.000904268
0.000896152
0.000869164
0.000791477
0.000610413
0.00022717
0.000227127
0.00022709
0.000227027
0.000226815
0.000226033
0.000223335
0.000215079
0.000193507
0.0001485
0.000227129
0.000227087
0.000227051
0.000226987
0.000226776
0.000225994
0.000223298
0.000215045
0.00019348
0.000148483
0.000227104
0.000227062
0.000227026
0.000226962
0.000226751
0.00022597
0.000223275
0.000215025
0.000193464
0.000148472
0.000227092
0.00022705
0.000227013
0.00022695
0.000226739
0.000225958
0.000223264
0.000215015
0.000193456
0.000148467
0.00022709
0.000227048
0.000227012
0.000226949
0.000226738
0.000225957
0.000223263
0.000215015
0.000193457
0.000148468
0.0002271
0.000227059
0.000227023
0.00022696
0.00022675
0.000225969
0.000223275
0.000215026
0.000193467
0.000148476
0.000227128
0.000227087
0.000227052
0.000226989
0.000226779
0.000225998
0.000223304
0.000215055
0.000193492
0.000148496
0.000227181
0.000227142
0.000227108
0.000227047
0.000226837
0.000226057
0.000223362
0.00021511
0.000193542
0.000148535
0.000227272
0.000227237
0.000227206
0.000227146
0.000226938
0.000226157
0.000223461
0.000215206
0.000193629
0.000148602
0.000227406
0.000227385
0.000227359
0.000227301
0.000227093
0.000226312
0.000223614
0.000215354
0.000193764
0.00014871
5.39453e-05
5.39341e-05
5.39236e-05
5.39029e-05
5.38338e-05
5.35896e-05
5.27973e-05
5.05339e-05
4.50619e-05
3.45568e-05
5.3935e-05
5.39239e-05
5.39134e-05
5.38927e-05
5.38237e-05
5.35797e-05
5.27878e-05
5.05254e-05
4.50552e-05
3.45525e-05
5.39286e-05
5.39175e-05
5.39071e-05
5.38864e-05
5.38175e-05
5.35736e-05
5.27821e-05
5.05203e-05
4.50511e-05
3.45497e-05
5.39254e-05
5.39144e-05
5.3904e-05
5.38833e-05
5.38144e-05
5.35706e-05
5.27793e-05
5.05179e-05
4.50492e-05
3.45485e-05
5.39251e-05
5.39141e-05
5.39037e-05
5.38831e-05
5.38142e-05
5.35705e-05
5.27792e-05
5.05179e-05
4.50494e-05
3.45487e-05
5.3928e-05
5.3917e-05
5.39067e-05
5.38862e-05
5.38174e-05
5.35737e-05
5.27824e-05
5.0521e-05
4.50522e-05
3.4551e-05
5.39356e-05
5.39248e-05
5.39147e-05
5.38943e-05
5.38255e-05
5.35818e-05
5.27905e-05
5.05287e-05
4.50591e-05
3.45563e-05
5.39502e-05
5.39399e-05
5.39302e-05
5.391e-05
5.38414e-05
5.35977e-05
5.28061e-05
5.05437e-05
4.50725e-05
3.45668e-05
5.3975e-05
5.39659e-05
5.39569e-05
5.39372e-05
5.38687e-05
5.3625e-05
5.2833e-05
5.05695e-05
4.50956e-05
3.45849e-05
5.40121e-05
5.40065e-05
5.39987e-05
5.39794e-05
5.3911e-05
5.36672e-05
5.28747e-05
5.06096e-05
4.51318e-05
3.46135e-05
1.21712e-05
1.21684e-05
1.21656e-05
1.21595e-05
1.21392e-05
1.20708e-05
1.18599e-05
1.12917e-05
1.00022e-05
7.68035e-06
1.21687e-05
1.2166e-05
1.21631e-05
1.2157e-05
1.21368e-05
1.20684e-05
1.18577e-05
1.12896e-05
1.00006e-05
7.67929e-06
1.21672e-05
1.21644e-05
1.21616e-05
1.21555e-05
1.21353e-05
1.20669e-05
1.18563e-05
1.12884e-05
9.9996e-06
7.67864e-06
1.21664e-05
1.21637e-05
1.21609e-05
1.21548e-05
1.21346e-05
1.20662e-05
1.18556e-05
1.12878e-05
9.99916e-06
7.67835e-06
1.21664e-05
1.21636e-05
1.21608e-05
1.21547e-05
1.21346e-05
1.20662e-05
1.18556e-05
1.12879e-05
9.99922e-06
7.67843e-06
1.21671e-05
1.21644e-05
1.21616e-05
1.21556e-05
1.21354e-05
1.2067e-05
1.18565e-05
1.12887e-05
9.99995e-06
7.679e-06
1.21691e-05
1.21664e-05
1.21637e-05
1.21576e-05
1.21375e-05
1.20691e-05
1.18585e-05
1.12907e-05
1.00017e-05
7.68037e-06
1.21729e-05
1.21703e-05
1.21677e-05
1.21617e-05
1.21416e-05
1.20732e-05
1.18625e-05
1.12945e-05
1.00051e-05
7.68302e-06
1.21793e-05
1.2177e-05
1.21745e-05
1.21687e-05
1.21486e-05
1.20802e-05
1.18694e-05
1.13011e-05
1.0011e-05
7.68763e-06
1.21889e-05
1.21875e-05
1.21853e-05
1.21795e-05
1.21594e-05
1.2091e-05
1.18801e-05
1.13112e-05
1.00201e-05
7.69485e-06
2.61541e-06
2.61475e-06
2.61403e-06
2.61237e-06
2.60697e-06
2.58942e-06
2.53775e-06
2.40526e-06
2.11993e-06
1.63145e-06
2.61484e-06
2.61419e-06
2.61346e-06
2.61181e-06
2.60642e-06
2.58887e-06
2.53724e-06
2.4048e-06
2.11957e-06
1.63121e-06
2.61449e-06
2.61384e-06
2.61312e-06
2.61146e-06
2.60608e-06
2.58854e-06
2.53693e-06
2.40453e-06
2.11935e-06
1.63106e-06
2.61432e-06
2.61367e-06
2.61295e-06
2.6113e-06
2.60591e-06
2.58838e-06
2.53678e-06
2.4044e-06
2.11925e-06
1.631e-06
2.61431e-06
2.61367e-06
2.61295e-06
2.6113e-06
2.60592e-06
2.58839e-06
2.53679e-06
2.40441e-06
2.11928e-06
1.63102e-06
2.6145e-06
2.61386e-06
2.61315e-06
2.6115e-06
2.60612e-06
2.58859e-06
2.53699e-06
2.40461e-06
2.11945e-06
1.63116e-06
2.61498e-06
2.61435e-06
2.61365e-06
2.61201e-06
2.60663e-06
2.5891e-06
2.53749e-06
2.40509e-06
2.11987e-06
1.63149e-06
2.61591e-06
2.6153e-06
2.61462e-06
2.61299e-06
2.60762e-06
2.59009e-06
2.53846e-06
2.40601e-06
2.12069e-06
1.63213e-06
2.61747e-06
2.61693e-06
2.61629e-06
2.61469e-06
2.60933e-06
2.59179e-06
2.54013e-06
2.40759e-06
2.12209e-06
1.63324e-06
2.61981e-06
2.61947e-06
2.6189e-06
2.61732e-06
2.61196e-06
2.59441e-06
2.5427e-06
2.41004e-06
2.12428e-06
1.63497e-06
5.36464e-07
5.36317e-07
5.36142e-07
5.35727e-07
5.344e-07
5.30231e-07
5.18445e-07
4.89487e-07
4.29819e-07
3.31832e-07
5.3634e-07
5.36194e-07
5.3602e-07
5.35605e-07
5.34279e-07
5.30113e-07
5.18334e-07
4.89389e-07
4.29741e-07
3.31779e-07
5.36264e-07
5.36119e-07
5.35945e-07
5.3553e-07
5.34205e-07
5.30042e-07
5.18267e-07
4.89329e-07
4.29694e-07
3.31747e-07
5.36227e-07
5.36082e-07
5.35909e-07
5.35495e-07
5.3417e-07
5.30008e-07
5.18235e-07
4.89302e-07
4.29673e-07
3.31733e-07
5.36227e-07
5.36083e-07
5.3591e-07
5.35496e-07
5.34172e-07
5.3001e-07
5.18239e-07
4.89307e-07
4.29679e-07
3.31739e-07
5.36272e-07
5.36128e-07
5.35956e-07
5.35544e-07
5.3422e-07
5.30058e-07
5.18286e-07
4.89352e-07
4.29719e-07
3.31771e-07
5.36383e-07
5.36241e-07
5.36072e-07
5.35661e-07
5.34338e-07
5.30176e-07
5.18402e-07
4.89461e-07
4.29815e-07
3.31847e-07
5.36597e-07
5.36461e-07
5.36296e-07
5.35888e-07
5.34567e-07
5.30403e-07
5.18624e-07
4.89672e-07
4.30002e-07
3.31993e-07
5.36958e-07
5.36836e-07
5.36681e-07
5.36278e-07
5.34958e-07
5.30793e-07
5.19006e-07
4.90033e-07
4.30322e-07
3.32246e-07
5.37499e-07
5.37422e-07
5.37281e-07
5.36883e-07
5.35564e-07
5.31395e-07
5.19596e-07
4.90593e-07
4.30819e-07
3.32639e-07
1.05253e-07
1.05221e-07
1.05182e-07
1.05085e-07
1.04781e-07
1.03856e-07
1.01335e-07
9.53747e-08
8.3623e-08
6.55351e-08
1.05227e-07
1.05196e-07
1.05156e-07
1.05059e-07
1.04756e-07
1.03832e-07
1.01312e-07
9.53546e-08
8.3607e-08
6.55239e-08
1.05211e-07
1.0518e-07
1.05141e-07
1.05044e-07
1.04741e-07
1.03817e-07
1.01298e-07
9.53424e-08
8.35973e-08
6.55172e-08
1.05204e-07
1.05173e-07
1.05133e-07
1.05037e-07
1.04733e-07
1.0381e-07
1.01291e-07
9.53369e-08
8.35931e-08
6.55144e-08
1.05204e-07
1.05173e-07
1.05134e-07
1.05037e-07
1.04734e-07
1.03811e-07
1.01293e-07
9.53382e-08
8.35945e-08
6.55158e-08
1.05214e-07
1.05183e-07
1.05144e-07
1.05048e-07
1.04745e-07
1.03822e-07
1.01303e-07
9.53482e-08
8.36034e-08
6.5523e-08
1.05239e-07
1.05208e-07
1.0517e-07
1.05074e-07
1.04771e-07
1.03848e-07
1.01328e-07
9.5372e-08
8.36244e-08
6.55398e-08
1.05286e-07
1.05256e-07
1.05219e-07
1.05123e-07
1.04821e-07
1.03897e-07
1.01377e-07
9.54178e-08
8.36649e-08
6.55722e-08
1.05365e-07
1.05339e-07
1.05303e-07
1.05209e-07
1.04906e-07
1.03982e-07
1.0146e-07
9.54963e-08
8.37344e-08
6.56278e-08
1.05484e-07
1.05467e-07
1.05434e-07
1.05341e-07
1.05039e-07
1.04114e-07
1.01588e-07
9.56179e-08
8.38422e-08
6.57142e-08
0.00857643
0.00213373
0.000514568
0.00012363
4.82972e-05
0.000107136
0.000456084
0.00196119
0.00814446
0.0327378
0.00857581
0.00213356
0.000514521
0.000123614
4.82785e-05
0.000107072
0.000455843
0.00196033
0.00814155
0.0327286
0.0085754
0.00213345
0.000514493
0.000123605
4.82688e-05
0.00010704
0.000455727
0.00195992
0.00814022
0.0327246
0.00857518
0.0021334
0.00051448
0.000123601
4.82646e-05
0.000107027
0.000455677
0.00195975
0.00813966
0.0327228
0.00857518
0.0021334
0.000514482
0.000123602
4.82639e-05
0.000107023
0.000455664
0.0019597
0.00813952
0.0327223
0.00857545
0.00213348
0.000514506
0.000123609
4.82663e-05
0.000107027
0.000455678
0.00195976
0.00813973
0.032723
0.00857613
0.00213368
0.000514563
0.000123625
4.82727e-05
0.000107038
0.00045572
0.00195992
0.00814034
0.0327252
0.00857746
0.00213408
0.000514674
0.000123655
4.82843e-05
0.000107058
0.000455795
0.00196022
0.00814146
0.0327293
0.00857976
0.00213475
0.000514863
0.000123707
4.83024e-05
0.000107084
0.000455897
0.00196064
0.0081431
0.0327355
0.00858331
0.00213577
0.000515145
0.000123783
4.83263e-05
0.00010711
0.000455992
0.00196104
0.00814475
0.0327423
0.00346484
0.00106826
0.000293888
7.7392e-05
3.25943e-05
7.09989e-05
0.000283862
0.00111874
0.00407462
0.0132175
0.00346457
0.00106818
0.000293861
7.73821e-05
3.25817e-05
7.09572e-05
0.000283715
0.00111826
0.00407319
0.0132139
0.00346439
0.00106812
0.000293845
7.73764e-05
3.25751e-05
7.09358e-05
0.00028364
0.00111802
0.00407248
0.0132121
0.0034643
0.00106809
0.000293837
7.73739e-05
3.25721e-05
7.09262e-05
0.000283607
0.00111791
0.00407217
0.0132112
0.0034643
0.00106809
0.000293839
7.73744e-05
3.25716e-05
7.09237e-05
0.000283599
0.00111788
0.00407209
0.013211
0.00346443
0.00106814
0.000293854
7.73789e-05
3.25733e-05
7.09264e-05
0.000283608
0.00111792
0.00407221
0.0132114
0.00346475
0.00106825
0.00029389
7.73897e-05
3.25779e-05
7.09342e-05
0.000283636
0.00111802
0.00407255
0.0132124
0.00346537
0.00106847
0.000293959
7.74105e-05
3.25863e-05
7.09483e-05
0.000283687
0.00111821
0.00407317
0.0132142
0.00346645
0.00106886
0.00029408
7.74461e-05
3.25998e-05
7.09687e-05
0.00028376
0.00111848
0.00407413
0.0132172
0.00346818
0.00106946
0.00029427
7.75017e-05
3.26193e-05
7.09937e-05
0.000283849
0.00111882
0.00407534
0.0132211
0.00111493
0.000402397
0.000124712
3.61864e-05
1.66397e-05
3.54165e-05
0.00013169
0.000474073
0.00153387
0.00425134
0.00111483
0.000402361
0.0001247
3.61816e-05
1.66332e-05
3.53958e-05
0.000131622
0.000473869
0.00153333
0.00425017
0.00111477
0.000402339
0.000124693
3.61788e-05
1.66296e-05
3.53848e-05
0.000131586
0.000473761
0.00153305
0.00424953
0.00111474
0.000402328
0.00012469
3.61775e-05
1.6628e-05
3.53798e-05
0.000131569
0.000473713
0.00153292
0.00424922
0.00111474
0.00040233
0.000124691
3.61778e-05
1.66278e-05
3.53785e-05
0.000131565
0.000473701
0.00153288
0.00424915
0.00111479
0.00040235
0.000124698
3.61802e-05
1.66287e-05
3.53799e-05
0.00013157
0.000473717
0.00153293
0.00424928
0.00111491
0.000402399
0.000124715
3.61857e-05
1.66312e-05
3.53842e-05
0.000131584
0.000473765
0.00153308
0.00424965
0.00111514
0.000402493
0.000124748
3.61965e-05
1.6636e-05
3.5392e-05
0.000131611
0.000473854
0.00153335
0.00425034
0.00111555
0.000402659
0.000124806
3.62151e-05
1.66437e-05
3.54038e-05
0.00013165
0.00047399
0.00153377
0.00425147
0.0011162
0.000402923
0.000124898
3.62444e-05
1.66551e-05
3.54196e-05
0.000131703
0.000474176
0.00153436
0.00425312
0.000317827
0.000128483
4.3881e-05
1.38938e-05
6.94117e-06
1.44318e-05
5.01166e-05
0.000166544
0.000489449
0.00121142
0.000317797
0.00012847
4.38767e-05
1.38919e-05
6.93837e-06
1.44233e-05
5.00905e-05
0.000166471
0.000489276
0.00121108
0.000317777
0.000128463
4.38739e-05
1.38907e-05
6.93681e-06
1.44187e-05
5.00762e-05
0.000166432
0.000489179
0.00121088
0.000317768
0.000128459
4.38727e-05
1.38902e-05
6.9361e-06
1.44166e-05
5.00696e-05
0.000166413
0.000489133
0.00121078
0.00031777
0.00012846
4.38732e-05
1.38903e-05
6.93598e-06
1.4416e-05
5.00679e-05
0.000166408
0.000489122
0.00121076
0.000317786
0.000128468
4.38761e-05
1.38913e-05
6.93642e-06
1.44166e-05
5.00699e-05
0.000166415
0.00048914
0.0012108
0.000317825
0.000128485
4.38829e-05
1.38937e-05
6.93757e-06
1.44186e-05
5.0076e-05
0.000166434
0.000489192
0.00121092
0.000317902
0.00012852
4.3896e-05
1.38983e-05
6.93975e-06
1.44221e-05
5.00873e-05
0.000166469
0.00048929
0.00121115
0.000318037
0.00012858
4.3919e-05
1.39063e-05
6.94335e-06
1.44277e-05
5.0105e-05
0.000166525
0.000489449
0.00121154
0.000318252
0.000128677
4.39556e-05
1.39189e-05
6.94875e-06
1.44355e-05
5.01298e-05
0.000166606
0.000489684
0.00121212
8.32059e-05
3.65704e-05
1.35086e-05
4.61463e-06
2.48201e-06
5.0475e-06
1.64901e-05
5.11803e-05
0.000139223
0.000317014
8.31971e-05
3.65667e-05
1.35072e-05
4.61394e-06
2.48097e-06
5.0445e-06
1.64814e-05
5.11576e-05
0.000139172
0.00031692
8.31916e-05
3.65643e-05
1.35063e-05
4.61352e-06
2.48039e-06
5.04283e-06
1.64765e-05
5.11448e-05
0.000139143
0.000316864
8.3189e-05
3.65633e-05
1.35059e-05
4.61335e-06
2.48012e-06
5.04204e-06
1.64742e-05
5.11387e-05
0.000139129
0.000316837
8.31897e-05
3.65637e-05
1.35061e-05
4.6134e-06
2.48008e-06
5.04183e-06
1.64735e-05
5.11372e-05
0.000139126
0.000316831
8.31946e-05
3.65661e-05
1.35071e-05
4.61378e-06
2.48025e-06
5.04208e-06
1.64743e-05
5.11394e-05
0.000139132
0.000316843
8.32066e-05
3.65719e-05
1.35095e-05
4.61466e-06
2.4807e-06
5.04283e-06
1.64765e-05
5.11459e-05
0.000139148
0.000316879
8.32299e-05
3.65831e-05
1.3514e-05
4.61637e-06
2.48156e-06
5.04424e-06
1.64807e-05
5.11583e-05
0.00013918
0.000316949
8.32705e-05
3.66026e-05
1.3522e-05
4.61932e-06
2.483e-06
5.04649e-06
1.64875e-05
5.11784e-05
0.000139233
0.000317067
8.33351e-05
3.66337e-05
1.35346e-05
4.62397e-06
2.48518e-06
5.04973e-06
1.64972e-05
5.12081e-05
0.000139313
0.00031725
2.0335e-05
9.52259e-06
3.74931e-06
1.36779e-06
7.8464e-07
1.56346e-06
4.84089e-06
1.4178e-05
3.62272e-05
7.74421e-05
2.03327e-05
9.52155e-06
3.74889e-06
1.36757e-06
7.84302e-07
1.56252e-06
4.83828e-06
1.41716e-05
3.62137e-05
7.74183e-05
2.03312e-05
9.52091e-06
3.74863e-06
1.36743e-06
7.84109e-07
1.56198e-06
4.83678e-06
1.41679e-05
3.62056e-05
7.74037e-05
2.03306e-05
9.52062e-06
3.74853e-06
1.36738e-06
7.84018e-07
1.56172e-06
4.83606e-06
1.4166e-05
3.62017e-05
7.73964e-05
2.03308e-05
9.52076e-06
3.74859e-06
1.3674e-06
7.84004e-07
1.56165e-06
4.83587e-06
1.41656e-05
3.62007e-05
7.73947e-05
2.03322e-05
9.52148e-06
3.74891e-06
1.36752e-06
7.84065e-07
1.56174e-06
4.83611e-06
1.41663e-05
3.62025e-05
7.73983e-05
2.03355e-05
9.52318e-06
3.74964e-06
1.36781e-06
7.84222e-07
1.562e-06
4.83685e-06
1.41683e-05
3.62074e-05
7.74084e-05
2.03421e-05
9.52649e-06
3.75106e-06
1.36838e-06
7.84524e-07
1.56249e-06
4.83824e-06
1.41722e-05
3.62169e-05
7.74282e-05
2.03534e-05
9.53225e-06
3.75354e-06
1.36935e-06
7.8503e-07
1.56328e-06
4.84052e-06
1.41786e-05
3.62329e-05
7.74617e-05
2.03713e-05
9.54136e-06
3.75746e-06
1.37087e-06
7.85799e-07
1.56445e-06
4.84388e-06
1.41883e-05
3.62574e-05
7.75142e-05
4.68139e-06
2.30304e-06
9.55755e-07
3.69135e-07
2.23942e-07
4.37998e-07
1.29387e-06
3.60676e-06
8.755e-06
1.78198e-05
4.68081e-06
2.30277e-06
9.55641e-07
3.69071e-07
2.23842e-07
4.3773e-07
1.29315e-06
3.60508e-06
8.75161e-06
1.7814e-05
4.68046e-06
2.3026e-06
9.55572e-07
3.69033e-07
2.23784e-07
4.37574e-07
1.29274e-06
3.60409e-06
8.74957e-06
1.78105e-05
4.6803e-06
2.30253e-06
9.55544e-07
3.69017e-07
2.23757e-07
4.37499e-07
1.29254e-06
3.6036e-06
8.74855e-06
1.78087e-05
4.68036e-06
2.30257e-06
9.55564e-07
3.69023e-07
2.23753e-07
4.37479e-07
1.29248e-06
3.60348e-06
8.74831e-06
1.78083e-05
4.68073e-06
2.30277e-06
9.55654e-07
3.69061e-07
2.23772e-07
4.37506e-07
1.29255e-06
3.60368e-06
8.74878e-06
1.78092e-05
4.68161e-06
2.30324e-06
9.55864e-07
3.69148e-07
2.23821e-07
4.37587e-07
1.29277e-06
3.60426e-06
8.75013e-06
1.78119e-05
4.68332e-06
2.30414e-06
9.5627e-07
3.69316e-07
2.23916e-07
4.3774e-07
1.29319e-06
3.60538e-06
8.75275e-06
1.78171e-05
4.68628e-06
2.3057e-06
9.56974e-07
3.69606e-07
2.24076e-07
4.37993e-07
1.29389e-06
3.60725e-06
8.75719e-06
1.7826e-05
4.69093e-06
2.30817e-06
9.58083e-07
3.7006e-07
2.24321e-07
4.3837e-07
1.29493e-06
3.6101e-06
8.76405e-06
1.784e-05
1.02115e-06
5.22506e-07
2.26596e-07
9.19907e-08
5.85891e-08
1.12669e-07
3.19355e-07
8.53245e-07
1.98471e-06
3.88505e-06
1.02102e-06
5.22441e-07
2.26568e-07
9.19736e-08
5.8562e-08
1.12598e-07
3.19174e-07
8.52835e-07
1.98391e-06
3.88375e-06
1.02094e-06
5.22401e-07
2.2655e-07
9.19635e-08
5.85462e-08
1.12557e-07
3.19067e-07
8.5259e-07
1.98343e-06
3.88292e-06
1.0209e-06
5.22385e-07
2.26543e-07
9.19592e-08
5.85387e-08
1.12536e-07
3.19014e-07
8.52468e-07
1.98318e-06
3.8825e-06
1.02092e-06
5.22396e-07
2.26549e-07
9.19612e-08
5.85377e-08
1.12531e-07
3.19001e-07
8.52438e-07
1.98312e-06
3.88241e-06
1.02101e-06
5.22447e-07
2.26573e-07
9.19715e-08
5.85432e-08
1.12539e-07
3.19021e-07
8.52491e-07
1.98324e-06
3.88265e-06
1.02123e-06
5.22565e-07
2.26628e-07
9.19955e-08
5.85574e-08
1.12562e-07
3.19081e-07
8.52645e-07
1.98359e-06
3.88331e-06
1.02165e-06
5.22794e-07
2.26735e-07
9.20417e-08
5.85849e-08
1.12606e-07
3.19197e-07
8.52943e-07
1.98426e-06
3.88459e-06
1.02237e-06
5.23191e-07
2.26921e-07
9.21214e-08
5.86311e-08
1.12679e-07
3.19391e-07
8.53446e-07
1.98541e-06
3.88681e-06
1.02351e-06
5.23815e-07
2.27212e-07
9.22459e-08
5.8702e-08
1.12789e-07
3.19684e-07
8.54216e-07
1.98719e-06
3.8903e-06
2.12776e-07
1.12602e-07
5.07387e-08
2.15411e-08
1.43253e-08
2.71189e-08
7.40637e-08
1.90609e-07
4.2734e-07
8.09074e-07
2.12746e-07
1.12587e-07
5.07318e-08
2.15368e-08
1.43184e-08
2.71014e-08
7.40205e-08
1.90514e-07
4.27161e-07
8.08788e-07
2.12727e-07
1.12578e-07
5.07277e-08
2.15343e-08
1.43143e-08
2.70911e-08
7.39948e-08
1.90457e-07
4.27051e-07
8.08608e-07
2.1272e-07
1.12575e-07