/*--------------------------------*- C++ -*----------------------------------*\
  =========                 |
  \\      /  F ield         | OpenFOAM: The Open Source CFD Toolbox
   \\    /   O peration     | Website:  https://openfoam.org
    \\  /    A nd           | Version:  6
     \\/     M anipulation  |
\*---------------------------------------------------------------------------*/
FoamFile
{
    version     2.0;
    format      ascii;
    class       volScalarField;
    location    "300";
    object      p;
}
// * * * * * * * * * * * * * * * * * * * * * * * * * * * * * * * * * * * * * //

dimensions      [0 2 -2 0 0 0 0];

internalField   nonuniform List<scalar> 
3000
(
0.0167958
0.0145104
0.0139522
0.0136742
0.0135036
0.0134557
0.013535
0.0137354
0.0142334
0.0164393
0.0145453
0.0122587
0.011702
0.0114247
0.0112545
0.0112072
0.0112872
0.0114879
0.0119851
0.0141932
0.0140151
0.01173
0.0111735
0.0108965
0.0107267
0.0106798
0.0107601
0.0109612
0.0114588
0.0136662
0.0137751
0.0114906
0.0109343
0.0106578
0.0104886
0.0104422
0.0105231
0.0107245
0.0112225
0.0134304
0.0136511
0.0113669
0.010811
0.010535
0.0103663
0.0103206
0.0104021
0.0106042
0.0111027
0.0133114
0.0136543
0.0113705
0.0108149
0.0105393
0.0103713
0.0103262
0.0104084
0.0106111
0.0111102
0.0133198
0.0137843
0.0115009
0.0109456
0.0106704
0.0105028
0.0104584
0.0105413
0.0107447
0.0112443
0.0134547
0.0140292
0.011746
0.0111908
0.0109159
0.0107487
0.0107048
0.0107883
0.0109923
0.0114924
0.0137037
0.0145632
0.0122789
0.011724
0.0114492
0.0112823
0.0112388
0.0113228
0.0115272
0.0120275
0.0142405
0.0168187
0.0145361
0.0139802
0.0137055
0.013539
0.0134959
0.0135802
0.0137852
0.0142871
0.0164991
0.0138608
0.0123977
0.0123858
0.0121074
0.0119309
0.0118794
0.0119566
0.0121492
0.012105
0.0134736
0.0124377
0.0109745
0.0109662
0.0106879
0.0105119
0.0104612
0.0105393
0.0107331
0.0106862
0.0120563
0.0124513
0.0109916
0.0109826
0.0107046
0.010529
0.0104786
0.0105571
0.0107512
0.0107055
0.0120729
0.0122141
0.0107544
0.0107457
0.0104684
0.0102934
0.0102437
0.0103228
0.0105173
0.0104719
0.0118408
0.0120878
0.0106284
0.01062
0.0103433
0.0101689
0.01012
0.0101999
0.0103951
0.0103503
0.0117205
0.012091
0.0106322
0.010624
0.0103479
0.0101742
0.010126
0.0102068
0.0104028
0.0103585
0.01173
0.0122237
0.0107653
0.0107575
0.0104818
0.0103087
0.0102613
0.0103429
0.0105398
0.010496
0.0118686
0.0124661
0.0110087
0.011001
0.0107254
0.0105528
0.010506
0.0105884
0.0107861
0.0107429
0.012116
0.0124557
0.0109952
0.0109885
0.0107131
0.0105408
0.0104944
0.0105771
0.0107753
0.0107314
0.0121084
0.0138846
0.012425
0.0124153
0.0121407
0.0119689
0.011923
0.0120062
0.0122044
0.0121641
0.0135412
0.01143
0.0105512
0.010864
0.0105938
0.0104655
0.0104057
0.0104179
0.0105847
0.0102128
0.0109694
0.0105997
0.00972463
0.0100434
0.00977241
0.00964525
0.00958644
0.00959954
0.00976883
0.00939227
0.0101472
0.0109376
0.0100685
0.0103854
0.0101152
0.0099883
0.00992988
0.0099435
0.0101129
0.00973841
0.0104888
0.0107155
0.00984534
0.010163
0.0098936
0.0097675
0.00970996
0.0097245
0.0098945
0.00952021
0.0102736
0.0106447
0.00977545
0.0100933
0.00982466
0.00969937
0.00964283
0.0096585
0.0098296
0.0094561
0.0102111
0.0106482
0.00977958
0.0100978
0.00982981
0.00970541
0.00964991
0.00966676
0.00983908
0.00946635
0.0102234
0.0107257
0.00985743
0.010176
0.00990867
0.00978514
0.00973064
0.00974859
0.00992212
0.00955004
0.0103093
0.0109538
0.0100876
0.0104061
0.010139
0.0100161
0.00996239
0.00998131
0.0101561
0.00978504
0.0105444
0.0106187
0.00974707
0.0100676
0.00980034
0.0096779
0.00962468
0.00964402
0.00981971
0.00944704
0.0102127
0.011456
0.0105818
0.010897
0.0106317
0.0105096
0.010457
0.0104773
0.0106521
0.0102852
0.0110549
0.010209
0.00954514
0.00987666
0.00958109
0.00951002
0.00943646
0.00936497
0.00952877
0.00912576
0.009627
0.0096037
0.00894679
0.00928532
0.00898813
0.00891931
0.00884716
0.00877614
0.00894388
0.00853564
0.00903285
0.00996305
0.00931301
0.00964871
0.00935278
0.00928426
0.00921263
0.00914235
0.00930992
0.00890479
0.00939711
0.00972579
0.00907388
0.00941085
0.00911601
0.00904852
0.00897812
0.00890919
0.00907792
0.00867279
0.00916997
0.00972359
0.00907356
0.00941078
0.00911685
0.00905043
0.00898141
0.00891413
0.00908458
0.00868069
0.00917995
0.00972744
0.00907822
0.00941587
0.00912287
0.00905766
0.00899013
0.00892457
0.00909694
0.0086943
0.00919705
0.00973701
0.00908748
0.00942569
0.00913354
0.00906953
0.00900342
0.00893946
0.00911367
0.0087121
0.00921919
0.00998115
0.00933487
0.00967254
0.00938085
0.00931778
0.00925284
0.00919024
0.00936623
0.00896649
0.00947374
0.00962446
0.00897197
0.00931277
0.00902056
0.00895812
0.00889379
0.00883174
0.00900932
0.00860717
0.00912194
0.010238
0.00958003
0.00991458
0.00962555
0.00956276
0.00949923
0.00943906
0.00961497
0.00921936
0.00974118
0.00940344
0.00883219
0.00910338
0.00877624
0.00873489
0.00864181
0.00850318
0.00865816
0.00829382
0.00864336
0.00890248
0.00834068
0.00861895
0.00828963
0.00825176
0.00816054
0.00802202
0.00818227
0.00781321
0.00815722
0.0092061
0.00865118
0.00892573
0.00859825
0.00856062
0.0084701
0.00833272
0.00849266
0.00812766
0.00846759
0.00895082
0.00839338
0.0086698
0.00834352
0.0083073
0.00821852
0.00808309
0.0082451
0.00788013
0.0082271
0.00899373
0.00843928
0.00871587
0.00839084
0.00835612
0.00826929
0.00813624
0.00830095
0.00793808
0.00828849
0.00899801
0.00844462
0.00872178
0.00839802
0.00836496
0.00828031
0.00814987
0.00831768
0.00795696
0.00831353
0.00896319
0.00840879
0.00868684
0.00836421
0.00833278
0.00825019
0.0081222
0.008293
0.00793407
0.0082984
0.00922638
0.00867631
0.00895344
0.00863171
0.00860158
0.00852067
0.00839474
0.00856802
0.00821206
0.00857771
0.00892541
0.00836927
0.00865051
0.0083279
0.00829876
0.00821871
0.00809344
0.00826918
0.00791024
0.00828381
0.00943576
0.00887205
0.00914713
0.00882873
0.00879853
0.00871945
0.00859705
0.00877039
0.00841743
0.00879992
0.00853603
0.00805531
0.00829314
0.00795439
0.00791958
0.00780059
0.00760541
0.00771701
0.00735255
0.00752182
0.00813905
0.00767073
0.00791561
0.00757449
0.00754433
0.00742769
0.0072325
0.0073504
0.00698193
0.00714359
0.00841541
0.00795384
0.00819439
0.00785567
0.00782564
0.00770995
0.00751646
0.00763406
0.00727029
0.00742902
0.00816499
0.00770065
0.00794365
0.00760624
0.00757816
0.00746488
0.00727412
0.00739516
0.00703171
0.00720011
0.00823401
0.00777368
0.00801673
0.00768102
0.007655
0.00754452
0.00735727
0.00748252
0.00712265
0.00729777
0.0082388
0.00777982
0.00802361
0.00768962
0.00766592
0.0075586
0.00737536
0.00750567
0.00714973
0.00733622
0.00817861
0.00771813
0.00796325
0.00763073
0.00760924
0.00750492
0.00732548
0.00746078
0.00710813
0.00730826
0.00843804
0.00798264
0.00822655
0.00789552
0.00787575
0.00777385
0.00759756
0.00773652
0.0073885
0.00759321
0.00816437
0.00770321
0.00795193
0.00761974
0.00760147
0.00750076
0.0073253
0.0074677
0.0071165
0.00732993
0.00857189
0.00810063
0.00834343
0.00801614
0.00799621
0.00789662
0.00772469
0.00786399
0.00751749
0.00773993
0.00763317
0.00723316
0.00744971
0.00711109
0.00706914
0.0069175
0.00666553
0.00670341
0.00631111
0.00625873
0.00733194
0.0069475
0.00717096
0.00683019
0.00679388
0.0066451
0.00639317
0.00643796
0.00604228
0.00597924
0.00759422
0.00721632
0.0074351
0.00709724
0.00706096
0.00691343
0.00666381
0.00670848
0.00631771
0.00625301
0.00736303
0.00698253
0.00720432
0.00686791
0.00683426
0.00668998
0.00644411
0.00649411
0.00610428
0.00605254
0.00744838
0.00707278
0.00729451
0.00696039
0.0069295
0.00678914
0.00654844
0.00660511
0.0062212
0.00618277
0.00745369
0.00707977
0.00730246
0.0069706
0.00694287
0.00680705
0.00657248
0.00663763
0.00626089
0.00624422
0.00737786
0.00700214
0.00722664
0.00689663
0.0068719
0.00674039
0.00651169
0.00658526
0.00621506
0.00622307
0.00761913
0.0072489
0.00747194
0.00714411
0.00712161
0.00699354
0.00676962
0.00684897
0.00648608
0.00650594
0.00735957
0.00698398
0.00721232
0.00688312
0.00686267
0.00673621
0.00651348
0.00659747
0.00623184
0.00626111
0.00767244
0.00728406
0.00750681
0.00718281
0.00716023
0.00703489
0.00681575
0.00689545
0.00653095
0.00656417
0.00680313
0.00645577
0.00664119
0.00630112
0.00624105
0.0060507
0.0057393
0.00568229
0.0052482
0.00491292
0.00657045
0.00624148
0.00643338
0.0060916
0.00603794
0.00585087
0.00553958
0.00548952
0.00505266
0.00470112
0.0068093
0.00648635
0.00667334
0.00633492
0.0062812
0.00609567
0.00578725
0.00573733
0.00530477
0.00495107
0.00659758
0.00627248
0.00646296
0.00612619
0.00607587
0.00589455
0.0055911
0.00554898
0.00511852
0.00478205
0.00669121
0.00637173
0.00656207
0.00622825
0.00618147
0.00600545
0.0057094
0.00567777
0.00525685
0.00494517
0.00669698
0.00637954
0.00657107
0.00624012
0.0061975
0.00602781
0.00574094
0.00572335
0.005316
0.00504738
0.0066134
0.00629406
0.00648787
0.00615918
0.00612054
0.00595686
0.00567884
0.00567542
0.00528155
0.00506237
0.00683619
0.00652248
0.00671468
0.00638889
0.00635305
0.00619409
0.0059231
0.00592887
0.00554664
0.00535409
0.00660001
0.00628166
0.00647947
0.00615219
0.00611896
0.00596212
0.00569282
0.00570477
0.00532078
0.00513949
0.00684531
0.00651177
0.00670457
0.00638248
0.00634666
0.00619057
0.00592384
0.00592851
0.00553722
0.00533789
0.00605839
0.00574095
0.00588877
0.00554463
0.00545871
0.00522625
0.0048542
0.00468045
0.00418866
0.00344819
0.00587122
0.00557445
0.00572803
0.00538271
0.00530364
0.00507462
0.00470249
0.00453503
0.00404112
0.00327429
0.00607967
0.00578812
0.00593668
0.00559498
0.00551572
0.00528843
0.00491942
0.00475197
0.00425955
0.00348265
0.00588496
0.00559187
0.00574426
0.0054044
0.00532925
0.00510709
0.00474421
0.00458783
0.00409969
0.00334764
0.00597982
0.00569282
0.00584496
0.00550867
0.00543778
0.00522237
0.00486946
0.00472909
0.00425506
0.00354537
0.00598591
0.00570129
0.00585481
0.005522
0.0054563
0.00524924
0.0049094
0.00479186
0.00434234
0.00371876
0.00590135
0.00561489
0.0057711
0.00544095
0.00538026
0.00518123
0.00485423
0.00476017
0.00433803
0.00381918
0.00610787
0.00582698
0.0059815
0.0056549
0.0055976
0.0054047
0.00508742
0.00500775
0.00460358
0.00413642
0.0059019
0.00561728
0.00577759
0.00544947
0.00539533
0.00520513
0.00489036
0.00481889
0.00441582
0.00396481
0.00610234
0.00580065
0.00595671
0.00563351
0.00557632
0.00538602
0.00507109
0.00498589
0.00455848
0.00402757
0.00536824
0.00506999
0.00518359
0.00483762
0.00472456
0.00445234
0.00402422
0.00371243
0.00312302
0.00173996
0.00521403
0.0049383
0.00505684
0.0047102
0.00460403
0.00433513
0.00390637
0.00359908
0.00301083
0.0015822
0.00539369
0.00512228
0.00523578
0.00489288
0.00478629
0.00451909
0.00409307
0.00378448
0.00318749
0.00170895
0.00521599
0.00494372
0.00506122
0.00472028
0.00461833
0.00435696
0.00393792
0.00364414
0.00305988
0.00162697
0.00530756
0.00504161
0.0051587
0.00482179
0.00472453
0.00447106
0.00406396
0.00379201
0.00322905
0.00184437
0.0053138
0.00505046
0.00516904
0.00483605
0.0047448
0.00450153
0.00411131
0.00387336
0.00335743
0.00213456
0.00523234
0.0049673
0.00508884
0.00475879
0.00467342
0.00444008
0.00406707
0.00386549
0.00340675
0.00242549
0.00542228
0.00516253
0.00528233
0.00495631
0.00487471
0.00464859
0.00428766
0.004106
0.00366939
0.00276894
0.0052447
0.0049822
0.00510778
0.00478027
0.0047023
0.00447953
0.00412221
0.00395195
0.00352543
0.00267168
0.00541253
0.0051313
0.00525338
0.00493023
0.00484862
0.00462431
0.00426197
0.0040666
0.00358064
0.00247651
0.0047177
0.00443485
0.00452157
0.00417948
0.00404511
0.00374439
0.00328113
0.00283372
0.00222744
0.00025157
0.00458914
0.0043303
0.0044211
0.00407882
0.00395102
0.00365329
0.00318892
0.00274251
0.00214671
0.000124255
0.00474423
0.00448876
0.00457458
0.00423596
0.00410735
0.00381095
0.00334754
0.00289507
0.00227624
0.00010144
0.00458399
0.00432837
0.00441818
0.00408149
0.00395766
0.00366736
0.00321116
0.00277703
0.00218292
0.000122737
0.00466988
0.00442049
0.00450964
0.00417709
0.00405777
0.00377535
0.00333041
0.00291883
0.00234083
0.000316632
0.00467601
0.00442932
0.00451988
0.00419136
0.00407819
0.00380651
0.00337998
0.00301041
0.00248112
0.000726241
0.00459955
0.00435129
0.00444487
0.00411925
0.00401226
0.00375138
0.00334531
0.00302723
0.0025699
0.00127861
0.00477201
0.00452851
0.00462025
0.00429879
0.00419542
0.00394173
0.00354741
0.0032514
0.00280504
0.00157266
0.00461845
0.00437305
0.00447038
0.00414747
0.00404808
0.00379853
0.0034099
0.00313154
0.00271082
0.00157981
0.00476047
0.00449491
0.0045894
0.00427012
0.00416647
0.00391401
0.00351495
0.00319605
0.00270389
0.00109104
0.00410875
0.00384018
0.00390713
0.00357615
0.00343251
0.00312563
0.00268631
0.00219263
0.00186648
0.00114048
0.00399973
0.00375635
0.00382651
0.00349578
0.00335821
0.00305405
0.00261489
0.00211943
0.00181519
0.00107406
0.00413319
0.00389222
0.00395751
0.00363021
0.00349131
0.00318786
0.00274784
0.00224194
0.00192517
0.00111056
0.00398961
0.00374914
0.00381822
0.00349266
0.00335826
0.00306069
0.00262724
0.00214156
0.00184267
0.00109068
0.00406834
0.00383372
0.00390179
0.00358004
0.0034491
0.00315764
0.00273009
0.00225985
0.00195266
0.00117574
0.00407412
0.00384208
0.00391126
0.00359311
0.00346738
0.00318452
0.00276803
0.00233153
0.00199349
0.00117518
0.00400363
0.00377005
0.00384207
0.0035263
0.00340606
0.00313232
0.00273011
0.0023413
0.00197563
0.0011451
0.00415904
0.00392944
0.00399939
0.00368744
0.00356976
0.00330101
0.00290361
0.00252653
0.0021373
0.00118977
0.00402635
0.00379566
0.00387093
0.00355756
0.00344406
0.00318025
0.00279107
0.00243624
0.00207456
0.00112988
0.00414833
0.00389614
0.00396914
0.00365865
0.00354061
0.00327416
0.00287719
0.00248396
0.00215904
0.00127181
0.00354482
0.00329087
0.00334421
0.00303178
0.0028934
0.00259999
0.00223577
0.00175802
0.00138809
0.000844967
0.00344984
0.00322193
0.00327766
0.00296596
0.00283326
0.0025425
0.00218185
0.00170314
0.00135561
0.000808631
0.00356354
0.00333708
0.00338806
0.0030795
0.00294499
0.00265451
0.00229292
0.0018042
0.00144807
0.000841773
0.0034349
0.00320949
0.00326397
0.00295688
0.00282636
0.00254148
0.00218501
0.00171579
0.00138127
0.000811081
0.00350553
0.00328537
0.0033384
0.00303443
0.00290573
0.0026247
0.00226695
0.00180572
0.00147526
0.000898409
0.00351075
0.00329285
0.00334655
0.00304524
0.00291969
0.00264356
0.00228232
0.00183915
0.00149021
0.000830039
0.00344676
0.00322723
0.00328335
0.00298343
0.00286156
0.0025911
0.0022287
0.00181624
0.00144479
0.000636352
0.00358642
0.00336991
0.00342366
0.00312669
0.00300545
0.00273649
0.00236848
0.00195385
0.00156893
0.000592656
0.0034727
0.00325576
0.00331445
0.00301608
0.00289901
0.002635
0.00227594
0.00188266
0.00152068
0.000577265
0.00357967
0.00334013
0.00339715
0.0031011
0.00297984
0.00271485
0.00235973
0.0019434
0.00161859
0.000845945
0.00302401
0.00278555
0.00283017
0.00254137
0.00241859
0.00214083
0.00184234
0.0014031
0.000951952
0.000396648
0.00293824
0.00272642
0.00277265
0.00248507
0.00236784
0.00209247
0.00180032
0.00136235
0.00093584
0.000373781
0.00303391
0.00282259
0.00286426
0.0025795
0.00246007
0.00218459
0.00189129
0.00144335
0.0010116
0.000389805
0.00291843
0.00270865
0.00275348
0.00247001
0.00235405
0.0020843
0.00179586
0.00136426
0.000957187
0.000398794
0.00298061
0.00277533
0.00281836
0.00253736
0.00242168
0.00215538
0.00186434
0.00143642
0.00104277
0.000542179
0.00298514
0.0027817
0.00282496
0.00254565
0.002431
0.00216865
0.00186879
0.00144997
0.00108137
0.000570212
0.00292778
0.00272256
0.00276781
0.00248886
0.00237596
0.00211848
0.00181048
0.00141009
0.00107474
0.000438054
0.00305325
0.00284998
0.00289257
0.00261558
0.00250131
0.00224344
0.00192475
0.00151273
0.00119353
0.00040232
0.00295674
0.0027537
0.00280085
0.00252243
0.00241206
0.00215807
0.00184576
0.00145226
0.00114375
0.000399553
0.00305338
0.00282679
0.00287283
0.00259625
0.00248243
0.00222741
0.00192425
0.00151687
0.00118897
0.000497097
0.00254425
0.00232057
0.0023595
0.00209626
0.00199527
0.0017351
0.0014873
0.00111785
0.000725262
0.000272921
0.00246237
0.00226557
0.00230535
0.00204379
0.00194837
0.00169035
0.00145069
0.0010843
0.000725084
0.000268836
0.00254147
0.00234424
0.00237967
0.00212059
0.00202265
0.00176408
0.00152306
0.00114656
0.000787814
0.000302667
0.00243756
0.00224231
0.00228059
0.0020228
0.00192789
0.00167493
0.00143965
0.00107676
0.000730152
0.000341311
0.00249144
0.00229995
0.00233626
0.00208068
0.00198504
0.00173582
0.00150032
0.00113742
0.000781528
0.000473421
0.00249529
0.00230523
0.00234152
0.0020872
0.00199112
0.00174685
0.00150584
0.00114276
0.000813755
0.000518796
0.00244439
0.00225247
0.00229051
0.00203613
0.0019405
0.00170257
0.00145596
0.00109685
0.000821895
0.00041332
0.00255712
0.00236612
0.00240139
0.00214825
0.00204984
0.00181146
0.00155505
0.00117527
0.000929655
0.000379708
0.0024765
0.00228632
0.00232577
0.00207107
0.00197608
0.00174048
0.00148643
0.00112367
0.000885042
0.000372588
0.00256787
0.00235359
0.00239247
0.00213892
0.00204091
0.00180249
0.00155406
0.00118404
0.000907408
0.000382682
0.0020978
0.00188748
0.00192359
0.0016871
0.00161312
0.00138078
0.00118462
0.000892445
0.000600762
0.000277596
0.00201481
0.00183101
0.00186721
0.00163278
0.00156448
0.00133428
0.00114822
0.000859525
0.00060721
0.000293393
0.00207926
0.00189412
0.00192615
0.00169383
0.00162277
0.00139157
0.00120444
0.000906993
0.000654162
0.000343001
0.00198577
0.00180303
0.00183759
0.00160663
0.00153816
0.00131153
0.00113002
0.00084724
0.000587571
0.00038158
0.00203191
0.00185224
0.00188476
0.00165595
0.00158593
0.00136172
0.00118025
0.000896533
0.000601205
0.000469506
0.00203513
0.00185657
0.00188895
0.0016614
0.00158977
0.00136973
0.00118615
0.000893392
0.000607774
0.000487253
0.00199028
0.0018099
0.00184393
0.00161642
0.00154425
0.00133053
0.00114583
0.000841451
0.000604092
0.000379024
0.00209148
0.00191105
0.00194238
0.00171576
0.00163982
0.0014255
0.00123405
0.000899708
0.000690823
0.000337793
0.00202491
0.00184601
0.00188122
0.00165299
0.00157994
0.00136829
0.00117647
0.000857116
0.000657516
0.000325795
0.00211611
0.00191305
0.0019483
0.00172025
0.00164439
0.00142895
0.00123721
0.000916649
0.00069053
0.000328005
0.00170457
0.00148974
0.00152589
0.00131881
0.00127544
0.00108004
0.000937971
0.00070916
0.00048786
0.000277368
0.0016028
0.00141114
0.00144696
0.00124231
0.00120479
0.00101154
0.000881474
0.000656019
0.000472765
0.000291286
0.00165412
0.00146047
0.00149224
0.00128927
0.00124883
0.00105422
0.000923006
0.00069162
0.000500416
0.000335812
0.00157027
0.00137949
0.00141337
0.00121169
0.00117355
0.000982232
0.00085483
0.000642492
0.000432897
0.000364083
0.00160931
0.00142103
0.00145274
0.00125304
0.00121275
0.0010216
0.000891939
0.000682447
0.00042811
0.000419727
0.00161193
0.00142457
0.00145595
0.00125752
0.00121475
0.00102512
0.000894992
0.000673629
0.000417589
0.000411099
0.00157263
0.00138362
0.00141654
0.00121838
0.00117429
0.000988724
0.000861324
0.000618921
0.000400717
0.000301734
0.00166292
0.00147305
0.00150343
0.00130604
0.00125746
0.00107008
0.000939426
0.000660939
0.000466741
0.000256859
0.001609
0.00142112
0.00145519
0.00125634
0.00121013
0.0010259
0.000893821
0.00062632
0.000443398
0.000240732
0.00171794
0.00150905
0.00154359
0.00134401
0.00129505
0.00110756
0.000971407
0.000704532
0.000508384
0.000255479
0.0012888
0.00108437
0.00112938
0.000954131
0.000942069
0.000785432
0.000695868
0.000523087
0.000348585
0.000229984
0.0011781
0.000993134
0.00103711
0.000864661
0.000858271
0.000703253
0.000626489
0.00045725
0.0003142
0.000249407
0.00122398
0.00103624
0.00107664
0.000905328
0.000895967
0.000739443
0.000660326
0.000488215
0.000328615
0.000281712
0.00115054
0.000966222
0.00100822
0.000838076
0.000830959
0.000677352
0.000599268
0.000450297
0.000268591
0.000299813
0.0011834
0.00100089
0.00104059
0.000872102
0.000862729
0.000708123
0.000624943
0.000483484
0.000260144
0.00033458
0.00118554
0.00100377
0.00104287
0.000875572
0.000863626
0.000708141
0.000625524
0.00047389
0.00024459
0.000309163
0.00115112
0.00096809
0.0010085
0.000841667
0.000828313
0.00067402
0.000597545
0.000422748
0.000223315
0.000210515
0.00122996
0.00104516
0.00108326
0.000917142
0.000899111
0.000741202
0.000665156
0.000453136
0.000274709
0.000173244
0.0011811
0.000998979
0.00104029
0.000873158
0.00085702
0.000702555
0.000625523
0.00041991
0.000254947
0.000154297
0.00129779
0.00109809
0.00114062
0.000971877
0.000952973
0.000796545
0.000712766
0.000505353
0.000335118
0.000144784
0.00111966
0.00076243
0.00084108
0.000713633
0.000728701
0.000618211
0.000578277
0.000467296
0.000339541
0.000220044
0.000866763
0.000486469
0.000574933
0.00045068
0.000472001
0.000363026
0.000335871
0.000230633
0.000126317
9.49553e-05
0.000925037
0.00055193
0.000634483
0.00051038
0.000528393
0.000417908
0.000386554
0.000280613
0.000155511
0.000140646
0.000866584
0.000497329
0.000580636
0.000457361
0.000477343
0.000369921
0.000336967
0.000253525
0.000110122
0.000175059
0.0008916
0.000524575
0.000605418
0.000483291
0.000501416
0.000393422
0.000353846
0.00027982
0.000105622
0.00021487
0.000892772
0.000526978
0.000606964
0.000485728
0.000502093
0.000392331
0.000354088
0.000273719
9.59849e-05
0.000210284
0.000864711
0.00049812
0.000579224
0.000458439
0.000474217
0.000363625
0.000333594
0.000234427
8.17803e-05
0.000154876
0.000926111
0.000557983
0.000637229
0.000516905
0.000528808
0.000413399
0.000386944
0.000255744
0.000121432
0.000133087
0.000863542
0.000488148
0.000572735
0.00045208
0.000465652
0.000353539
0.000327481
0.000200201
8.1899e-05
0.000110104
0.00112435
0.000775248
0.000850605
0.000728459
0.000739179
0.000626413
0.00059308
0.000455817
0.000336225
0.000183903
-0.000121189
5.34284e-05
9.99768e-05
-1.97378e-06
2.266e-05
-3.80484e-05
-4.25596e-05
-8.90519e-05
-0.000138156
-9.86135e-06
3.46815e-05
0.000266161
0.00030292
0.000197189
0.000223171
0.000160748
0.000161557
0.000117763
6.38231e-05
0.000146828
7.03416e-05
0.000291904
0.000328966
0.000224419
0.000248403
0.00018563
0.000182394
0.000139823
6.70115e-05
0.000169484
1.97678e-05
0.000238747
0.00027739
0.000174001
0.000199595
0.000140166
0.000134685
0.000109258
2.31066e-05
0.000192277
3.58697e-05
0.000253749
0.000291076
0.000188672
0.000213032
0.000154126
0.000142951
0.00012502
2.06359e-05
0.000234001
3.75426e-05
0.000254943
0.000291763
0.000190075
0.000213846
0.000153456
0.000143563
0.000123343
1.6113e-05
0.000247002
2.07367e-05
0.000237845
0.000275274
0.000173949
0.000198245
0.000136165
0.000133235
0.000102654
9.34696e-06
0.000223041
7.58326e-05
0.000295144
0.000330593
0.000229613
0.00025196
0.000185532
0.000187304
0.000135647
5.41693e-05
0.000229395
3.91977e-05
0.000267658
0.000302648
0.000201011
0.000224361
0.000160039
0.00016356
0.000112942
4.48542e-05
0.000232228
-0.000118889
5.10281e-05
9.514e-05
-3.66618e-06
1.78516e-05
-4.65607e-05
-4.75152e-05
-0.000105269
-0.000147303
5.27734e-05
-0.00112944
-0.000269611
-0.000125254
-5.38449e-06
1.78193e-05
2.58384e-05
2.30957e-05
1.84688e-05
1.62581e-05
1.54693e-05
-0.00126728
-0.000336328
-0.000215342
-7.02751e-05
-2.76579e-05
-6.58392e-07
1.0753e-05
1.38507e-05
1.48728e-05
1.51756e-05
-0.0014195
-0.000317588
-0.000267566
-0.000133073
-9.15504e-05
-5.21582e-05
-1.9991e-05
5.01766e-07
1.20493e-05
1.62192e-05
-0.00133167
-0.000186739
-0.000225357
-0.000119132
-0.000109111
-8.7811e-05
-5.32715e-05
-1.86458e-05
9.55757e-06
2.246e-05
-0.00113284
4.56662e-05
-0.00010346
-2.68319e-05
-4.93048e-05
-6.67137e-05
-6.00453e-05
-3.16023e-05
1.15924e-05
3.83491e-05
-0.000557076
0.000463674
0.000144072
0.000139038
7.94744e-05
1.69136e-05
-2.45489e-05
-2.4456e-05
2.52831e-05
6.64281e-05
0.000305411
0.00115493
0.000536195
0.000354025
0.000230059
0.000114184
2.39289e-05
-2.20046e-06
5.1699e-05
0.00010269
0.000912521
0.00181988
0.000856258
0.00047066
0.000297401
0.000152729
4.51012e-05
2.27655e-05
8.30865e-05
0.000133952
0.000987177
0.00175355
0.000810304
0.000395289
0.000239617
0.00012579
5.56395e-05
5.92064e-05
0.000108749
0.000142065
0.000343743
0.00106183
0.000679573
0.00034899
0.000223665
0.000154242
0.000107321
9.87548e-05
0.000112716
0.000124573
-0.000411395
-0.000310979
-0.000164943
-8.01683e-05
-2.87676e-05
3.91857e-06
1.72997e-05
1.95063e-05
1.77542e-05
1.49445e-05
-0.000498428
-0.000429658
-0.000321607
-0.000225388
-0.000146127
-7.76763e-05
-2.64828e-05
6.59019e-06
1.72791e-05
1.48075e-05
-0.000524577
-0.00044669
-0.000358486
-0.000290131
-0.00024053
-0.000181457
-0.00011887
-4.72569e-05
3.13113e-06
1.38305e-05
-0.00042187
-0.000344334
-0.000294139
-0.000241846
-0.000234395
-0.000207522
-0.000176335
-0.000113342
-2.73253e-05
1.36558e-05
-0.000304888
-0.000182761
-0.000219648
-0.000158227
-0.000172586
-0.000170621
-0.000174165
-0.000147979
-6.05373e-05
1.6359e-05
-0.000156527
5.39066e-05
-9.63569e-05
-4.03258e-05
-7.46222e-05
-9.7885e-05
-0.000132113
-0.00014548
-7.26352e-05
2.99611e-05
0.000146537
0.000390852
0.000120258
0.000112532
3.9862e-05
-1.83194e-05
-8.84194e-05
-0.000128493
-5.55822e-05
6.34927e-05
0.000444804
0.000702307
0.000299051
0.000200032
9.00139e-05
-1.02641e-06
-9.12439e-05
-0.000115763
-1.24271e-05
0.000112291
0.000449452
0.000645101
0.000262494
0.000139986
3.30766e-05
-5.4377e-05
-0.000113581
-8.55768e-05
4.54108e-05
0.000138563
0.00038997
0.000457805
0.000181779
5.53071e-05
1.00604e-05
-1.09149e-05
-4.48954e-06
3.73883e-05
8.80674e-05
0.000114701
-0.000286357
-0.000194835
-0.000180673
-0.000147235
-0.000100172
-5.54599e-05
-2.17246e-05
-6.74449e-07
7.97221e-06
7.1791e-06
-0.000285173
-0.000261571
-0.000289787
-0.000253769
-0.000204821
-0.000141206
-7.76996e-05
-2.47368e-05
2.12976e-06
4.39015e-06
-0.000259663
-0.000274827
-0.000304884
-0.000287247
-0.000265501
-0.000224624
-0.000167706
-9.10976e-05
-2.37258e-05
-2.81825e-06
-0.000242377
-0.000221215
-0.000251284
-0.000241682
-0.000251461
-0.000242273
-0.00021672
-0.000159974
-6.80715e-05
-1.29477e-05
-0.000298812
-0.000155548
-0.000204314
-0.000184679
-0.000210005
-0.000221304
-0.000226576
-0.000198769
-0.000114283
-2.55392e-05
-0.00036244
-7.68309e-05
-0.000141895
-0.000113292
-0.000146646
-0.000173875
-0.000209021
-0.000214168
-0.00014188
-3.27201e-05
-0.000263614
3.80576e-05
-1.86807e-05
-1.5868e-05
-6.85627e-05
-0.000113476
-0.000179575
-0.000217186
-0.000145155
-1.86387e-05
-0.000122761
0.000139629
9.8154e-05
5.87246e-05
-2.12418e-05
-9.03914e-05
-0.000175386
-0.000211349
-0.000118428
2.53585e-05
-9.84675e-05
0.000159515
8.56235e-05
4.57967e-05
-3.56987e-05
-0.000105359
-0.000167855
-0.000168063
-5.53443e-05
6.46762e-05
7.62985e-05
0.000179718
3.41789e-05
1.91002e-05
-1.68822e-05
-5.4891e-05
-7.60906e-05
-5.50763e-05
6.6934e-06
5.53829e-05
-0.000344665
-0.000137028
-0.000153238
-0.000130037
-0.000103891
-7.34869e-05
-4.28775e-05
-1.78835e-05
-4.36931e-06
-2.81075e-06
-0.000297125
-0.000159136
-0.000211668
-0.000193077
-0.00017009
-0.000129201
-8.09177e-05
-3.61228e-05
-1.02117e-05
-7.03109e-06
-0.00027167
-0.000161159
-0.000226521
-0.000222486
-0.000215705
-0.000187702
-0.000143352
-8.27241e-05
-2.80674e-05
-1.45796e-05
-0.000317953
-0.000139909
-0.000203372
-0.000200439
-0.000214215
-0.000211212
-0.000191264
-0.000140248
-6.01815e-05
-2.35436e-05
-0.000426252
-0.000130536
-0.000190565
-0.000176401
-0.000202182
-0.000218864
-0.000225649
-0.000193648
-0.000105996
-3.64665e-05
-0.000476102
-0.000128544
-0.000171506
-0.000143315
-0.000175375
-0.000206971
-0.000242808
-0.000234997
-0.00015247
-5.29075e-05
-0.000408657
-0.000104152
-0.00011622
-9.27922e-05
-0.000132108
-0.000171483
-0.000235697
-0.000262658
-0.00018499
-6.32576e-05
-0.000335066
-6.46845e-05
-4.31988e-05
-3.88563e-05
-8.881e-05
-0.000139147
-0.000216945
-0.000259308
-0.000184292
-5.13943e-05
-0.000306268
-1.7106e-05
-1.73039e-05
-1.66522e-05
-6.03215e-05
-0.000105722
-0.000166947
-0.000192082
-0.000128486
-2.43493e-05
-0.000163416
2.41032e-05
-2.19363e-05
-6.73719e-06
-3.24022e-05
-6.26275e-05
-9.45231e-05
-0.000101881
-6.51836e-05
-1.58666e-05
-0.000336203
-0.000119013
-0.000119091
-9.09757e-05
-7.19909e-05
-5.22843e-05
-3.26284e-05
-1.58363e-05
-7.13744e-06
-6.94961e-06
-0.00027328
-0.000106154
-0.000127801
-0.000109697
-9.64399e-05
-7.40572e-05
-4.79238e-05
-2.31793e-05
-9.32909e-06
-9.79303e-06
-0.000236291
-8.66333e-05
-0.000133873
-0.000128239
-0.00012684
-0.00011007
-8.14341e-05
-4.40539e-05
-1.47665e-05
-1.3895e-05
-0.000295986
-7.3781e-05
-0.000134207
-0.000125671
-0.000135783
-0.000134311
-0.00011921
-7.91041e-05
-2.71953e-05
-1.77271e-05
-0.000401579
-8.45019e-05
-0.000144746
-0.000125783
-0.000145022
-0.000159664
-0.000163531
-0.000129386
-5.6168e-05
-2.39822e-05
-0.000429223
-0.000107074
-0.000146703
-0.0001184
-0.000145068
-0.000175221
-0.000206058
-0.000188612
-0.000103382
-3.58268e-05
-0.000397581
-0.00011809
-0.000130705
-0.000101155
-0.000131161
-0.000165063
-0.000220912
-0.000236786
-0.000154696
-5.24976e-05
-0.000369057
-0.000103151
-9.09827e-05
-6.8847e-05
-0.00010025
-0.000135363
-0.000196137
-0.000234561
-0.000171302
-6.07553e-05
-0.000348517
-5.80611e-05
-5.39264e-05
-3.7074e-05
-6.23038e-05
-9.01448e-05
-0.000133001
-0.000161275
-0.000124742
-4.98968e-05
-0.000226609
-1.32247e-05
-4.1482e-05
-2.36445e-05
-4.07993e-05
-6.04161e-05
-8.40857e-05
-9.33311e-05
-7.28262e-05
-3.91958e-05
-0.000286233
-0.000100842
-9.33008e-05
-6.8909e-05
-5.20231e-05
-3.48795e-05
-1.99169e-05
-8.97735e-06
-5.14394e-06
-6.53052e-06
-0.000220206
-7.64005e-05
-8.47455e-05
-6.75351e-05
-5.32437e-05
-3.64118e-05
-2.12541e-05
-9.39414e-06
-5.01895e-06
-7.7363e-06
-0.000175772
-4.36148e-05
-7.89681e-05
-6.86988e-05
-6.25241e-05
-4.99291e-05
-3.34017e-05
-1.52056e-05
-5.67788e-06
-9.76726e-06
-0.000235782
-3.06658e-05
-8.57174e-05
-7.01942e-05
-7.12381e-05
-6.61207e-05
-5.34331e-05
-2.84189e-05
-7.12589e-06
-1.13817e-05
-0.000331373
-4.63172e-05
-0.000103519
-7.70476e-05
-8.38767e-05
-8.88231e-05
-8.62843e-05
-5.70799e-05
-1.5394e-05
-1.32553e-05
-0.000362345
-7.0896e-05
-0.000112262
-8.0135e-05
-9.3754e-05
-0.000111434
-0.000128523
-0.000105558
-3.9013e-05
-1.68948e-05
-0.000374708
-9.28309e-05
-0.000116423
-8.2075e-05
-9.82017e-05
-0.00011847
-0.000152877
-0.000151568
-7.7003e-05
-2.46975e-05
-0.000384131
-9.01559e-05
-9.80146e-05
-6.97818e-05
-8.43511e-05
-0.000102189
-0.000137826
-0.000154551
-9.51521e-05
-3.14658e-05
-0.000380781
-5.89051e-05
-6.73173e-05