/*--------------------------------*- C++ -*----------------------------------*\
  =========                 |
  \\      /  F ield         | OpenFOAM: The Open Source CFD Toolbox
   \\    /   O peration     | Website:  https://openfoam.org
    \\  /    A nd           | Version:  6
     \\/     M anipulation  |
\*---------------------------------------------------------------------------*/
FoamFile
{
    version     2.0;
    format      ascii;
    class       volScalarField;
    location    "0.068";
    object      p;
}
// * * * * * * * * * * * * * * * * * * * * * * * * * * * * * * * * * * * * * //

dimensions      [0 2 -2 0 0 0 0];

internalField   nonuniform List<scalar> 
32000
(
-1.98544e-07
0.00154393
0.00384694
0.00589019
0.00715499
0.00726374
0.00609798
0.00374978
0.000461349
-0.00339334
-0.00736257
-0.0109728
-0.013781
-0.0154386
-0.0157569
-0.0147352
-0.012622
-0.00994909
-0.00738146
-0.00588723
-0.00142663
0.00121792
0.00429773
0.00640542
0.00766322
0.00768773
0.00638033
0.00391318
0.000514712
-0.00344751
-0.00752558
-0.0112578
-0.0142027
-0.0160134
-0.0165071
-0.0155919
-0.0134853
-0.0107132
-0.00732588
-0.00471601
-0.00423227
-0.000130845
0.00384799
0.00632457
0.00780991
0.00789765
0.00656171
0.00404333
0.000569964
-0.00348081
-0.00765212
-0.0114803
-0.0145126
-0.0163876
-0.0169166
-0.0159303
-0.0135682
-0.0103769
-0.00604537
-0.00195875
-0.00788448
-0.00248747
0.0025204
0.00564452
0.00752646
0.00782644
0.00659663
0.00411253
0.000618557
-0.00348081
-0.00770766
-0.0115822
-0.0146287
-0.0164555
-0.016853
-0.015614
-0.0128002
-0.00889818
-0.00348724
0.00192063
-0.0116621
-0.00510644
0.000894366
0.0046693
0.00699558
0.00759056
0.00653554
0.00413406
0.000659308
-0.00345467
-0.00770411
-0.0115848
-0.0145937
-0.0163072
-0.0164851
-0.0148915
-0.0115624
-0.00693608
-0.000473879
0.0061268
-0.0151569
-0.00764667
-0.000799499
0.00358486
0.00636489
0.00727697
0.00641989
0.00412594
0.0006962
-0.00340804
-0.00765566
-0.0115145
-0.0144533
-0.0160199
-0.0159455
-0.0139671
-0.0101081
-0.00479742
0.00256921
0.0101582
-0.0181227
-0.00988189
-0.00235296
0.00255747
0.00574285
0.00694668
0.00628157
0.00410125
0.000728684
-0.00335096
-0.00758074
-0.0114018
-0.0142565
-0.0156684
-0.0153471
-0.0130109
-0.00867488
-0.00277014
0.00532881
0.0136759
-0.0204187
-0.0116513
-0.00361494
0.00170246
0.00520978
0.00665281
0.00615145
0.00407265
0.000755692
-0.0032948
-0.00750047
-0.0112804
-0.0140553
-0.0153291
-0.0147963
-0.0121646
-0.00744687
-0.00108015
0.00756522
0.016458
-0.0219744
-0.0128686
-0.00449913
0.00109338
0.00482348
0.00643579
0.00605279
0.00404917
0.000775382
-0.0032503
-0.00743442
-0.0111805
-0.0138941
-0.0150658
-0.0143796
-0.0115379
-0.00655501
0.000125074
0.00912966
0.0183721
-0.022758
-0.0134877
-0.00495366
0.000777443
0.00462141
0.0063212
0.00599997
0.00403614
0.000785782
-0.0032258
-0.00739742
-0.0111246
-0.0138052
-0.0149227
-0.0141564
-0.0112059
-0.00608719
0.00075103
0.00993309
0.0193452
-0.0227579
-0.0134877
-0.00495364
0.000777455
0.00462142
0.00632121
0.00599998
0.00403615
0.000785791
-0.00322579
-0.00739742
-0.0111246
-0.0138051
-0.0149227
-0.0141564
-0.0112059
-0.00608718
0.000751032
0.00993309
0.0193453
-0.0219743
-0.0128686
-0.00449909
0.00109341
0.00482352
0.00643583
0.00605282
0.0040492
0.000775404
-0.00325028
-0.0074344
-0.0111805
-0.0138941
-0.0150658
-0.0143796
-0.0115379
-0.00655501
0.000125079
0.00912967
0.0183721
-0.0204186
-0.0116512
-0.00361493
0.00170249
0.00520984
0.00665288
0.00615151
0.00407269
0.000755734
-0.00329476
-0.00750044
-0.0112803
-0.0140553
-0.0153291
-0.0147963
-0.0121646
-0.00744687
-0.00108011
0.0075653
0.016458
-0.0181227
-0.00988198
-0.00235302
0.00255749
0.00574293
0.00694677
0.00628165
0.00410131
0.000728736
-0.00335091
-0.0075807
-0.0114018
-0.0142565
-0.0156684
-0.0153472
-0.013011
-0.00867485
-0.00276999
0.00532904
0.013676
-0.0151569
-0.00764685
-0.000799585
0.00358489
0.00636499
0.00727709
0.00641999
0.00412602
0.000696256
-0.003408
-0.00765562
-0.0115144
-0.0144533
-0.0160199
-0.0159455
-0.0139671
-0.010108
-0.00479722
0.00256951
0.0101584
-0.0116622
-0.00510644
0.000894433
0.00466941
0.00699571
0.00759069
0.00653565
0.00413413
0.00065935
-0.00345464
-0.00770407
-0.0115847
-0.0145936
-0.0163072
-0.016485
-0.0148915
-0.0115624
-0.00693605
-0.000473762
0.00612689
-0.0078843
-0.00248709
0.00252073
0.00564474
0.00752664
0.00782661
0.00659676
0.0041126
0.000618589
-0.00348079
-0.00770762
-0.0115821
-0.0146287
-0.0164554
-0.016853
-0.0156141
-0.0128004
-0.00889842
-0.00348746
0.00192051
-0.00423187
-0.000130395
0.00384836
0.00632484
0.00781019
0.00789793
0.00656191
0.00404344
0.00057001
-0.00348078
-0.00765207
-0.0114802
-0.0145125
-0.0163876
-0.0169168
-0.0159305
-0.0135684
-0.0103771
-0.00604561
-0.00195898
-0.00142679
0.00121772
0.00429772
0.00640565
0.00766369
0.00768828
0.00638076
0.00391345
0.000514866
-0.0034474
-0.00752547
-0.0112576
-0.0142026
-0.0160136
-0.0165076
-0.0155923
-0.0134853
-0.010713
-0.00732537
-0.00471575
-3.37733e-06
0.00154228
0.00384619
0.00589004
0.00715538
0.00726433
0.00609842
0.00375004
0.000461488
-0.00339326
-0.0073625
-0.0109727
-0.0137811
-0.015439
-0.0157576
-0.0147358
-0.0126219
-0.00994827
-0.00737982
-0.00588602
-1.24734
-1.24417
-1.23805
-1.23068
-1.22342
-1.21725
-1.21265
-1.20962
-1.20786
-1.20676
-1.20556
-1.20348
-1.19982
-1.19415
-1.18642
-1.17703
-1.16694
-1.15764
-1.15093
-1.14816
-1.24952
-1.24403
-1.23642
-1.22877
-1.22157
-1.2157
-1.21154
-1.20898
-1.20769
-1.20707
-1.20637
-1.20481
-1.20171
-1.19661
-1.1894
-1.18035
-1.17027
-1.16053
-1.15217
-1.14711
-1.25544
-1.2469
-1.23726
-1.22865
-1.22097
-1.215
-1.21095
-1.20862
-1.20763
-1.20735
-1.20701
-1.20582
-1.20305
-1.1982
-1.19112
-1.18191
-1.17123
-1.16036
-1.14987
-1.14179
-1.26418
-1.25266
-1.24064
-1.23052
-1.22189
-1.21538
-1.21108
-1.20866
-1.20771
-1.20755
-1.20733
-1.20623
-1.20348
-1.19849
-1.19105
-1.18116
-1.16935
-1.15678
-1.1438
-1.13277
-1.27398
-1.25965
-1.24522
-1.23347
-1.22371
-1.21643
-1.21164
-1.20896
-1.20788
-1.20766
-1.2074
-1.20621
-1.20326
-1.19788
-1.1898
-1.17894
-1.16576
-1.15134
-1.13583
-1.12197
-1.28361
-1.26684
-1.25024
-1.23691
-1.22596
-1.21783
-1.21246
-1.2094
-1.20808
-1.20769
-1.20727
-1.20587
-1.20258
-1.19669
-1.18784
-1.1759
-1.16128
-1.14505
-1.12721
-1.11087
-1.2922
-1.27344
-1.25502
-1.24029
-1.22825
-1.21931
-1.21336
-1.20989
-1.20829
-1.20767
-1.20702
-1.20534
-1.20167
-1.19522
-1.18559
-1.17261
-1.15667
-1.13883
-1.11903
-1.10066
-1.29912
-1.27887
-1.25903
-1.2432
-1.23027
-1.22064
-1.21418
-1.21034
-1.20846
-1.20761
-1.20674
-1.20479
-1.20075
-1.1938
-1.1835
-1.16964
-1.1526
-1.13348
-1.11216
-1.09227
-1.30393
-1.28269
-1.26191
-1.2453
-1.23175
-1.22163
-1.2148
-1.21068
-1.20859
-1.20756
-1.20651
-1.20434
-1.20002
-1.19269
-1.18189
-1.1674
-1.1496
-1.12958
-1.10724
-1.08634
-1.3064
-1.28467
-1.26341
-1.24641
-1.23254
-1.22216
-1.21513
-1.21086
-1.20865
-1.20752
-1.20637
-1.20409
-1.19962
-1.19209
-1.18103
-1.1662
-1.148
-1.12753
-1.10467
-1.08327
-1.3064
-1.28467
-1.26341
-1.24641
-1.23254
-1.22216
-1.21513
-1.21086
-1.20865
-1.20752
-1.20637
-1.20409
-1.19962
-1.19209
-1.18103
-1.1662
-1.148
-1.12753
-1.10467
-1.08327
-1.30393
-1.28269
-1.26191
-1.2453
-1.23175
-1.22163
-1.2148
-1.21068
-1.20859
-1.20756
-1.20651
-1.20434
-1.20002
-1.19269
-1.18189
-1.1674
-1.1496
-1.12958
-1.10724
-1.08634
-1.29912
-1.27887
-1.25903
-1.2432
-1.23027
-1.22064
-1.21418
-1.21034
-1.20846
-1.20761
-1.20674
-1.20479
-1.20075
-1.1938
-1.1835
-1.16964
-1.15261
-1.13348
-1.11216
-1.09227
-1.2922
-1.27344
-1.25502
-1.24029
-1.22825
-1.21931
-1.21336
-1.20989
-1.20829
-1.20767
-1.20702
-1.20534
-1.20167
-1.19522
-1.18559
-1.17261
-1.15667
-1.13883
-1.11903
-1.10066
-1.28361
-1.26684
-1.25024
-1.23691
-1.22596
-1.21783
-1.21246
-1.2094
-1.20808
-1.20769
-1.20727
-1.20587
-1.20258
-1.19669
-1.18784
-1.1759
-1.16128
-1.14505
-1.12721
-1.11087
-1.27398
-1.25965
-1.24522
-1.23347
-1.22371
-1.21643
-1.21164
-1.20896
-1.20788
-1.20766
-1.2074
-1.20621
-1.20326
-1.19788
-1.1898
-1.17895
-1.16576
-1.15134
-1.13583
-1.12197
-1.26418
-1.25266
-1.24064
-1.23052
-1.22189
-1.21538
-1.21108
-1.20866
-1.20771
-1.20755
-1.20733
-1.20623
-1.20348
-1.19849
-1.19105
-1.18116
-1.16935
-1.15678
-1.1438
-1.13277
-1.25544
-1.2469
-1.23726
-1.22865
-1.22097
-1.215
-1.21095
-1.20862
-1.20763
-1.20735
-1.20701
-1.20582
-1.20305
-1.1982
-1.19112
-1.18191
-1.17123
-1.16036
-1.14987
-1.14179
-1.24952
-1.24403
-1.23642
-1.22877
-1.22157
-1.2157
-1.21154
-1.20898
-1.20769
-1.20707
-1.20637
-1.20481
-1.20171
-1.19661
-1.1894
-1.18035
-1.17027
-1.16053
-1.15217
-1.14711
-1.24734
-1.24417
-1.23805
-1.23068
-1.22342
-1.21725
-1.21265
-1.20962
-1.20786
-1.20676
-1.20556
-1.20348
-1.19982
-1.19416
-1.18642
-1.17703
-1.16694
-1.15764
-1.15092
-1.14815
-2.49281
-2.48777
-2.47752
-2.46461
-2.45132
-2.43927
-2.42928
-2.42149
-2.41543
-2.41022
-2.40472
-2.39775
-2.38827
-2.3757
-2.36004
-2.34211
-2.3236
-2.3071
-2.29566
-2.29129
-2.49604
-2.48723
-2.47467
-2.46123
-2.44806
-2.43654
-2.42731
-2.42034
-2.41514
-2.41081
-2.40623
-2.40022
-2.39176
-2.38019
-2.36546
-2.34813
-2.32965
-2.31231
-2.29825
-2.2901
-2.50557
-2.49186
-2.47599
-2.46093
-2.44699
-2.43532
-2.42631
-2.41975
-2.41508
-2.41136
-2.40742
-2.40206
-2.3942
-2.3831
-2.36858
-2.351
-2.33151
-2.31222
-2.2946
-2.28157
-2.52
-2.5014
-2.48162
-2.4641
-2.4486
-2.43603
-2.42659
-2.4199
-2.4153
-2.41175
-2.40802
-2.40281
-2.39495
-2.38361
-2.36847
-2.34971
-2.32831
-2.30616
-2.28439
-2.26647
-2.53642
-2.51318
-2.48942
-2.46919
-2.45179
-2.43794
-2.42768
-2.42052
-2.41567
-2.41199
-2.40814
-2.40273
-2.3945
-2.38246
-2.36621
-2.34577
-2.32202
-2.29672
-2.27069
-2.24803
-2.55275
-2.52541
-2.49801
-2.47514
-2.45576
-2.44047
-2.42923
-2.4214
-2.4161
-2.41209
-2.4079
-2.40207
-2.39321
-2.38024
-2.36263
-2.34032
-2.3141
-2.2857
-2.25573
-2.22886
-2.56743
-2.53673
-2.50625
-2.48103
-2.45982
-2.44316
-2.43091
-2.42236
-2.41653
-2.41208
-2.40745
-2.40108
-2.3915
-2.37753
-2.35855
-2.33443
-2.30592
-2.27475
-2.24142
-2.21109
-2.57931
-2.54607
-2.5132
-2.4861
-2.4634
-2.44557
-2.43245
-2.42324
-2.4169
-2.41201
-2.40694
-2.40005
-2.38979
-2.37491
-2.35473
-2.32908
-2.29868
-2.26528
-2.22934
-2.19639
-2.58763
-2.55269
-2.5182
-2.4898
-2.46603
-2.44737
-2.4336
-2.4239
-2.41716
-2.41193
-2.40651
-2.39921
-2.38843
-2.37287
-2.35181
-2.32505
-2.29331
-2.25837
-2.22066
-2.18596
-2.5919
-2.55611
-2.52081
-2.49174
-2.46743
-2.44832
-2.43422
-2.42425
-2.4173
-2.41187
-2.40627
-2.39875
-2.38768
-2.37176
-2.35024
-2.32289
-2.29047
-2.25473
-2.21613
-2.18056
-2.5919
-2.55611
-2.52081
-2.49174
-2.46743
-2.44832
-2.43422
-2.42425
-2.4173
-2.41187
-2.40627
-2.39875
-2.38768
-2.37176
-2.35024
-2.32289
-2.29047
-2.25473
-2.21613
-2.18056
-2.58763
-2.55269
-2.5182
-2.4898
-2.46603
-2.44737
-2.4336
-2.4239
-2.41716
-2.41193
-2.40651
-2.39921
-2.38843
-2.37287
-2.35181
-2.32505
-2.29331
-2.25837
-2.22066
-2.18596
-2.57931
-2.54607
-2.5132
-2.4861
-2.4634
-2.44557
-2.43245
-2.42324
-2.4169
-2.41201
-2.40694
-2.40005
-2.38979
-2.37491
-2.35473
-2.32908
-2.29868
-2.26528
-2.22934
-2.19639
-2.56743
-2.53673
-2.50625
-2.48103
-2.45982
-2.44316
-2.43091
-2.42236
-2.41653
-2.41208
-2.40745
-2.40108
-2.3915
-2.37753
-2.35855
-2.33443
-2.30592
-2.27475
-2.24142
-2.21109
-2.55275
-2.52541
-2.49801
-2.47514
-2.45576
-2.44047
-2.42923
-2.4214
-2.4161
-2.41209
-2.4079
-2.40207
-2.39321
-2.38024
-2.36263
-2.34032
-2.3141
-2.2857
-2.25573
-2.22886
-2.53642
-2.51318
-2.48942
-2.46919
-2.45179
-2.43793
-2.42768
-2.42052
-2.41567
-2.41199
-2.40814
-2.40273
-2.3945
-2.38246
-2.36621
-2.34577
-2.32202
-2.29672
-2.27069
-2.24803
-2.52
-2.5014
-2.48162
-2.4641
-2.4486
-2.43603
-2.42659
-2.4199
-2.4153
-2.41175
-2.40802
-2.40281
-2.39495
-2.38361
-2.36847
-2.34971
-2.32831
-2.30616
-2.28439
-2.26647
-2.50557
-2.49186
-2.47599
-2.46093
-2.44699
-2.43531
-2.42631
-2.41975
-2.41508
-2.41136
-2.40742
-2.40206
-2.3942
-2.3831
-2.36858
-2.351
-2.33151
-2.31222
-2.2946
-2.28157
-2.49604
-2.48723
-2.47467
-2.46123
-2.44805
-2.43653
-2.42731
-2.42034
-2.41514
-2.41081
-2.40623
-2.40022
-2.39176
-2.38019
-2.36546
-2.34813
-2.32965
-2.31231
-2.29825
-2.2901
-2.49281
-2.48777
-2.47752
-2.46461
-2.45132
-2.43926
-2.42928
-2.42149
-2.41543
-2.41022
-2.40472
-2.39775
-2.38827
-2.3757
-2.36004
-2.34211
-2.3236
-2.3071
-2.29566
-2.29129
-3.7357
-3.72834
-3.71342
-3.69459
-3.67516
-3.65747
-3.64272
-3.63108
-3.62192
-3.61395
-3.60553
-3.59493
-3.58065
-3.56179
-3.53834
-3.51149
-3.48376
-3.45899
-3.44183
-3.43528
-3.74044
-3.72751
-3.70927
-3.68961
-3.67037
-3.65347
-3.63983
-3.62941
-3.62152
-3.61488
-3.60784
-3.59871
-3.58597
-3.56864
-3.5466
-3.52068
-3.49299
-3.4669
-3.44583
-3.43348
-3.75441
-3.73433
-3.71122
-3.68917
-3.66882
-3.6517
-3.63838
-3.62857
-3.62147
-3.61573
-3.60966
-3.60149
-3.58965
-3.57302
-3.55131
-3.525
-3.49582
-3.46673
-3.44025
-3.42056
-3.77557
-3.74831
-3.71947
-3.69383
-3.67122
-3.6528
-3.63883
-3.62883
-3.62183
-3.61633
-3.61053
-3.60257
-3.59072
-3.57372
-3.55105
-3.52296
-3.49088
-3.45749
-3.42476
-3.39768
-3.79968
-3.76558
-3.73093
-3.70133
-3.67594
-3.65564
-3.64049
-3.62979
-3.6224
-3.61668
-3.61068
-3.6024
-3.58995
-3.57189
-3.54751
-3.51688
-3.48124
-3.44308
-3.40393
-3.36972
-3.82366
-3.78355
-3.74356
-3.71009
-3.68181
-3.65941
-3.64281
-3.63113
-3.62306
-3.61681
-3.61029
-3.60133
-3.58791
-3.56842
-3.54198
-3.50851
-3.46914
-3.4263
-3.38121
-3.34066
-3.84524
-3.80018
-3.75566
-3.71877
-3.68782
-3.66341
-3.64534
-3.63258
-3.62371
-3.61678
-3.60957
-3.59978
-3.58524
-3.56422
-3.5357
-3.49949
-3.45666
-3.40964
-3.35949
-3.31374
-3.86273
-3.81391
-3.76589
-3.72624
-3.6931
-3.667
-3.64763
-3.6339
-3.62426
-3.61666
-3.60876
-3.59817
-3.58259
-3.56018
-3.52984
-3.4913
-3.44562
-3.39524
-3.34116
-3.29148
-3.87497
-3.82365
-3.77324
-3.73169
-3.697
-3.66967
-3.64936
-3.63489
-3.62465
-3.61653
-3.60809
-3.59687
-3.58049
-3.55704
-3.52537
-3.48515
-3.43744
-3.38474
-3.32799
-3.27568
-3.88126
-3.82869
-3.77708
-3.73455
-3.69907
-3.67109
-3.65028
-3.63542
-3.62486
-3.61644
-3.60772
-3.59615
-3.57934
-3.55534
-3.52296
-3.48186
-3.43311
-3.37921
-3.32111
-3.2675
-3.88126
-3.82869
-3.77708
-3.73455
-3.69907
-3.67109
-3.65028
-3.63542
-3.62486
-3.61644
-3.60772
-3.59615
-3.57934
-3.55534
-3.52296
-3.48186
-3.43311
-3.37921
-3.32111
-3.2675
-3.87497
-3.82365
-3.77324
-3.73169
-3.697
-3.66967
-3.64936
-3.63489
-3.62465
-3.61653
-3.60809
-3.59687
-3.58049
-3.55704
-3.52537
-3.48515
-3.43744
-3.38474
-3.32799
-3.27568
-3.86273
-3.81391
-3.76589
-3.72624
-3.6931
-3.667
-3.64763
-3.6339
-3.62426
-3.61666
-3.60876
-3.59817
-3.58259
-3.56018
-3.52984
-3.4913
-3.44562
-3.39524
-3.34116
-3.29148
-3.84524
-3.80018
-3.75566
-3.71877
-3.68782
-3.66341
-3.64534
-3.63258
-3.62371
-3.61678
-3.60957
-3.59978
-3.58524
-3.56422
-3.5357
-3.49949
-3.45666
-3.40964
-3.35949
-3.31374
-3.82366
-3.78355
-3.74356
-3.71009
-3.68181
-3.65941
-3.64281
-3.63113
-3.62306
-3.61681
-3.61029
-3.60133
-3.58791
-3.56842
-3.54198
-3.50851
-3.46914
-3.4263
-3.38121
-3.34066
-3.79968
-3.76558
-3.73093
-3.70133
-3.67594
-3.65564
-3.64049
-3.62978
-3.6224
-3.61668
-3.61068
-3.6024
-3.58995
-3.57189
-3.54751
-3.51688
-3.48124
-3.44308
-3.40393
-3.36972
-3.77557
-3.74831
-3.71947
-3.69383
-3.67122
-3.6528
-3.63883
-3.62883
-3.62183
-3.61633
-3.61053
-3.60257
-3.59072
-3.57372
-3.55105
-3.52296
-3.49088
-3.45749
-3.42476
-3.39768
-3.75441
-3.73433
-3.71122
-3.68917
-3.66882
-3.6517
-3.63838
-3.62857
-3.62147
-3.61573
-3.60966
-3.60149
-3.58965
-3.57303
-3.55131
-3.525
-3.49582
-3.46673
-3.44025
-3.42056
-3.74044
-3.72752
-3.70927
-3.6896
-3.67036
-3.65347
-3.63983
-3.62941
-3.62152
-3.61488
-3.60784
-3.59871
-3.58597
-3.56864
-3.5466
-3.52068
-3.493
-3.4669
-3.44583
-3.43348
-3.7357
-3.72835
-3.71342
-3.69459
-3.67516
-3.65747
-3.64272
-3.63108
-3.62192
-3.61395
-3.60553
-3.59493
-3.58065
-3.56179
-3.53834
-3.51149
-3.48376
-3.45899
-3.44183
-3.43528
-4.97471
-4.96443
-4.94406
-4.91877
-4.89309
-4.87014
-4.85151
-4.8374
-4.82686
-4.81811
-4.80881
-4.79649
-4.77895
-4.75478
-4.72381
-4.68753
-4.64939
-4.61474
-4.59029
-4.58069
-4.98165
-4.96346
-4.9385
-4.91201
-4.88659
-4.86472
-4.84761
-4.83516
-4.82638
-4.81946
-4.81209
-4.80182
-4.78644
-4.76446
-4.73548
-4.70055
-4.66249
-4.62589
-4.59581
-4.57755
-5.00126
-4.97307
-4.9413
-4.91149
-4.88455
-4.86236
-4.84567
-4.83405
-4.82635
-4.82067
-4.81462
-4.80568
-4.79156
-4.77055
-4.74203
-4.70654
-4.66633
-4.62539
-4.5874
-4.55841
-5.03064
-4.99242
-4.95269
-4.91794
-4.88788
-4.8639
-4.84632
-4.83443
-4.82684
-4.82147
-4.81579
-4.80711
-4.79295
-4.77137
-4.74146
-4.70341
-4.65903
-4.61188
-4.56484
-4.52509
-5.06394
-5.01622
-4.96845
-4.92824
-4.89437
-4.86781
-4.8486
-4.83574
-4.82762
-4.82192
-4.81592
-4.80675
-4.79171
-4.76861
-4.73624
-4.69453
-4.64502
-4.59102
-4.53474
-4.48472
-5.09696
-5.04091
-4.98577
-4.94024
-4.9024
-4.87299
-4.85179
-4.83757
-4.8285
-4.82204
-4.81528
-4.80514
-4.7887
-4.76354
-4.72822
-4.68244
-4.62758
-4.56686
-4.50207
-4.44299
-5.12661
-5.06371
-5.00233
-4.95209
-4.91061
-4.87845
-4.85524
-4.83955
-4.82935
-4.82194
-4.8142
-4.80287
-4.78483
-4.75747
-4.71918
-4.66948
-4.60968
-4.54299
-4.47097
-4.40448
-5.1506
-5.08251
-5.0163
-4.9623
-4.91783
-4.88334
-4.85837
-4.84134
-4.83007
-4.82172
-4.81301
-4.80054
-4.78101
-4.75168
-4.71079
-4.65777
-4.5939
-4.52242
-4.44481
-4.37273
-5.16739
-5.09583
-5.02635
-4.96973
-4.92314
-4.88699
-4.86072
-4.84268
-4.83059
-4.8215
-4.81203
-4.79866
-4.778
-4.74719
-4.7044
-4.64899
-4.58224
-4.50743
-4.42603
-4.35024
-5.17601
-5.10272
-5.03158
-4.97364
-4.92595
-4.88893
-4.86197
-4.84339
-4.83086
-4.82137
-4.81148
-4.79762
-4.77635
-4.74476
-4.70096
-4.64431
-4.57607
-4.49956
-4.41625
-4.33861
-5.17601
-5.10272
-5.03158
-4.97364
-4.92595
-4.88893
-4.86197
-4.84339
-4.83086
-4.82137
-4.81148
-4.79762
-4.77635
-4.74476
-4.70096
-4.64431
-4.57607
-4.49956
-4.41625
-4.33861
-5.16739
-5.09583
-5.02635
-4.96973
-4.92314
-4.88699
-4.86072
-4.84268
-4.83059
-4.8215
-4.81203
-4.79866
-4.778
-4.74719
-4.7044
-4.64899
-4.58224
-4.50743
-4.42603
-4.35024
-5.1506
-5.08251
-5.0163
-4.9623
-4.91783
-4.88334
-4.85837
-4.84134
-4.83007
-4.82172
-4.81301
-4.80054
-4.78101
-4.75168
-4.71079
-4.65777
-4.5939
-4.52242
-4.44481
-4.37273
-5.12661
-5.06371
-5.00233
-4.95209
-4.91061
-4.87845
-4.85524
-4.83955
-4.82935
-4.82194
-4.8142
-4.80287
-4.78483
-4.75747
-4.71918
-4.66948
-4.60968
-4.54299
-4.47097
-4.40448
-5.09696
-5.04091
-4.98576
-4.94024
-4.9024
-4.87299
-4.85179
-4.83757
-4.8285
-4.82204
-4.81528
-4.80515
-4.7887
-4.76354
-4.72822
-4.68244
-4.62758
-4.56686
-4.50207
-4.44299
-5.06394
-5.01622
-4.96845
-4.92824
-4.89437
-4.86781
-4.8486
-4.83574
-4.82762
-4.82192
-4.81592
-4.80675
-4.79171
-4.76861
-4.73625
-4.69453
-4.64502
-4.59102
-4.53474
-4.48472
-5.03064
-4.99242
-4.95269
-4.91794
-4.88788
-4.8639
-4.84632
-4.83443
-4.82684
-4.82147
-4.81579
-4.80711
-4.79295
-4.77137
-4.74146
-4.70341
-4.65903
-4.61188
-4.56484
-4.52509
-5.00126
-4.97307
-4.9413
-4.91149
-4.88454
-4.86236
-4.84567
-4.83405
-4.82635
-4.82067
-4.81462
-4.80568
-4.79156
-4.77056
-4.74203
-4.70654
-4.66634
-4.62539
-4.58741
-4.55841
-4.98165
-4.96347
-4.9385
-4.91201
-4.88659
-4.86472
-4.84761
-4.83516
-4.82638
-4.81946
-4.81209
-4.80182
-4.78644
-4.76446
-4.73548
-4.70055
-4.66249
-4.6259
-4.59581
-4.57755
-4.97471
-4.96443
-4.94406
-4.91877
-4.89309
-4.87014
-4.85151
-4.8374
-4.82686
-4.81811
-4.80881
-4.79649
-4.77895
-4.75478
-4.72381
-4.68754
-4.64939
-4.61474
-4.59029
-4.58069
-6.20776
-6.19376
-6.16695
-6.13456
-6.10254
-6.07491
-6.05369
-6.03902
-6.02958
-6.02287
-6.01562
-6.00436
-5.98589
-5.95798
-5.92007
-5.87382
-5.82369
-5.77694
-5.74297
-5.72899
-6.2178
-6.19287
-6.15984
-6.12579
-6.0941
-6.06789
-6.04865
-6.03617
-6.02903
-6.02473
-6.02005
-6.01155
-5.99601
-5.97109
-5.93593
-5.89158
-5.8416
-5.79209
-5.75007
-5.72338
-6.24463
-6.20605
-6.16378
-6.12526
-6.09153
-6.06488
-6.04616
-6.03476
-6.02903
-6.02635
-6.02341
-6.01668
-6.00281
-5.97921
-5.94463
-5.89949
-5.84651
-5.79082
-5.73749
-5.69528
-6.28418
-6.23199
-6.179
-6.13387
-6.096
-6.06696
-6.04706
-6.03527
-6.02966
-6.02737
-6.02487
-6.01844
-6.00447
-5.98004
-5.94349
-5.89473
-5.83588
-5.77143
-5.70523
-5.64767
-6.32865
-6.26367
-6.19989
-6.14749
-6.10455
-6.07211
-6.05004
-6.03697
-6.03063
-6.02786
-6.02492
-6.01778
-6.00255
-5.97597
-5.936
-5.88211
-5.81605
-5.74195
-5.66273
-5.59069
-6.37252
-6.29636
-6.22274
-6.16327
-6.1151
-6.07888
-6.0542
-6.03932
-6.03171
-6.02792
-6.02393
-6.01543
-5.99826
-5.96881
-5.92473
-5.86516
-5.79163
-5.70813
-5.61699
-5.53229
-6.41175
-6.32644
-6.24452
-6.17882
-6.12585
-6.08602
-6.05868
-6.04186
-6.03276
-6.02768
-6.02235
-6.01222
-5.99284
-5.96037
-5.91216
-5.84714
-5.76674
-5.67491
-5.57372
-5.47873
-6.44343
-6.3512
-6.26286
-6.19219
-6.13527
-6.09239
-6.06274
-6.04416
-6.03364
-6.0273
-6.02066
-6.00896
-5.98754
-5.95235
-5.90055
-5.83094
-5.74488
-5.64641
-5.53747
-5.43476
-6.46555
-6.36871
-6.27602
-6.20191
-6.14221
-6.09713
-6.06578
-6.04588
-6.03427
-6.02695
-6.01928
-6.00636
-5.98339
-5.94617
-5.89174
-5.81884
-5.72879
-5.62571
-5.51154
-5.40371
-6.4769
-6.37776
-6.28288
-6.20701
-6.14587
-6.09965
-6.06741
-6.04679
-6.0346
-6.02674
-6.01851
-6.00493
-5.98112
-5.94282
-5.88702
-5.81239
-5.72029
-5.61486
-5.49805
-5.38769
-6.4769
-6.37776
-6.28288
-6.20701
-6.14587
-6.09965
-6.06741
-6.04679
-6.0346
-6.02674
-6.01851
-6.00493
-5.98112
-5.94282
-5.88702
-5.81239
-5.72029
-5.61486
-5.49805
-5.38769
-6.46555
-6.36871
-6.27602
-6.20191
-6.14221
-6.09713
-6.06578
-6.04588
-6.03427
-6.02695
-6.01928
-6.00636
-5.98339
-5.94617
-5.89175
-5.81884
-5.72879
-5.62571
-5.51154
-5.40371
-6.44343
-6.3512
-6.26286
-6.19219
-6.13527
-6.09239
-6.06274
-6.04416
-6.03364
-6.0273
-6.02066
-6.00896
-5.98754
-5.95235
-5.90055
-5.83094
-5.74488
-5.64641
-5.53747
-5.43476
-6.41175
-6.32644
-6.24452
-6.17882
-6.12585
-6.08602
-6.05868
-6.04186
-6.03276
-6.02768
-6.02235
-6.01222
-5.99284
-5.96037
-5.91216
-5.84715
-5.76674
-5.67491
-5.57372
-5.47873
-6.37252
-6.29636
-6.22274
-6.16327
-6.1151
-6.07888
-6.0542
-6.03932
-6.03171
-6.02792
-6.02393
-6.01544
-5.99826
-5.96881
-5.92473
-5.86516
-5.79163
-5.70813
-5.61699
-5.53229
-6.32865
-6.26367
-6.19989
-6.14749
-6.10455
-6.07211
-6.05004
-6.03697
-6.03063
-6.02786
-6.02492
-6.01778
-6.00255
-5.97597
-5.936
-5.88211
-5.81605
-5.74195
-5.66273
-5.59069
-6.28418
-6.23199
-6.179
-6.13387
-6.096
-6.06696
-6.04705
-6.03527
-6.02966
-6.02737
-6.02487
-6.01844
-6.00447
-5.98004
-5.94349
-5.89473
-5.83588
-5.77144
-5.70523
-5.64767
-6.24463
-6.20605
-6.16378
-6.12526
-6.09153
-6.06488
-6.04616
-6.03476
-6.02903
-6.02635
-6.02341
-6.01668
-6.00281
-5.97921
-5.94463
-5.89949
-5.84651
-5.79082
-5.73749
-5.69529
-6.2178
-6.19287
-6.15984
-6.12579
-6.0941
-6.06789
-6.04864
-6.03617
-6.02903
-6.02473
-6.02005
-6.01155
-5.99601
-5.9711
-5.93593
-5.89158
-5.8416
-5.79209
-5.75007
-5.72338
-6.20776
-6.19376
-6.16695
-6.13456
-6.10254
-6.07491
-6.05368
-6.03902
-6.02958
-6.02287
-6.01562
-6.00436
-5.98589
-5.95798
-5.92007
-5.87382
-5.82369
-5.77694
-5.74297
-5.72899
-7.43169
-7.41297
-7.37853
-7.33833
-7.29998
-7.26857
-7.24656
-7.23402
-7.22907
-7.2283
-7.22726
-7.22109
-7.20517
-7.17606
-7.13239
-7.0758
-7.01179
-6.94997
-6.90333
-6.88303
-7.446
-7.41244
-7.36972
-7.32728
-7.28934
-7.25974
-7.24023
-7.23047
-7.22846
-7.23079
-7.23307
-7.2305
-7.21847
-7.19336
-7.15343
-7.09946
-7.03572
-6.97006
-6.91203
-6.87321
-7.48203
-7.4302
-7.37517
-7.32682
-7.28621
-7.25601
-7.23714
-7.22873
-7.22849
-7.23287
-7.23738
-7.23709
-7.22722
-7.20383
-7.16463
-7.10955
-7.04165
-6.96732
-6.89322
-6.83218
-7.53417
-7.46424
-7.39506
-7.33806
-7.29205
-7.25873
-7.2383
-7.22936
-7.22925
-7.23409
-7.23912
-7.23915
-7.22907
-7.20447
-7.16251
-7.10238
-7.0263
-6.93975
-6.84753
-6.76475
-7.59224
-7.50545
-7.4221
-7.35562
-7.30305
-7.26531
-7.2421
-7.23148
-7.23039
-7.23459
-7.23897
-7.23801
-7.22617
-7.1986
-7.15191
-7.08469
-6.99861
-6.89863
-6.78825
-6.68526
-7.64916
-7.5477
-7.4515
-7.37586
-7.31652
-7.27393
-7.24735
-7.23441
-7.23166
-7.2345
-7.23747
-7.23467
-7.22017
-7.18869
-7.13636
-7.06134
-6.96496
-6.85196
-6.72511
-6.60462
-7.69985
-7.58643
-7.47943
-7.39573
-7.33021
-7.28298
-7.253
-7.23756
-7.23288
-7.23403
-7.23523
-7.23023
-7.21276
-7.17717
-7.11922
-7.03675
-6.93093
-6.80649
-6.66582
-6.53123
-7.74064
-7.61821
-7.50288
-7.41277
-7.34219
-7.29105
-7.2581
-7.2404
-7.2339
-7.23341
-7.23288
-7.22579
-7.20559
-7.16632
-7.10351
-7.01478
-6.90124
-6.76769
-6.61642
-6.47131
-7.76908
-7.64064
-7.51968
-7.42514
-7.35099
-7.29705
-7.26193
-7.24253
-7.23463
-7.23286
-7.23098
-7.22228
-7.2
-7.158
-7.09164
-6.99843
-6.87945
-6.73962
-6.58121
-6.42918
-7.78365
-7.65222
-7.52842
-7.43162
-7.35563
-7.30023
-7.26397
-7.24367
-7.23501
-7.23254
-7.22993
-7.22035
-7.19696
-7.15351
-7.08529
-6.98974
-6.86796
-6.72493
-6.56294
-6.40747
-7.78365
-7.65222
-7.52842
-7.43162
-7.35563
-7.30023
-7.26397
-7.24367
-7.23501
-7.23254
-7.22993
-7.22035
-7.19696
-7.15351
-7.08529
-6.98974
-6.86796
-6.72493
-6.56294
-6.40747
-7.76908
-7.64064
-7.51968
-7.42514
-7.35099
-7.29705
-7.26193
-7.24253
-7.23463
-7.23286
-7.23098
-7.22228
-7.2
-7.158
-7.09164
-6.99843
-6.87945
-6.73962
-6.58121
-6.42918
-7.74064
-7.61821
-7.50288
-7.41277
-7.34219
-7.29105
-7.2581
-7.2404
-7.2339
-7.23341
-7.23288
-7.22579
-7.20559
-7.16632
-7.10351
-7.01478
-6.90124
-6.76769
-6.61642
-6.47132
-7.69985
-7.58643
-7.47943
-7.39573
-7.33021
-7.28298
-7.253
-7.23756
-7.23288
-7.23403
-7.23523
-7.23023
-7.21276
-7.17717
-7.11922
-7.03675
-6.93093
-6.80649
-6.66582
-6.53123
-7.64916
-7.5477
-7.4515
-7.37586
-7.31652
-7.27393
-7.24735
-7.23441
-7.23166
-7.2345
-7.23747
-7.23467
-7.22017
-7.18869
-7.13636
-7.06134
-6.96496
-6.85197
-6.72511
-6.60462
-7.59224
-7.50545
-7.4221
-7.35562
-7.30304
-7.26531
-7.2421
-7.23148
-7.23039
-7.23459
-7.23897
-7.23801
-7.22617
-7.1986
-7.15191
-7.08469
-6.99861
-6.89863
-6.78825
-6.68526
-7.53417
-7.46424
-7.39506
-7.33805
-7.29205
-7.25872
-7.2383
-7.22936
-7.22925
-7.23409
-7.23912
-7.23916
-7.22907
-7.20448
-7.16252
-7.10239
-7.0263
-6.93975
-6.84753
-6.76475
-7.48203
-7.4302
-7.37517
-7.32682
-7.28621
-7.256
-7.23714
-7.22872
-7.22849
-7.23287
-7.23738
-7.23709
-7.22722
-7.20383
-7.16464
-7.10955
-7.04165
-6.96733
-6.89322
-6.83218
-7.446
-7.41244
-7.36972
-7.32728
-7.28934
-7.25974
-7.24023
-7.23047
-7.22846
-7.23079
-7.23307
-7.2305
-7.21847
-7.19336
-7.15343
-7.09946
-7.03572
-6.97006
-6.91203
-6.87321
-7.43169
-7.41297
-7.37853
-7.33833
-7.29998
-7.26857
-7.24656
-7.23401
-7.22907
-7.2283
-7.22726
-7.22109
-7.20517
-7.17606
-7.13239
-7.0758
-7.01179
-6.94997
-6.90333
-6.88303
-8.64197
-8.61734
-8.5739
-8.52514
-8.48067
-8.44681
-8.4265
-8.4197
-8.42384
-8.43437
-8.44531
-8.44997
-8.44179
-8.4155
-8.36836
-8.30157
-8.2216
-8.14089
-8.0772
-8.04776
-8.66197
-8.61753
-8.56321
-8.5115
-8.46752
-8.4359
-8.41871
-8.41537
-8.42317
-8.43759
-8.45273
-8.462
-8.45887
-8.43787
-8.39573
-8.33254
-8.25303
-8.16705
-8.0873
-8.03102
-8.70958
-8.64106
-8.57061
-8.51123
-8.46381
-8.43137
-8.41493
-8.41322
-8.42322
-8.44018
-8.45809
-8.47024
-8.46985
-8.45103
-8.40979
-8.34502
-8.25976
-8.16171
-8.05926
-7.97125
-8.77718
-8.68499
-8.59615
-8.52563
-8.47129
-8.43485
-8.4164
-8.41399
-8.42408
-8.44155
-8.46006
-8.47252
-8.47172
-8.45116
-8.40608
-8.33431
-8.23772
-8.12266
-7.99479
-7.87615
-8.85173
-8.73765
-8.63053
-8.54787
-8.48515
-8.44311
-8.4211
-8.41655
-8.42536
-8.44196
-8.45957
-8.47064
-8.46742
-8.4428
-8.39123
-8.30973
-8.19937
-8.06572
-7.91266
-7.76592
-8.92432
-8.79131
-8.66768
-8.57334
-8.50205
-8.45386
-8.42759
-8.42009
-8.42679
-8.44162
-8.45735
-8.46596
-8.45918
-8.42927
-8.37006
-8.27793
-8.15347
-8.00194
-7.8262
-7.65543
-8.98864
-8.84027
-8.70284
-8.59826
-8.51914
-8.4651
-8.43456
-8.42391
-8.42815
-8.44082
-8.45424
-8.45996
-8.44923
-8.41381
-8.34703
-8.24482
-8.1075
-7.94033
-7.74573
-7.55575
-9.04023
-8.88032
-8.73227
-8.61957
-8.53406
-8.47511
-8.44085
-8.42735
-8.42929
-8.43986
-8.45105
-8.45404
-8.43969
-8.39938
-8.32609
-8.21543
-8.06765
-7.88811
-7.67911
-7.47491
-9.0761
-8.90852
-8.7533
-8.635
-8.545
-8.48254
-8.44555
-8.42993
-8.43011
-8.43905
-8.44851
-8.44939
-8.43231
-8.38839
-8.31035
-8.19367
-8.03855
-7.8505
-7.63185
-7.41831
-9.09447
-8.92306
-8.76424
-8.64308
-8.55078
-8.48647
-8.44806
-8.4313
-8.43053
-8.43859
-8.4471
-8.44684
-8.42831
-8.38247
-8.30195
-8.18214
-8.02325
-7.83087
-7.60739
-7.38924
-9.09447
-8.92306
-8.76424
-8.64308
-8.55078
-8.48647
-8.44806
-8.4313
-8.43053
-8.43859
-8.4471
-8.44684
-8.42831
-8.38247
-8.30195
-8.18214
-8.02325
-7.83087
-7.60739
-7.38924
-9.0761
-8.90852
-8.7533
-8.635
-8.545
-8.48254
-8.44555
-8.42993
-8.43011
-8.43905
-8.44851
-8.44939
-8.43231
-8.38839
-8.31036
-8.19367
-8.03855
-7.8505
-7.63185
-7.41831
-9.04023
-8.88032
-8.73227
-8.61957
-8.53406
-8.47511
-8.44085
-8.42735
-8.42929
-8.43987
-8.45105
-8.45404
-8.43969
-8.39938
-8.32609
-8.21543
-8.06765
-7.88811
-7.67912
-7.47491
-8.98864
-8.84027
-8.70284
-8.59826
-8.51914
-8.4651
-8.43456
-8.42391
-8.42815
-8.44082
-8.45424
-8.45996
-8.44923
-8.41381
-8.34703
-8.24482
-8.1075
-7.94033
-7.74573
-7.55575
-8.92432
-8.79131
-8.66768
-8.57334
-8.50205
-8.45386
-8.42759
-8.42009
-8.42679
-8.44162
-8.45735
-8.46596
-8.45918
-8.42927
-8.37007
-8.27793
-8.15347
-8.00194
-7.8262
-7.65543
-8.85173
-8.73765
-8.63053
-8.54787
-8.48515
-8.44311
-8.4211
-8.41655
-8.42536
-8.44196
-8.45957
-8.47064
-8.46743
-8.4428
-8.39123
-8.30973
-8.19937
-8.06572
-7.91266
-7.76592
-8.77718
-8.68499
-8.59615
-8.52563
-8.47129
-8.43485
-8.4164
-8.41399
-8.42408
-8.44155
-8.46006
-8.47252
-8.47172
-8.45117
-8.40608
-8.33431
-8.23772
-8.12266
-7.9948
-7.87616
-8.70958
-8.64106
-8.57061
-8.51123
-8.46381
-8.43137
-8.41493
-8.41322
-8.42322
-8.44018
-8.45809
-8.47024
-8.46985
-8.45103
-8.4098
-8.34502
-8.25976
-8.16171
-8.05926
-7.97125
-8.66197
-8.61753
-8.56321
-8.5115
-8.46752
-8.4359
-8.41871
-8.41537
-8.42317
-8.43759
-8.45273
-8.462
-8.45887
-8.43787
-8.39573
-8.33254
-8.25303
-8.16705
-8.0873
-8.03102
-8.64197
-8.61734
-8.5739
-8.52514
-8.48067
-8.44681
-8.4265
-8.4197
-8.42384
-8.43437
-8.44531
-8.44997
-8.44179