/*--------------------------------*- C++ -*----------------------------------*\
  =========                 |
  \\      /  F ield         | OpenFOAM: The Open Source CFD Toolbox
   \\    /   O peration     | Website:  https://openfoam.org
    \\  /    A nd           | Version:  6
     \\/     M anipulation  |
\*---------------------------------------------------------------------------*/
FoamFile
{
    version     2.0;
    format      ascii;
    class       surfaceScalarField;
    location    "0.068";
    object      phi;
}
// * * * * * * * * * * * * * * * * * * * * * * * * * * * * * * * * * * * * * //

dimensions      [0 3 -1 0 0 0 0];

internalField   nonuniform List<scalar> 
92400
(
2.71381e-11
9.81626e-11
1.49506e-06
1.67593e-10
1.43278e-10
3.30812e-06
4.29247e-10
1.28664e-10
4.58727e-06
7.81843e-10
1.00773e-10
5.55118e-06
1.1861e-09
7.03236e-11
6.29444e-06
1.59701e-09
4.44178e-11
6.86697e-06
1.97035e-09
2.50039e-11
7.29868e-06
2.26748e-09
1.11686e-11
7.60863e-06
2.45753e-09
1.80238e-12
7.80909e-06
2.52011e-09
-4.98191e-12
7.90738e-06
2.44732e-09
-1.142e-11
7.90692e-06
2.2449e-09
-1.97114e-11
7.80762e-06
1.93265e-09
-3.2001e-11
7.60591e-06
1.54342e-09
-4.99161e-11
7.29438e-06
1.12026e-09
-7.40103e-11
6.86082e-06
7.12789e-10
-1.04175e-10
6.28635e-06
3.69846e-10
-1.36777e-10
5.54144e-06
1.29703e-10
-1.62397e-10
4.57675e-06
1.39527e-11
-1.67464e-10
3.29855e-06
-1.05613e-10
1.48961e-06
1.54869e-10
2.19442e-10
3.3084e-06
6.30908e-10
3.57446e-10
8.10483e-06
1.39788e-09
3.47321e-10
1.17242e-05
2.38048e-09
2.84709e-10
1.45221e-05
3.47674e-09
2.08371e-10
1.67028e-05
4.57561e-09
1.38092e-10
1.83912e-05
5.56833e-09
8.13743e-11
1.96679e-05
6.35744e-09
3.87885e-11
2.05861e-05
6.86508e-09
7.70175e-12
2.11806e-05
7.03933e-09
-1.67679e-11
2.14725e-05
6.85927e-09
-4.05905e-11
2.14716e-05
6.3382e-09
-6.98814e-11
2.11778e-05
5.52448e-09
-1.10213e-10
2.05808e-05
4.49906e-09
-1.65476e-10
1.96592e-05
3.36905e-09
-2.3637e-10
1.83783e-05
2.25633e-09
-3.1904e-10
1.66855e-05
1.28275e-09
-4.01034e-10
1.45012e-05
5.51431e-10
-4.56107e-10
1.17018e-05
1.23793e-10
-4.38712e-10
8.0851e-06
-2.51233e-10
3.29825e-06
2.86068e-10
3.09611e-10
4.58829e-06
1.09052e-09
5.36462e-10
1.17256e-05
2.32459e-09
5.47514e-10
1.73306e-05
3.86219e-09
4.65433e-10
2.17592e-05
5.55087e-09
3.51895e-10
2.52532e-05
7.22831e-09
2.40421e-10
2.79777e-05
8.73635e-09
1.45931e-10
3.00466e-05
9.93346e-09
7.18767e-11
3.15386e-05
1.07062e-08
1.5131e-11
3.25062e-05
1.09783e-08
-3.16282e-11
3.29819e-05
1.07184e-08
-7.78192e-11
3.2981e-05
9.94433e-09
-1.33227e-10
3.25031e-05
8.72491e-09
-2.0644e-10
3.15323e-05
7.1762e-09
-3.02813e-10
3.00359e-05
5.45257e-09
-4.21835e-10
2.79614e-05
3.73133e-09
-5.54162e-10
2.52309e-05
2.19223e-09
-6.76425e-10
2.17318e-05
9.9326e-10
-7.4453e-10
1.73013e-05
2.45976e-10
-6.85968e-10
1.17e-05
-3.71989e-10
4.57555e-06
4.00663e-10
3.53701e-10
5.55334e-06
1.4914e-09
6.41074e-10
1.45258e-05
3.13029e-09
6.77613e-10
2.17619e-05
5.14282e-09
5.92124e-10
2.75805e-05
7.33161e-09
4.58697e-10
3.22237e-05
9.49201e-09
3.20433e-10
3.5871e-05
1.14269e-08
1.98571e-10
3.86541e-05
1.29608e-08
9.97163e-11
4.06673e-05
1.39531e-08
2.11851e-11
4.19756e-05
1.43089e-08
-4.55916e-11
4.26196e-05
1.39882e-08
-1.12218e-10
4.26188e-05
1.30118e-08
-1.90871e-10
4.19726e-05
1.1463e-08
-2.919e-10
4.0661e-05
9.48394e-09
-4.20982e-10
3.86428e-05
7.26521e-09
-5.75632e-10
3.58531e-05
5.02788e-09
-7.41147e-10
3.21984e-05
3.00005e-09
-8.8502e-10
2.75491e-05
1.38944e-09
-9.5038e-10
2.1728e-05
3.56864e-10
-8.49032e-10
1.44962e-05
-4.42241e-10
5.53873e-06
4.9134e-10
3.54562e-10
6.29796e-06
1.81623e-09
6.64319e-10
1.67092e-05
3.78953e-09
7.20721e-10
2.52593e-05
6.1945e-09
6.433e-10
3.22272e-05
8.79489e-09
5.07724e-10
3.78411e-05
1.13507e-08
3.60685e-10
4.22806e-05
1.36336e-08
2.269e-10
4.56838e-05
1.54414e-08
1.15308e-10
4.81533e-05
1.66124e-08
2.41676e-11
4.97613e-05
1.70375e-08
-5.51343e-11
5.0554e-05
1.66698e-08
-1.3484e-10
5.05533e-05
1.55318e-08
-2.27888e-10
4.97587e-05
1.37175e-08
-3.44966e-10
4.81472e-05
1.1389e-08
-4.91168e-10
4.56722e-05
8.76489e-09
-6.62092e-10
4.22616e-05
6.10164e-09
-8.394e-10
3.78139e-05
3.66787e-09
-9.85554e-10
3.21929e-05
1.71448e-09
-1.03842e-09
2.52218e-05
4.459e-10
-9.0653e-10
1.66765e-05
-4.58258e-10
6.28173e-06
5.59293e-10
3.20349e-10
6.87188e-06
2.06596e-09
6.15145e-10
1.84005e-05
4.30318e-09
6.80503e-10
2.79872e-05
7.02012e-09
6.173e-10
3.58783e-05
9.94842e-09
4.94154e-10
4.22843e-05
1.2819e-08
3.55495e-10
4.73789e-05
1.53784e-08
2.26086e-10
5.13e-05
1.74034e-08
1.15736e-10
5.41534e-05
1.87163e-08
2.36771e-11
5.60149e-05
1.91966e-08
-5.78048e-11
5.69335e-05
1.87923e-08
-1.40151e-10
5.69329e-05
1.7527e-08
-2.35518e-10
5.60125e-05
1.55028e-08
-3.53693e-10
5.41475e-05
1.28968e-08
-4.98702e-10
5.12883e-05
9.94978e-09
-6.64979e-10
4.7359e-05
6.94678e-09
-8.33178e-10
4.22553e-05
4.18963e-09
-9.65718e-10
3.58413e-05
1.96501e-09
-1.00289e-09
2.79467e-05
5.12706e-10
-8.60489e-10
1.83648e-05
-4.254e-10
6.85415e-06
6.07807e-10
2.60158e-10
7.30485e-06
2.24872e-09
5.08617e-10
1.96797e-05
4.68448e-09
5.70689e-10
3.00592e-05
7.63854e-09
5.2387e-10
3.86645e-05
1.08172e-08
4.23747e-10
4.56906e-05
1.39287e-08
3.07659e-10
5.13031e-05
1.66995e-08
1.97179e-10
5.56371e-05
1.88906e-08
1.01377e-10
5.87983e-05
2.03118e-08
2.01841e-11
6.08639e-05
2.08342e-08
-5.25784e-11
6.18842e-05
2.04019e-08
-1.26408e-10
6.18837e-05
1.90392e-08
-2.11429e-10
6.08617e-05
1.68542e-08
-3.15625e-10
5.87925e-05
1.40356e-08
-4.4183e-10
5.56251e-05
1.08415e-08
-5.84427e-10
5.12824e-05
7.57891e-09
-7.25891e-10
4.56601e-05
4.57606e-09
-8.33391e-10
3.86253e-05
2.14764e-09
-8.56293e-10
3.0016e-05
5.60023e-10
-7.25496e-10
1.96415e-05
-3.52869e-10
7.28577e-06
6.40431e-10
1.82297e-10
7.61586e-06
2.37464e-09
3.60796e-10
2.06e-05
4.95075e-09
4.08757e-10
3.15536e-05
8.07411e-09
3.78291e-10
4.068e-05
1.14326e-08
3.08184e-10
4.81622e-05
1.47175e-08
2.25161e-10
5.41585e-05
1.76408e-08
1.45048e-10
5.88003e-05
1.99516e-08
7.47558e-11
6.21921e-05
2.14506e-08
1.45288e-11
6.4411e-05
2.20032e-08
-3.99039e-11
6.55079e-05
2.15504e-08
-9.52859e-11
6.55074e-05
2.01171e-08
-1.58824e-10
6.44089e-05
1.78158e-08
-2.36109e-10
6.21862e-05
1.48437e-08
-3.28878e-10
5.87879e-05
1.14714e-08
-4.32617e-10
5.4137e-05
8.0225e-09
-5.3411e-10
4.81303e-05
4.84449e-09
-6.09198e-10
4.06388e-05
2.27249e-09
-6.21373e-10
3.1508e-05
5.91417e-10
-5.21951e-10
2.05596e-05
-2.5106e-10
7.59565e-06
6.60316e-10
9.36735e-11
7.81713e-06
2.45293e-09
1.86725e-10
2.1196e-05
5.11811e-09
2.12741e-10
3.25229e-05
8.34983e-09
1.97825e-10
4.19899e-05
1.18241e-08
1.61837e-10
4.97716e-05
1.52208e-08
1.18672e-10
5.60211e-05
1.82426e-08
7.66724e-11
6.08669e-05
2.06307e-08
3.95629e-11
6.44119e-05
2.218e-08
7.56275e-12
6.67331e-05
2.27519e-08
-2.15017e-11
6.7881e-05
2.22855e-08
-5.11202e-11
6.78806e-05
2.08063e-08
-8.50273e-11
6.67309e-05
1.84296e-08
-1.2609e-10
6.44059e-05
1.53581e-08
-1.75121e-10
6.08542e-05
1.18708e-08
-2.29612e-10
5.59989e-05
8.30209e-09
-2.8248e-10
4.97386e-05
5.0122e-09
-3.20956e-10
4.19472e-05
2.34943e-09
-3.2597e-10
3.24756e-05
6.10272e-10
-2.72444e-10
2.11541e-05
-1.30202e-10
7.79611e-06
6.69691e-10
4.56396e-16
7.91602e-06
2.49032e-09
2.36214e-15
2.1489e-05
5.1986e-09
3.90806e-15
3.29997e-05
8.48307e-09
4.1054e-15
4.26349e-05
1.20138e-08
3.29273e-15
5.0565e-05
1.54653e-08
2.06711e-15
5.69403e-05
1.85353e-08
9.0048e-16
6.18876e-05
2.09613e-08
-3.98546e-18
6.55092e-05
2.25352e-08
-6.42323e-16
6.78814e-05
2.31165e-08
-1.11207e-15
6.90548e-05
2.26435e-08
-1.54037e-15
6.90544e-05
2.11416e-08
-2.03964e-15
6.78792e-05
1.87278e-08
-2.67592e-15
6.55031e-05
1.56076e-08
-3.4182e-15
6.18747e-05
1.20639e-08
-4.19771e-15
5.69177e-05
8.43673e-09
-5.00382e-15
5.05314e-05
5.09248e-09
-5.74224e-15
4.25914e-05
2.38593e-09
-6.08675e-15
3.29515e-05
6.19059e-10
-4.96607e-15
2.14462e-05
-2.48778e-15
7.89458e-06
6.69691e-10
-9.3672e-11
7.91602e-06
2.49032e-09
-1.86719e-10
2.1489e-05
5.1986e-09
-2.12732e-10
3.29997e-05
8.48307e-09
-1.97816e-10
4.26349e-05
1.20138e-08
-1.61831e-10
5.0565e-05
1.54653e-08
-1.18668e-10
5.69403e-05
1.85353e-08
-7.66709e-11
6.18876e-05
2.09613e-08
-3.95631e-11
6.55092e-05
2.25352e-08
-7.5642e-12
6.78814e-05
2.31165e-08
2.14995e-11
6.90548e-05
2.26435e-08
5.11173e-11
6.90544e-05
2.11416e-08
8.50234e-11
6.78792e-05
1.87278e-08
1.26085e-10
6.55031e-05
1.56076e-08
1.75114e-10
6.18747e-05
1.20639e-08
2.29604e-10
5.69177e-05
8.43673e-09
2.82471e-10
5.05314e-05
5.09248e-09
3.20944e-10
4.25914e-05
2.38593e-09
3.25957e-10
3.29515e-05
6.19059e-10
2.72433e-10
2.14462e-05
1.30197e-10
7.89458e-06
6.60316e-10
-1.82293e-10
7.81713e-06
2.45293e-09
-3.60785e-10
2.1196e-05
5.11811e-09
-4.08744e-10
3.25229e-05
8.34983e-09
-3.7828e-10
4.19899e-05
1.18241e-08
-3.08178e-10
4.97716e-05
1.52208e-08
-2.25159e-10
5.60211e-05
1.82426e-08
-1.45048e-10
6.08669e-05
2.06307e-08
-7.47568e-11
6.44119e-05
2.218e-08
-1.45305e-11
6.67331e-05
2.27519e-08
3.99017e-11
6.7881e-05
2.22855e-08
9.52833e-11
6.78806e-05
2.08063e-08
1.58821e-10
6.67309e-05
1.84296e-08
2.36104e-10
6.4406e-05
1.53581e-08
3.28873e-10
6.08542e-05
1.18708e-08
4.32611e-10
5.59989e-05
8.30209e-09
5.34102e-10
4.97386e-05
5.0122e-09
6.09187e-10
4.19472e-05
2.34943e-09
6.21358e-10
3.24756e-05
6.10271e-10
5.21936e-10
2.11541e-05
2.51053e-10
7.79611e-06
6.4043e-10
-2.60152e-10
7.61586e-06
2.37464e-09
-5.08601e-10
2.06e-05
4.95075e-09
-5.70675e-10
3.15536e-05
8.07411e-09
-5.23861e-10
4.068e-05
1.14326e-08
-4.23743e-10
4.81622e-05
1.47175e-08
-3.07657e-10
5.41585e-05
1.76408e-08
-1.97179e-10
5.88003e-05
1.99516e-08
-1.01379e-10
6.21921e-05
2.14506e-08
-2.01862e-11
6.4411e-05
2.20032e-08
5.25762e-11
6.55079e-05
2.15504e-08
1.26405e-10
6.55074e-05
2.01171e-08
2.11426e-10
6.44089e-05
1.78158e-08
3.15622e-10
6.21862e-05
1.48437e-08
4.41826e-10
5.87879e-05
1.14714e-08
5.84423e-10
5.4137e-05
8.0225e-09
7.25885e-10
4.81303e-05
4.84449e-09
8.33381e-10
4.06388e-05
2.27248e-09
8.56277e-10
3.1508e-05
5.91415e-10
7.2548e-10
2.05596e-05
3.52862e-10
7.59565e-06
6.07807e-10
-3.20344e-10
7.30485e-06
2.24871e-09
-6.15136e-10
1.96797e-05
4.68447e-09
-6.80498e-10
3.00592e-05
7.63853e-09
-6.17298e-10
3.86645e-05
1.08172e-08
-4.94153e-10
4.56906e-05
1.39287e-08
-3.55496e-10
5.13031e-05
1.66995e-08
-2.26088e-10
5.56371e-05
1.88907e-08
-1.15739e-10
5.87983e-05
2.03118e-08
-2.36794e-11
6.08639e-05
2.08342e-08
5.78029e-11
6.18842e-05
2.04019e-08
1.4015e-10
6.18837e-05
1.90392e-08
2.35516e-10
6.08617e-05
1.68542e-08
3.53691e-10
5.87925e-05
1.40356e-08
4.98701e-10
5.56251e-05
1.08415e-08
6.64977e-10
5.12824e-05
7.57891e-09
8.33176e-10
4.56601e-05
4.57605e-09
9.65715e-10
3.86253e-05
2.14763e-09
1.00289e-09
3.0016e-05
5.60022e-10
8.60482e-10
1.96415e-05
4.25398e-10
7.28577e-06
5.59292e-10
-3.54565e-10
6.87188e-06
2.06595e-09
-6.64329e-10
1.84005e-05
4.30316e-09
-7.20732e-10
2.79872e-05
7.02012e-09
-6.43306e-10
3.58783e-05
9.94842e-09
-5.07727e-10
4.22843e-05
1.28191e-08
-3.60688e-10
4.73789e-05
1.53784e-08
-2.26903e-10
5.13e-05
1.74035e-08
-1.15311e-10
5.41534e-05
1.87163e-08
-2.41705e-11
5.60149e-05
1.91966e-08
5.51323e-11
5.69335e-05
1.87923e-08
1.34839e-10
5.69329e-05
1.7527e-08
2.27888e-10
5.60125e-05
1.55028e-08
3.44966e-10
5.41475e-05
1.28968e-08
4.91167e-10
5.12883e-05
9.94979e-09
6.62091e-10
4.7359e-05
6.94678e-09
8.39403e-10
4.22553e-05
4.18962e-09
9.85563e-10
3.58413e-05
1.965e-09
1.03844e-09
2.79467e-05
5.12706e-10
9.06542e-10
1.83648e-05
4.58264e-10
6.85415e-06
4.91336e-10
-3.53707e-10
6.29796e-06
1.81622e-09
-6.41092e-10
1.67092e-05
3.78952e-09
-6.77625e-10
2.52593e-05
6.19449e-09
-5.92128e-10
3.22272e-05
8.7949e-09
-4.58702e-10
3.78411e-05
1.13508e-08
-3.20441e-10
4.22806e-05
1.36336e-08
-1.98579e-10
4.56838e-05
1.54414e-08
-9.97229e-11
4.81533e-05
1.66125e-08
-2.119e-11
4.97613e-05
1.70375e-08
4.55884e-11
5.0554e-05
1.66698e-08
1.12216e-10
5.05533e-05
1.55318e-08
1.90871e-10
4.97587e-05
1.37176e-08
2.91902e-10
4.81472e-05
1.1389e-08
4.20986e-10
4.56723e-05
8.7649e-09
5.75639e-10
4.22616e-05
6.10164e-09
7.41155e-10
3.78139e-05
3.66786e-09
8.85033e-10
3.21929e-05
1.71447e-09
9.504e-10
2.52218e-05
4.45899e-10
8.49053e-10
1.66765e-05
4.42249e-10
6.28173e-06
4.00652e-10
-3.09603e-10
5.55334e-06
1.49138e-09
-5.36454e-10
1.45258e-05
3.13027e-09
-5.47504e-10
2.17619e-05
5.14281e-09
-4.65425e-10
2.75805e-05
7.33161e-09
-3.51898e-10
3.22237e-05
9.49203e-09
-2.40435e-10
3.5871e-05
1.14269e-08
-1.45944e-10
3.86541e-05
1.29609e-08
-7.18871e-11
4.06673e-05
1.39531e-08
-1.51382e-11
4.19756e-05
1.43089e-08
3.16239e-11
4.26196e-05
1.39882e-08
7.78174e-11
4.26188e-05
1.30118e-08
1.33228e-10
4.19726e-05
1.1463e-08
2.06446e-10
4.0661e-05
9.48397e-09
3.02828e-10
3.86428e-05
7.26522e-09
4.21853e-10
3.58531e-05
5.02787e-09
5.54173e-10
3.21984e-05
3.00004e-09
6.76426e-10
2.75491e-05
1.38943e-09
7.44532e-10
2.1728e-05
3.56858e-10
6.85967e-10
1.44962e-05
3.71987e-10
5.53873e-06
2.86054e-10
-2.19405e-10
4.58829e-06
1.09048e-09
-3.57384e-10
1.17256e-05
2.32456e-09
-3.47271e-10
1.73306e-05
3.86217e-09
-2.84688e-10
2.17592e-05
5.55087e-09
-2.08375e-10
2.52532e-05
7.22833e-09
-1.38112e-10
2.79777e-05
8.73637e-09
-8.13947e-11
3.00466e-05
9.93349e-09
-3.88042e-11
3.15386e-05
1.07062e-08
-7.71265e-12
3.25062e-05
1.09783e-08
1.67611e-11
3.29819e-05
1.07184e-08
4.05873e-11
3.2981e-05
9.94437e-09
6.98826e-11
3.25031e-05
8.72495e-09
1.10224e-10
3.15323e-05
7.17623e-09
1.65501e-10
3.00359e-05
5.45257e-09
2.36402e-10
2.79614e-05
3.7313e-09
3.19055e-10
2.52309e-05
2.1922e-09
4.01019e-10
2.17318e-05
9.93235e-10
4.56065e-10
1.73013e-05
2.45965e-10
4.38647e-10
1.17e-05
2.51206e-10
4.57555e-06
1.54871e-10
-9.8133e-11
3.3084e-06
6.30859e-10
-1.43223e-10
8.10483e-06
1.39783e-09
-1.28617e-10
1.17242e-05
2.38045e-09
-1.00751e-10
1.45221e-05
3.47673e-09
-7.0323e-11
1.67028e-05
4.57562e-09
-4.44292e-11
1.83912e-05
5.56835e-09
-2.50166e-11
1.96679e-05
6.35747e-09
-1.11791e-11
2.05861e-05
6.8651e-09
-1.81012e-12
2.11806e-05
7.03935e-09
4.97723e-12
2.14725e-05
6.85929e-09
1.14188e-11
2.14716e-05
6.33823e-09
1.97145e-11
2.11778e-05
5.52452e-09
3.20107e-11
2.05808e-05
4.49909e-09
4.99348e-11
1.96592e-05
3.36904e-09
7.40334e-11
1.83783e-05
2.25629e-09
1.04185e-10
1.66855e-05
1.2827e-09
1.36761e-10
1.45012e-05
5.51375e-10
1.62355e-10
1.17018e-05
1.23785e-10
1.67396e-10
8.0851e-06
1.05579e-10
3.29825e-06
2.71409e-11
1.49506e-06
1.67543e-10
3.30812e-06
4.29201e-10
4.58727e-06
7.8181e-10
5.55118e-06
1.18609e-09
6.29444e-06
1.59701e-09
6.86697e-06
1.97036e-09
7.29868e-06
2.2675e-09
7.60864e-06
2.45755e-09
7.80909e-06
2.52013e-09
7.90738e-06
2.44734e-09
7.90692e-06
2.24492e-09
7.80762e-06
1.93268e-09
7.60591e-06
1.54344e-09
7.29438e-06
1.12025e-09
6.86082e-06
7.12753e-10
6.28635e-06
3.698e-10
5.54144e-06
1.29656e-10
4.57675e-06
1.39496e-11
3.29855e-06
1.48961e-06
-7.21719e-12
2.26867e-10
1.49484e-06
1.63753e-10
3.6772e-10
3.30758e-06
5.77531e-10
3.6438e-10
4.58649e-06
1.2017e-09
3.11232e-10
5.55024e-06
1.96279e-09
2.41705e-10
6.29344e-06
2.76527e-09
1.74071e-10
6.86599e-06
3.50939e-09
1.15028e-10
7.29782e-06
4.10447e-09
6.48396e-11
7.60797e-06
4.47754e-09
2.17186e-11
7.8087e-06
4.581e-09
-1.77942e-11
7.9073e-06
4.39819e-09
-5.78448e-11
7.90716e-06
3.9466e-09
-1.02488e-10
7.80818e-06
3.27825e-09
-1.55287e-10
7.60674e-06
2.476e-09
-2.18341e-10
7.2954e-06
1.64472e-09
-2.90962e-10
6.86194e-06
8.97831e-10
-3.68871e-10
6.28747e-06
3.36102e-10
-4.39475e-10
5.54244e-06
2.06702e-11
-4.77039e-10
4.57754e-06
-5.28555e-11
-4.40335e-10
3.29906e-06
-2.41657e-10
1.4898e-06
1.83964e-10
5.54789e-10
3.30789e-06
9.3951e-10
9.76971e-10
8.10347e-06
2.30857e-09
1.02576e-09
1.17222e-05
4.1843e-09
9.10904e-10
1.45196e-05
6.36926e-09
7.3208e-10
1.67001e-05
8.62137e-09
5.42354e-10
1.83886e-05
1.06892e-08
3.65321e-10
1.96656e-05
1.23407e-08
2.07233e-10
2.05843e-05
1.33881e-08
6.52008e-11
2.11795e-05
1.37069e-08
-6.90345e-11
2.14722e-05
1.32509e-08
-2.06076e-10
2.14722e-05
1.20606e-08
-3.56492e-10
2.11793e-05
1.02643e-08
-5.28713e-10
2.05829e-05
8.06868e-09
-7.26186e-10
1.96619e-05
5.73745e-09
-9.43546e-10
1.83813e-05
3.55637e-09
-1.162e-09
1.66885e-05
1.78648e-09
-1.34086e-09
1.45038e-05
6.08522e-10
-1.40689e-09
1.17039e-05
6.3859e-11
-1.24284e-09
8.08645e-06
-6.46077e-10
3.29872e-06
4.33136e-10
8.36551e-10
4.58757e-06
1.85322e-09
1.5443e-09
1.17236e-05
4.20868e-09
1.68245e-09
1.73276e-05
7.29398e-09
1.53701e-09
2.17555e-05
1.08004e-08
1.26462e-09
2.52491e-05
1.4365e-08
9.54587e-10
2.79737e-05
1.76151e-08
6.51182e-10
3.00431e-05
2.02072e-08
3.70022e-10
3.15358e-05
2.18621e-08
1.09703e-10
3.25045e-05
2.23931e-08
-1.41156e-10
3.29814e-05
2.1728e-08
-3.98447e-10
3.29818e-05
1.99221e-08
-6.78079e-10
3.25052e-05
1.71597e-08
-9.91704e-10
3.15356e-05
1.37416e-08
-1.34154e-09
3.004e-05
1.00543e-08
-1.7138e-09
2.79659e-05
6.52224e-09
-2.07068e-09
2.52353e-05
3.54315e-09
-2.33892e-09
2.17358e-05
1.41561e-09
-2.39636e-09
1.73044e-05
2.68013e-10
-2.05793e-09
1.1702e-05
-1.03478e-09
4.57621e-06
6.81391e-10
1.00941e-09
5.55248e-06
2.74276e-09
1.92943e-09
1.45233e-05
6.02924e-09
2.15925e-09
2.17581e-05
1.02315e-08
2.01514e-09
2.75758e-05
1.49355e-08
1.68754e-09
3.22185e-05
1.96729e-08
1.2917e-09
3.5866e-05
2.39699e-08
8.89132e-10
3.86496e-05
2.73924e-08
5.04911e-10
4.06637e-05
2.95872e-08
1.40875e-10
4.19733e-05
3.03167e-08
-2.15025e-10
4.2619e-05
2.94863e-08
-5.81287e-10
4.26198e-05
2.71605e-08
-9.76458e-10
4.19753e-05
2.35664e-08
-1.41286e-09
4.0665e-05
1.9078e-08
-1.88939e-09
3.86478e-05
1.41812e-08
-2.3829e-09
3.58586e-05
9.41591e-09
-2.83802e-09
3.2204e-05
5.30131e-09
-3.15458e-09
2.7554e-05
2.25092e-09
-3.17439e-09
2.17318e-05
4.91741e-10
-2.66883e-09
1.44986e-05
-1.30643e-09
5.5395e-06
8.9856e-10
1.05909e-09
6.29701e-06
3.52927e-09
2.07767e-09
1.67064e-05
7.64262e-09
2.37264e-09
2.52549e-05
1.28316e-08
2.2509e-09
3.22218e-05
1.85861e-08
1.91076e-09
3.78351e-05
2.43453e-08
1.47817e-09
4.22747e-05
2.95498e-08
1.02418e-09
4.56785e-05
3.36903e-08
5.80465e-10
4.81491e-05
3.63534e-08
1.52392e-10
4.97586e-05
3.72596e-08
-2.70768e-10
5.05531e-05
3.62951e-08
-7.0736e-10
5.05544e-05
3.3531e-08
-1.17576e-09
4.97617e-05
2.92272e-08
-1.68683e-09
4.81518e-05
2.38169e-08
-2.23553e-09
4.5678e-05
1.78673e-08
-2.79137e-09
4.2268e-05
1.20166e-08
-3.28753e-09
3.78202e-05
6.89069e-09
-3.60894e-09
3.21985e-05
3.00909e-09
-3.5811e-09
2.52261e-05
6.94442e-10
-2.96165e-09
1.66791e-05
-1.41961e-09
6.28254e-06
1.07579e-09
9.93513e-10
6.87087e-06
4.18143e-09
1.98713e-09
1.83975e-05
8.99077e-09
2.30395e-09
2.79825e-05
1.50126e-08
2.21318e-09
3.58723e-05
2.16529e-08
1.89828e-09
4.22777e-05
2.8272e-08
1.48035e-09
4.73722e-05
3.42383e-08
1.03053e-09
5.12941e-05
3.89808e-08
5.82575e-10
5.41486e-05
4.20365e-08
1.44303e-10
5.60118e-05
4.30922e-08
-2.92615e-10
5.69325e-05
4.20183e-08
-7.44263e-10
5.69341e-05
3.88904e-08
-1.2267e-09
5.60157e-05
3.39948e-08
-1.74817e-09
5.41525e-05
2.78122e-08
-2.30064e-09
5.12945e-05
2.0977e-08
-2.85045e-09
4.73659e-05
1.42098e-08
-3.32821e-09
4.22622e-05
8.22796e-09
-3.61861e-09
3.58473e-05
3.6431e-09
-3.55211e-09
2.79513e-05
8.61473e-10
-2.90084e-09
1.83676e-05
-1.36819e-09
6.85496e-06
1.21228e-09
8.31182e-10
7.3038e-06
4.69188e-09
1.68605e-09
1.96765e-05
1.00555e-08
1.97662e-09
3.00542e-05
1.67444e-08
1.91625e-09
3.86581e-05
2.4096e-08
1.65616e-09
4.56835e-05
3.14056e-08
1.29914e-09
5.12959e-05
3.79834e-08
9.07365e-10
5.56307e-05
4.32086e-08
5.11615e-10
5.87932e-05
4.65788e-08
1.2034e-10
6.08606e-05
4.77541e-08
-2.72172e-10
6.1883e-05
4.65924e-08
-6.78477e-10
6.18848e-05
4.3173e-08
-1.11106e-09
6.0865e-05
3.78027e-08
-1.57535e-09
5.87977e-05
3.10003e-08
-2.06229e-09
5.56317e-05
2.34538e-08
-2.54031e-09
5.12896e-05
1.59508e-08
-2.94697e-09
4.56672e-05
9.28345e-09
-3.18119e-09
3.86315e-05
4.13862e-09
-3.09774e-09
3.00207e-05
9.89572e-10
-2.50625e-09
1.96442e-05
-1.16799e-09
7.28656e-06
1.31045e-09
5.95136e-10
7.61479e-06
5.06451e-09
1.21888e-09
2.05967e-05
1.08394e-08
1.43975e-09
3.15483e-05
1.80261e-08
1.40459e-09
4.06733e-05
2.59104e-08
1.22031e-09
4.81548e-05
3.37378e-08
9.61084e-10
5.4151e-05
4.07741e-08
6.72703e-10
5.87935e-05
4.6361e-08
3.78473e-10
6.21866e-05
4.99666e-08
8.5441e-11
6.44075e-05
5.12309e-08
-2.09786e-10
6.55066e-05
5.00026e-08
-5.1567e-10
6.55085e-05
4.63637e-08
-8.40589e-10
6.44122e-05
4.06365e-08
-1.18761e-09
6.21915e-05
3.33684e-08
-1.54899e-09
5.87947e-05
2.52886e-08
-1.9003e-09
5.41444e-05
1.72351e-08
-2.19462e-09
4.81376e-05
1.0057e-08
-2.35728e-09
4.06452e-05
4.49802e-09
-2.2827e-09
3.15127e-05
1.08068e-09
-1.83498e-09
2.05623e-05
-8.48126e-10
7.59642e-06
1.37357e-09
3.09853e-10
7.81604e-06
5.30695e-09
6.38152e-10
2.11926e-05
1.13527e-08
7.57105e-10
3.25175e-05
1.88692e-08
7.41333e-10
4.1983e-05
2.71072e-08
6.46046e-10
4.9764e-05
3.52791e-08
5.09996e-10
5.60134e-05
4.26207e-08
3.57402e-10
6.08599e-05
4.84482e-08
2.00789e-10
6.44063e-05
5.22102e-08
4.41443e-11
6.67294e-05
5.35332e-08
-1.14073e-10
6.78796e-05
5.22598e-08
-2.78089e-10
6.78816e-05
4.84739e-08
-4.52075e-10
6.67343e-05
4.25084e-08
-6.37357e-10
6.44114e-05
3.493e-08
-8.29486e-10
6.0861e-05
2.64952e-08
-1.01518e-09
5.60065e-05
1.80764e-08
-1.16931e-09
4.9746e-05
1.05608e-08
-1.2523e-09
4.19536e-05
4.73006e-09
-1.20872e-09
3.24803e-05
1.13855e-09
-9.67986e-10
2.11568e-05
-4.45243e-10
7.79685e-06
1.40439e-09
5.27204e-16
7.91492e-06
5.42616e-09
2.64361e-15
2.14856e-05
1.16062e-08
4.5485e-15
3.29943e-05
1.92866e-08
5.33548e-15
4.2628e-05
2.7701e-08
5.44763e-15
5.05573e-05
3.60447e-08
5.56577e-15
5.69324e-05
4.35387e-08
6.17151e-15
6.18805e-05
4.94864e-08
7.41356e-15
6.55034e-05
5.33262e-08
9.17893e-15
6.78776e-05
5.46784e-08
1.11988e-14
6.90534e-05
5.33822e-08
1.31366e-14
6.90554e-05
4.95226e-08
1.46517e-14
6.78826e-05
4.34379e-08
1.546e-14
6.55085e-05
3.57043e-08
1.54076e-14
6.18816e-05
2.70923e-08
1.4428e-14
5.69253e-05
1.84917e-08
1.24921e-14
5.05388e-05
1.08086e-08
9.6006e-15
4.25978e-05
4.84349e-09
6.1511e-15
3.29563e-05
1.16653e-09
3.18392e-15
2.14489e-05
5.63562e-16
7.8953e-06
1.40439e-09
-3.09851e-10
7.91492e-06
5.42616e-09
-6.38145e-10
2.14856e-05
1.16062e-08
-7.57095e-10
3.29943e-05
1.92866e-08
-7.41322e-10
4.2628e-05
2.7701e-08
-6.46035e-10
5.05573e-05
3.60448e-08
-5.09986e-10
5.69324e-05
4.35387e-08
-3.5739e-10
6.18805e-05
4.94864e-08
-2.00775e-10
6.55034e-05
5.33262e-08
-4.41268e-11
6.78776e-05
5.46784e-08
1.14094e-10
6.90534e-05
5.33822e-08
2.78115e-10
6.90554e-05
4.95226e-08
4.52104e-10
6.78826e-05
4.34379e-08
6.37387e-10
6.55085e-05
3.57043e-08
8.29517e-10
6.18816e-05
2.70923e-08
1.01521e-09
5.69253e-05
1.84917e-08
1.16934e-09
5.05388e-05
1.08086e-08
1.25231e-09
4.25978e-05
4.84349e-09
1.20873e-09
3.29563e-05
1.16653e-09
9.6799e-10
2.14489e-05
4.45243e-10
7.8953e-06
1.37357e-09
-5.95133e-10
7.81604e-06
5.30695e-09
-1.21887e-09
2.11926e-05
1.13527e-08
-1.43974e-09
3.25175e-05
1.88692e-08
-1.40458e-09
4.1983e-05
2.71072e-08
-1.2203e-09
4.9764e-05
3.52791e-08
-9.61076e-10
5.60134e-05
4.26207e-08
-6.72694e-10
6.08599e-05
4.84483e-08
-3.78461e-10
6.44063e-05
5.22102e-08
-8.54257e-11
6.67294e-05
5.35332e-08
2.09805e-10
6.78796e-05
5.22599e-08
5.15694e-10
6.78816e-05
4.84739e-08
8.40616e-10
6.67343e-05
4.25084e-08
1.18764e-09
6.44114e-05
3.493e-08
1.54902e-09
6.0861e-05
2.64952e-08
1.90033e-09
5.60065e-05
1.80764e-08
2.19465e-09
4.9746e-05
1.05608e-08
2.35729e-09
4.19536e-05
4.73006e-09
2.28271e-09
3.24803e-05
1.13855e-09
1.83498e-09
2.11568e-05
8.48125e-10
7.79685e-06
1.31045e-09
-8.31176e-10
7.61479e-06
5.06451e-09
-1.68604e-09
2.05967e-05
1.08394e-08
-1.9766e-09
3.15483e-05
1.80261e-08
-1.91624e-09
4.06734e-05
2.59104e-08
-1.65616e-09
4.81548e-05
3.37378e-08
-1.29913e-09
5.4151e-05
4.07742e-08
-9.07359e-10
5.87935e-05
4.63611e-08
-5.11607e-10
6.21866e-05
4.99666e-08
-1.20328e-10
6.44075e-05
5.1231e-08
2.72189e-10
6.55066e-05
5.00027e-08
6.78498e-10
6.55085e-05
4.63637e-08
1.11108e-09
6.44122e-05
4.06365e-08
1.57537e-09
6.21915e-05
3.33685e-08
2.06232e-09
5.87947e-05
2.52886e-08
2.54034e-09
5.41444e-05
1.72351e-08
2.947e-09
4.81376e-05
1.0057e-08
3.18121e-09
4.06452e-05
4.49802e-09
3.09775e-09
3.15127e-05
1.08068e-09
2.50625e-09
2.05623e-05
1.16799e-09
7.59642e-06
1.21229e-09
-9.9351e-10
7.3038e-06
4.69187e-09
-1.98712e-09
1.96765e-05
1.00555e-08
-2.30394e-09
3.00542e-05
1.67444e-08
-2.21318e-09
3.86581e-05
2.40961e-08
-1.89828e-09
4.56835e-05
3.14057e-08
-1.48035e-09
5.12959e-05
3.79835e-08
-1.03053e-09
5.56307e-05
4.32086e-08
-5.8257e-10
5.87932e-05
4.65788e-08
-1.44295e-10
6.08606e-05
4.77542e-08
2.92628e-10
6.18831e-05
4.65925e-08
7.44279e-10
6.18848e-05
4.31731e-08
1.22672e-09
6.0865e-05
3.78028e-08
1.74819e-09
5.87977e-05
3.10003e-08
2.30066e-09
5.56317e-05
2.34538e-08
2.85047e-09
5.12896e-05
1.59509e-08
3.32823e-09
4.56672e-05
9.28345e-09
3.61863e-09
3.86315e-05
4.13862e-09
3.55213e-09
3.00207e-05
9.89574e-10
2.90085e-09
1.96443e-05
1.36819e-09
7.28656e-06
1.07579e-09
-1.05909e-09
6.87087e-06
4.18142e-09
-2.07769e-09
1.83975e-05
8.99077e-09
-2.37265e-09
2.79825e-05
1.50126e-08
-2.25091e-09
3.58723e-05
2.16529e-08
-1.91077e-09
4.22777e-05
2.8272e-08
-1.47817e-09
4.73722e-05
3.42384e-08
-1.02418e-09
5.12941e-05
3.89809e-08
-5.80464e-10
5.41486e-05
4.20366e-08
-1.52387e-10
5.60118e-05
4.30923e-08
2.70777e-10
5.69325e-05
4.20184e-08
7.07373e-10
5.69341e-05
3.88905e-08
1.17578e-09
5.60157e-05
3.39949e-08
1.68685e-09
5.41525e-05
2.78123e-08
2.23555e-09
5.12945e-05
2.09771e-08
2.79139e-09
4.73659e-05
1.42098e-08
3.28756e-09
4.22622e-05
8.22796e-09
3.60897e-09
3.58473e-05
3.6431e-09
3.58112e-09
2.79513e-05
8.61475e-10
2.96167e-09
1.83676e-05
1.41962e-09
6.85496e-06
8.98557e-10
-1.00942e-09
6.29701e-06
3.52926e-09
-1.92945e-09
1.67064e-05
7.64262e-09
-2.15927e-09
2.52549e-05
1.28317e-08
-2.01514e-09
3.22218e-05
1.85861e-08
-1.68755e-09
3.78351e-05
2.43453e-08
-1.29171e-09
4.22747e-05
2.95498e-08
-8.89139e-10
4.56785e-05
3.36904e-08
-5.04914e-10
4.81491e-05
3.63534e-08
-1.40874e-10
4.97587e-05
3.72596e-08
2.1503e-10
5.05531e-05
3.62952e-08
5.81296e-10
5.05544e-05
3.3531e-08
9.76472e-10
4.97617e-05
2.92273e-08
1.41287e-09
4.81518e-05
2.3817e-08
1.88941e-09
4.5678e-05
1.78673e-08
2.38293e-09
4.2268e-05
1.20166e-08
2.83804e-09
3.78202e-05
6.89069e-09
3.15461e-09
3.21985e-05
3.00908e-09
3.17443e-09
2.52261e-05
6.94442e-10
2.66886e-09
1.66791e-05
1.30644e-09
6.28254e-06
6.81382e-10
-8.36546e-10
5.55248e-06
2.74274e-09
-1.54429e-09
1.45233e-05
6.02923e-09
-1.68244e-09
2.17581e-05
1.02315e-08
-1.537e-09
2.75758e-05
1.49355e-08
-1.26462e-09
3.22185e-05
1.9673e-08
-9.546e-10
3.5866e-05
2.397e-08
-6.51194e-10
3.86496e-05
2.73925e-08
-3.7003e-10
4.06637e-05
2.95872e-08
-1.09706e-10
4.19733e-05
3.03168e-08
1.41158e-10
4.2619e-05
2.94864e-08
3.98453e-10
4.26198e-05
2.71606e-08
6.7809e-10
4.19753e-05
2.35665e-08
9.91722e-10
4.0665e-05
1.90781e-08
1.34157e-09
3.86478e-05
1.41812e-08
1.71383e-09
3.58586e-05
9.41592e-09
2.0707e-09
3.2204e-05
5.3013e-09
2.33893e-09
2.75541e-05
2.25091e-09
2.39637e-09
2.17318e-05
4.91737e-10
2.05794e-09
1.44986e-05
1.03478e-09
5.5395e-06
4.33121e-10
-5.54756e-10
4.58757e-06
1.85319e-09
-9.76905e-10
1.17236e-05
4.20866e-09
-1.0257e-09
1.73276e-05
7.29398e-09
-9.10881e-10
2.17555e-05
1.08004e-08
-7.32083e-10
2.52491e-05
1.43651e-08
-5.42371e-10
2.79737e-05
1.76151e-08
-3.65338e-10
3.00431e-05
2.02072e-08
-2.07245e-10
3.15358e-05
2.18621e-08
-6.52068e-11
3.25045e-05
2.23932e-08
6.90338e-11
3.29814e-05
2.17281e-08
2.0608e-10
3.29818e-05
1.99222e-08
3.56502e-10
3.25052e-05
1.71598e-08
5.28733e-10
3.15356e-05
1.37416e-08
7.26222e-10
3.004e-05
1.00544e-08
9.43588e-10
2.79659e-05
6.52223e-09
1.16203e-09
2.52353e-05
3.54313e-09
1.34085e-09
2.17358e-05
1.41559e-09
1.40685e-09
1.73044e-05
2.68004e-10
1.24278e-09
1.1702e-05
6.46052e-10
4.57621e-06
1.83955e-10
-2.26828e-10
3.30789e-06
9.39463e-10
-3.67651e-10
8.10347e-06
2.30853e-09
-3.64333e-10
1.17222e-05
4.18428e-09
-3.1121e-10
1.45196e-05
6.36926e-09
-2.41704e-10
1.67001e-05
8.62141e-09
-1.74082e-10
1.83886e-05
1.06892e-08
-1.1504e-10
1.96656e-05
1.23408e-08
-6.48481e-11
2.05843e-05
1.33882e-08
-2.17234e-11
2.11795e-05
1.3707e-08
1.77933e-11
2.14722e-05
1.3251e-08
5.78482e-11
2.14722e-05
1.20607e-08
1.02497e-10
2.11793e-05
1.02644e-08
1.55303e-10
2.05829e-05
8.06873e-09
2.18367e-10
1.96619e-05
5.73746e-09
2.90992e-10
1.83813e-05
3.55634e-09
3.68888e-10
1.66885e-05
1.78644e-09
4.39465e-10
1.45038e-05
6.08474e-10
4.76999e-10
1.17039e-05
6.38481e-11
4.40272e-10
8.08645e-06
2.41623e-10
3.29872e-06
-7.22299e-12
1.49484e-06
1.63708e-10
3.30758e-06
5.77491e-10
4.58649e-06
1.20167e-09
5.55024e-06
1.96279e-09
6.29344e-06
2.76528e-09
6.86599e-06
3.50941e-09
7.29782e-06
4.1045e-09
7.60798e-06
4.47757e-09
7.8087e-06
4.58102e-09
7.9073e-06
4.39822e-09
7.90716e-06
3.94663e-09
7.80818e-06
3.27829e-09
7.60674e-06
2.47602e-09
7.2954e-06
1.64471e-09
6.86195e-06
8.978e-10
6.28747e-06
3.36057e-10
5.54244e-06
2.06264e-11
4.57754e-06
-5.28597e-11
3.29906e-06
1.4898e-06
-3.35926e-11
3.71917e-10
1.4945e-06
1.97555e-10
6.14813e-10
3.30673e-06
8.13319e-10
6.19875e-10
4.58525e-06
1.77336e-09
5.36773e-10
5.54874e-06
2.96359e-09
4.23562e-10
6.29182e-06
4.23144e-09
3.10337e-10
6.86442e-06
5.41535e-09
2.08624e-10
7.29642e-06
6.36666e-09
1.1969e-10
7.6069e-06
6.96488e-09
4.08008e-11
7.80806e-06
7.13054e-09
-3.33918e-11
7.90716e-06
6.83494e-09
-1.09289e-10
7.90757e-06
6.10588e-09
-1.9316e-10
7.8091e-06
5.02879e-09
-2.90329e-10
7.60811e-06
3.74093e-09
-4.03649e-10
7.29709e-06
2.41675e-09
-5.31298e-10
6.8638e-06
1.24411e-09
-6.64571e-10
6.28931e-06
3.87725e-10
-7.80972e-10
5.54408e-06
-5.75615e-11
-8.3627e-10
4.57882e-06
-1.15947e-10
-7.57291e-10
3.29988e-06
-4.04508e-10
1.49009e-06
2.46676e-10
9.25111e-10
3.30709e-06
1.37442e-09
1.65131e-09
8.1013e-06
3.48706e-09
1.75604e-09
1.17189e-05
6.43197e-09
1.57884e-09
1.45157e-05
9.90058e-09
1.28611e-09
1.66958e-05
1.35038e-08
9.66519e-10
1.83843e-05
1.68318e-08
6.60414e-10
1.96618e-05
1.9503e-08
3.79516e-10
2.05814e-05
2.12054e-08
1.20053e-10
2.11777e-05
2.173e-08
-1.30452e-10
2.14718e-05
2.09962e-08
-3.8819e-10
2.14732e-05
1.90677e-08
-6.69164e-10
2.11817e-05
1.61551e-08
-9.85547e-10
2.05865e-05
1.2601e-08
-1.34092e-09
1.96663e-05
8.84476e-09
-1.72376e-09
1.83863e-05
5.36179e-09
-2.09905e-09
1.66934e-05
2.58219e-09
-2.39445e-09
1.45082e-05
7.92305e-10
-2.48299e-09