/*--------------------------------*- C++ -*----------------------------------*\
  =========                 |
  \\      /  F ield         | OpenFOAM: The Open Source CFD Toolbox
   \\    /   O peration     | Website:  https://openfoam.org
    \\  /    A nd           | Version:  6
     \\/     M anipulation  |
\*---------------------------------------------------------------------------*/
FoamFile
{
    version     2.0;
    format      ascii;
    class       volVectorField;
    location    "0.069";
    object      U;
}
// * * * * * * * * * * * * * * * * * * * * * * * * * * * * * * * * * * * * * //

dimensions      [0 1 -1 0 0 0 0];

internalField   nonuniform List<vector> 
56000
(
(-3.85644e-07 1.16207e-06 0.0523356)
(2.01217e-06 1.46269e-06 0.115803)
(8.41756e-06 1.1352e-06 0.160581)
(1.85109e-05 8.37793e-07 0.194323)
(3.10576e-05 5.41318e-07 0.220341)
(4.46567e-05 3.1317e-07 0.240381)
(5.77759e-05 1.65308e-07 0.25549)
(6.90025e-05 6.63136e-08 0.266337)
(7.71545e-05 7.21724e-09 0.27335)
(8.13535e-05 -2.80504e-08 0.276786)
(8.11167e-05 -5.93308e-08 0.276766)
(7.64105e-05 -1.04338e-07 0.273285)
(6.76786e-05 -1.82844e-07 0.266221)
(5.58344e-05 -3.10095e-07 0.255313)
(4.21836e-05 -4.92438e-07 0.240136)
(2.83232e-05 -7.54769e-07 0.220027)
(1.59575e-05 -1.07178e-06 0.193954)
(6.53823e-06 -1.35791e-06 0.160189)
(1.08244e-06 -1.6081e-06 0.115452)
(-5.11825e-07 -1.18496e-06 0.052138)
(3.2196e-07 5.46123e-06 0.115813)
(9.88108e-06 8.60735e-06 0.283717)
(3.01093e-05 8.1698e-06 0.410417)
(5.91874e-05 6.60004e-06 0.508359)
(9.39098e-05 4.79096e-06 0.584692)
(0.000130755 3.17214e-06 0.643791)
(0.000165948 1.88486e-06 0.688475)
(0.000195956 9.19322e-07 0.720607)
(0.000217788 2.09175e-07 0.741406)
(0.000229209 -3.5635e-07 0.751612)
(0.000228969 -9.0805e-07 0.751571)
(0.000216943 -1.57755e-06 0.741275)
(0.000194204 -2.48716e-06 0.720365)
(0.000163003 -3.72604e-06 0.688099)
(0.000126582 -5.31787e-06 0.64326)
(8.89035e-05 -7.19918e-06 0.584006)
(5.41902e-05 -9.11582e-06 0.50755)
(2.61833e-05 -1.04882e-05 0.40957)
(7.77241e-06 -1.02695e-05 0.282984)
(-7.15739e-09 -6.03125e-06 0.115442)
(1.0216e-06 9.27819e-06 0.160617)
(1.82205e-05 1.5869e-05 0.410465)
(5.18082e-05 1.60339e-05 0.606674)
(9.82224e-05 1.35858e-05 0.761698)
(0.000152395 1.02889e-05 0.884003)
(0.000209152 7.08652e-06 0.979368)
(0.000262974 4.37113e-06 1.05178)
(0.000308719 2.21414e-06 1.10399)
(0.000342028 5.23319e-07 1.13785)
(0.000359623 -9.02884e-07 1.15448)
(0.000359647 -2.31848e-06 1.15443)
(0.000341873 -3.9839e-06 1.13769)
(0.000307813 -6.12899e-06 1.10369)
(0.000260691 -8.8984e-06 1.0513)
(0.000205178 -1.228e-05 0.97868)
(0.000147022 -1.60341e-05 0.883102)
(9.24236e-05 -1.95272e-05 0.760629)
(4.6981e-05 -2.15158e-05 0.605556)
(1.54924e-05 -1.99399e-05 0.40951)
(5.81927e-07 -1.08951e-05 0.160149)
(1.62855e-06 1.17642e-05 0.194399)
(2.5636e-05 2.11693e-05 0.508487)
(7.10397e-05 2.22945e-05 0.761794)
(0.000132572 1.95016e-05 0.965477)
(0.000203469 1.51955e-05 1.12801)
(0.000277105 1.07376e-05 1.25568)
(0.000346562 6.77386e-06 1.35309)
(0.000405444 3.49674e-06 1.42354)
(0.00044833 8.20969e-07 1.46932)
(0.000471135 -1.514e-06 1.49184)
(0.000471529 -3.85514e-06 1.49179)
(0.000449183 -6.56256e-06 1.46915)
(0.000405915 -9.94116e-06 1.42322)
(0.000345667 -1.41558e-05 1.35256)
(0.000274197 -1.91227e-05 1.2549)
(0.000198644 -2.4388e-05 1.12697)
(0.00012681 -2.8945e-05 0.96424)
(6.59446e-05 -3.09977e-05 0.760495)
(2.26317e-05 -2.77115e-05 0.50738)
(1.13128e-06 -1.44808e-05 0.193861)
(2.06484e-06 1.26253e-05 0.220465)
(3.16623e-05 2.35782e-05 0.58492)
(8.69177e-05 2.55759e-05 0.884221)
(0.000161102 2.29195e-05 1.12814)
(0.000245947 1.82414e-05 1.32465)
(0.00033358 1.31311e-05 1.48005)
(0.000415938 8.41578e-06 1.59916)
(0.000485619 4.39165e-06 1.68558)
(0.000536368 1.00374e-06 1.74185)
(0.000563479 -2.02436e-06 1.76957)
(0.000564245 -5.08216e-06 1.76952)
(0.000538248 -8.57752e-06 1.74168)
(0.000487525 -1.2843e-05 1.68525)
(0.000416557 -1.80282e-05 1.5986)
(0.000331948 -2.397e-05 1.47921)
(0.000241948 -3.00434e-05 1.32352)
(0.000155677 -3.49787e-05 1.12678)
(8.18094e-05 -3.66617e-05 0.882785)
(2.85301e-05 -3.19377e-05 0.583691)
(1.52997e-06 -1.61468e-05 0.219868)
(2.36468e-06 1.208e-05 0.240555)
(3.62855e-05 2.31865e-05 0.644123)
(9.93563e-05 2.57113e-05 0.979715)
(0.000183682 2.34661e-05 1.25594)
(0.000279747 1.8975e-05 1.48018)
(0.000378639 1.38492e-05 1.65851)
(0.000471356 8.97795e-06 1.79576)
(0.000549693 4.7139e-06 1.89561)
(0.000606738 1.03884e-06 1.96075)
(0.000637301 -2.30439e-06 1.99288)
(0.000638385 -5.69818e-06 1.99283)
(0.000609498 -9.54548e-06 1.96058)
(0.000552836 -1.41638e-05 1.89528)
(0.000473294 -1.96677e-05 1.79517)
(0.000378135 -2.58347e-05 1.65763)
(0.000276503 -3.19557e-05 1.47898)
(0.000178597 -3.66698e-05 1.25448)
(9.42811e-05 -3.78124e-05 0.97816)
(3.30682e-05 -3.23075e-05 0.642787)
(1.79972e-06 -1.59369e-05 0.239904)
(2.56193e-06 1.04282e-05 0.255711)
(3.96568e-05 2.04241e-05 0.688903)
(0.000108625 2.30178e-05 1.05225)
(0.000200701 2.12947e-05 1.35348)
(0.000305401 1.74242e-05 1.59942)
(0.000412981 1.28487e-05 1.79588)
(0.000513696 8.39769e-06 1.94757)
(0.000598709 4.42385e-06 2.05821)
(0.000660606 9.37905e-07 2.13049)
(0.000693828 -2.2748e-06 2.16617)
(0.000695155 -5.54878e-06 2.16612)
(0.000664037 -9.23798e-06 2.13032)
(0.000602791 -1.36131e-05 2.05786)
(0.000516626 -1.87496e-05 1.94697)
(0.000413316 -2.44051e-05 1.79495)
(0.000302704 -2.98881e-05 1.59815)
(0.000195845 -3.39258e-05 1.35192)
(0.000103548 -3.45605e-05 1.05059)
(3.63576e-05 -2.91092e-05 0.687473)
(1.97037e-06 -1.41005e-05 0.255012)
(2.68272e-06 7.97208e-06 0.266598)
(4.19709e-05 1.58388e-05 0.721117)
(0.000115116 1.80555e-05 1.10456)
(0.000212749 1.68664e-05 1.42403)
(0.000323688 1.39182e-05 1.68594)
(0.000437566 1.03383e-05 1.89583)
(0.000544089 6.79476e-06 2.0583)
(0.000633951 3.58521e-06 2.177)
(0.00069937 7.33771e-07 2.25465)
(0.000734516 -1.91854e-06 2.29301)
(0.00073601 -4.62893e-06 2.29296)
(0.00070326 -7.67018e-06 2.25448)
(0.000638672 -1.12458e-05 2.17665)
(0.000547684 -1.53987e-05 2.05768)
(0.000438447 -1.9913e-05 1.89487)
(0.000321322 -2.42129e-05 1.68462)
(0.000208001 -2.72699e-05 1.4224)
(0.000109995 -2.75394e-05 1.10281)
(3.85905e-05 -2.29617e-05 0.719609)
(2.06845e-06 -1.09799e-05 0.265859)
(2.75034e-06 4.98322e-06 0.273643)
(4.34052e-05 9.99197e-06 0.741981)
(0.000119206 1.14742e-05 1.13849)
(0.000220407 1.07857e-05 1.46988)
(0.000335375 8.94893e-06 1.74228)
(0.000453339 6.67807e-06 1.96103)
(0.000563634 4.40443e-06 2.13064)
(0.000656648 2.32558e-06 2.25471)
(0.000724354 4.63413e-07 2.33593)
(0.000760746 -1.27903e-06 2.37608)
(0.000762342 -3.06279e-06 2.37603)
(0.000728522 -5.05892e-06 2.33576)
(0.00066175 -7.39277e-06 2.25435)
(0.000567618 -1.00845e-05 2.13)
(0.000454525 -1.29858e-05 1.96004)
(0.000333178 -1.57172e-05 1.74091)
(0.000215688 -1.76123e-05 1.4682)
(0.000114027 -1.76869e-05 1.13668)
(3.99575e-05 -1.46512e-05 0.740417)
(2.11927e-06 -6.94813e-06 0.272876)
(2.78041e-06 1.69351e-06 0.277104)
(4.40888e-05 3.41101e-06 0.752237)
(0.000121175 3.93116e-06 1.15518)
(0.000224116 3.70661e-06 1.49246)
(0.000341059 3.08361e-06 1.77005)
(0.000461028 2.30636e-06 1.99321)
(0.000573178 1.52373e-06 2.16637)
(0.000667742 8.04802e-07 2.29312)
(0.000736573 1.58195e-07 2.37613)
(0.000773576 -4.48603e-07 2.41717)
(0.000775219 -1.07032e-06 2.41712)
(0.000740868 -1.76515e-06 2.37595)
(0.000673019 -2.57531e-06 2.29275)
(0.000577337 -3.50646e-06 2.16572)
(0.000462347 -4.50592e-06 1.9922)
(0.000338926 -5.44136e-06 1.76866)
(0.000219397 -6.08243e-06 1.49075)
(0.000115958 -6.09144e-06 1.15334)
(4.06029e-05 -5.0299e-06 0.750644)
(2.1404e-06 -2.37571e-06 0.276322)
(2.78042e-06 -1.6932e-06 0.277104)
(4.40888e-05 -3.41028e-06 0.752237)
(0.000121175 -3.93012e-06 1.15518)
(0.000224116 -3.70548e-06 1.49246)
(0.000341059 -3.08254e-06 1.77005)
(0.000461028 -2.30543e-06 1.99321)
(0.000573178 -1.52294e-06 2.16637)
(0.000667743 -8.0415e-07 2.29312)
(0.000736573 -1.5766e-07 2.37613)
(0.000773576 4.49035e-07 2.41717)
(0.000775219 1.07066e-06 2.41712)
(0.000740868 1.7654e-06 2.37595)
(0.000673019 2.57546e-06 2.29275)
(0.000577337 3.50652e-06 2.16572)
(0.000462347 4.50591e-06 1.9922)
(0.000338926 5.44128e-06 1.76866)
(0.000219397 6.08229e-06 1.49075)
(0.000115958 6.09124e-06 1.15334)
(4.06028e-05 5.02972e-06 0.750644)
(2.1404e-06 2.37563e-06 0.276322)
(2.75035e-06 -4.98286e-06 0.273643)
(4.34052e-05 -9.9911e-06 0.741981)
(0.000119205 -1.14731e-05 1.13849)
(0.000220407 -1.07846e-05 1.46988)
(0.000335375 -8.9479e-06 1.74228)
(0.000453339 -6.6772e-06 1.96103)
(0.000563634 -4.40369e-06 2.13064)
(0.000656648 -2.32497e-06 2.25471)
(0.000724355 -4.6291e-07 2.33593)
(0.000760746 1.27944e-06 2.37608)
(0.000762342 3.06312e-06 2.37603)
(0.000728522 5.05916e-06 2.33576)
(0.00066175 7.39292e-06 2.25435)
(0.000567618 1.00845e-05 2.13)
(0.000454525 1.29858e-05 1.96004)
(0.000333178 1.57171e-05 1.74091)
(0.000215688 1.76122e-05 1.4682)
(0.000114027 1.76866e-05 1.13668)
(3.99574e-05 1.46509e-05 0.740417)
(2.11926e-06 6.948e-06 0.272876)
(2.68272e-06 -7.97163e-06 0.266598)
(4.19708e-05 -1.58377e-05 0.721117)
(0.000115116 -1.80542e-05 1.10456)
(0.000212749 -1.68653e-05 1.42403)
(0.000323687 -1.39172e-05 1.68594)
(0.000437567 -1.03375e-05 1.89583)
(0.000544089 -6.79412e-06 2.0583)
(0.000633952 -3.58468e-06 2.177)
(0.000699371 -7.33323e-07 2.25465)
(0.000734516 1.91892e-06 2.29301)
(0.000736011 4.62923e-06 2.29296)
(0.00070326 7.67042e-06 2.25448)
(0.000638672 1.1246e-05 2.17665)
(0.000547684 1.53989e-05 2.05768)
(0.000438447 1.9913e-05 1.89487)
(0.000321322 2.42129e-05 1.68462)
(0.000208001 2.72696e-05 1.4224)
(0.000109995 2.7539e-05 1.10281)
(3.85903e-05 2.29612e-05 0.719609)
(2.06841e-06 1.09797e-05 0.265859)
(2.56185e-06 -1.04278e-05 0.255711)
(3.96567e-05 -2.04231e-05 0.688903)
(0.000108625 -2.30168e-05 1.05225)
(0.0002007 -2.12938e-05 1.35348)
(0.000305401 -1.74235e-05 1.59942)
(0.000412981 -1.28481e-05 1.79588)
(0.000513696 -8.39716e-06 1.94757)
(0.000598709 -4.4234e-06 2.05821)
(0.000660607 -9.37523e-07 2.13049)
(0.000693828 2.27512e-06 2.16617)
(0.000695155 5.54905e-06 2.16612)
(0.000664037 9.23819e-06 2.13032)
(0.000602792 1.36132e-05 2.05786)
(0.000516626 1.87497e-05 1.94697)
(0.000413316 2.44052e-05 1.79495)
(0.000302704 2.98882e-05 1.59815)
(0.000195845 3.39258e-05 1.35192)
(0.000103547 3.45602e-05 1.05059)
(3.63575e-05 2.91088e-05 0.687473)
(1.97028e-06 1.41004e-05 0.255012)
(2.36453e-06 -1.20798e-05 0.240555)
(3.62853e-05 -2.31862e-05 0.644123)
(9.93559e-05 -2.5711e-05 0.979715)
(0.000183681 -2.34656e-05 1.25594)
(0.000279747 -1.89745e-05 1.48018)
(0.000378639 -1.38487e-05 1.65851)
(0.000471357 -8.97755e-06 1.79576)
(0.000549693 -4.71356e-06 1.89561)
(0.000606739 -1.03854e-06 1.96075)
(0.000637302 2.30465e-06 1.99288)
(0.000638386 5.6984e-06 1.99283)
(0.000609499 9.54566e-06 1.96058)
(0.000552837 1.4164e-05 1.89528)
(0.000473294 1.96678e-05 1.79517)
(0.000378135 2.58348e-05 1.65763)
(0.000276503 3.19559e-05 1.47898)
(0.000178597 3.667e-05 1.25448)
(9.42807e-05 3.78127e-05 0.97816)
(3.30681e-05 3.23076e-05 0.642787)
(1.79961e-06 1.5937e-05 0.239904)
(2.0647e-06 -1.26255e-05 0.220465)
(3.1662e-05 -2.35785e-05 0.58492)
(8.6917e-05 -2.55761e-05 0.884221)
(0.000161102 -2.29193e-05 1.12814)
(0.000245947 -1.82411e-05 1.32465)
(0.00033358 -1.31308e-05 1.48005)
(0.000415938 -8.4156e-06 1.59916)
(0.00048562 -4.39148e-06 1.68558)
(0.000536369 -1.00358e-06 1.74185)
(0.00056348 2.02452e-06 1.76957)
(0.000564245 5.08231e-06 1.76952)
(0.000538249 8.57767e-06 1.74168)
(0.000487526 1.28432e-05 1.68525)
(0.000416558 1.80284e-05 1.5986)
(0.000331949 2.39702e-05 1.47921)
(0.000241948 3.00438e-05 1.32352)
(0.000155677 3.49793e-05 1.12678)
(8.18089e-05 3.66625e-05 0.882785)
(2.85299e-05 3.19385e-05 0.583691)
(1.52988e-06 1.61472e-05 0.219868)
(1.62848e-06 -1.17643e-05 0.194399)
(2.56353e-05 -2.11694e-05 0.508487)
(7.10387e-05 -2.22944e-05 0.761794)
(0.000132571 -1.95012e-05 0.965477)
(0.000203468 -1.51954e-05 1.12801)
(0.000277105 -1.07377e-05 1.25568)
(0.000346563 -6.774e-06 1.35309)
(0.000405445 -3.49681e-06 1.42354)
(0.000448331 -8.20989e-07 1.46932)
(0.000471136 1.51402e-06 1.49184)
(0.00047153 3.8552e-06 1.49179)
(0.000449184 6.56267e-06 1.46915)
(0.000405916 9.94139e-06 1.42322)
(0.000345668 1.41562e-05 1.35256)
(0.000274198 1.91232e-05 1.2549)
(0.000198644 2.43884e-05 1.12697)
(0.00012681 2.89453e-05 0.96424)
(6.59439e-05 3.09983e-05 0.760495)
(2.26313e-05 2.77121e-05 0.50738)
(1.13124e-06 1.4481e-05 0.193861)
(1.02149e-06 -9.27744e-06 0.160617)
(1.82195e-05 -1.58673e-05 0.410465)
(5.18067e-05 -1.60325e-05 0.606674)
(9.82212e-05 -1.35851e-05 0.761698)
(0.000152395 -1.02889e-05 0.884003)
(0.000209152 -7.08702e-06 0.979369)
(0.000262974 -4.37167e-06 1.05178)
(0.00030872 -2.21454e-06 1.10399)
(0.000342029 -5.23575e-07 1.13785)
(0.000359624 9.02739e-07 1.15448)
(0.000359648 2.31843e-06 1.15443)
(0.000341874 3.98398e-06 1.13769)
(0.000307814 6.12933e-06 1.10369)
(0.000260692 8.89919e-06 1.0513)
(0.000205178 1.2281e-05 0.97868)
(0.000147022 1.60346e-05 0.883102)
(9.24224e-05 1.95269e-05 0.760629)
(4.69798e-05 2.1515e-05 0.605556)
(1.54917e-05 1.99386e-05 0.40951)
(5.81888e-07 1.08945e-05 0.160149)
(3.21596e-07 -5.45963e-06 0.115813)
(9.87964e-06 -8.60407e-06 0.283717)
(3.0107e-05 -8.16754e-06 0.410417)
(5.91857e-05 -6.59904e-06 0.508359)
(9.39088e-05 -4.79096e-06 0.584692)
(0.000130755 -3.17273e-06 0.643791)
(0.000165949 -1.88552e-06 0.688475)
(0.000195957 -9.19857e-07 0.720607)
(0.000217788 -2.09575e-07 0.741406)
(0.00022921 3.56088e-07 0.751612)
(0.00022897 9.07933e-07 0.751571)
(0.000216944 1.57762e-06 0.741275)
(0.000194206 2.48755e-06 0.720365)
(0.000163005 3.72689e-06 0.688099)
(0.000126583 5.31893e-06 0.643261)
(8.89025e-05 7.19958e-06 0.584006)
(5.41883e-05 9.11501e-06 0.50755)
(2.61811e-05 1.04863e-05 0.40957)
(7.77123e-06 1.02665e-05 0.282984)
(-7.3515e-09 6.02986e-06 0.115442)
(-3.86013e-07 -1.16095e-06 0.0523356)
(2.01111e-06 -1.46099e-06 0.115803)
(8.41575e-06 -1.13411e-06 0.160581)
(1.85095e-05 -8.37432e-07 0.194323)
(3.10568e-05 -5.41471e-07 0.220341)
(4.46566e-05 -3.13555e-07 0.240381)
(5.77763e-05 -1.65658e-07 0.25549)
(6.9003e-05 -6.65484e-08 0.266337)
(7.7155e-05 -7.36295e-09 0.27335)
(8.13539e-05 2.79592e-08 0.276786)
(8.11171e-05 5.92802e-08 0.276766)
(7.64111e-05 1.04358e-07 0.273285)
(6.76794e-05 1.83026e-07 0.266221)
(5.58353e-05 3.1057e-07 0.255313)
(4.21838e-05 4.93137e-07 0.240136)
(2.83223e-05 7.55215e-07 0.220027)
(1.59558e-05 1.07152e-06 0.193954)
(6.5363e-06 1.35685e-06 0.160189)
(1.0815e-06 1.60652e-06 0.115452)
(-5.11919e-07 1.1841e-06 0.052138)
(-1.41487e-06 2.62874e-06 0.0523301)
(3.8221e-07 3.55804e-06 0.11579)
(9.85247e-06 3.10205e-06 0.160562)
(2.74715e-05 2.45802e-06 0.194301)
(5.13179e-05 1.78056e-06 0.220317)
(7.84051e-05 1.20596e-06 0.240357)
(0.000105265 7.66878e-07 0.255469)
(0.000128544 4.27727e-07 0.266321)
(0.000145367 1.64674e-07 0.27334)
(0.000153607 -5.7166e-08 0.276784)
(0.000152132 -2.77559e-07 0.276771)
(0.000140953 -5.3384e-07 0.273299)
(0.000121298 -8.637e-07 0.266241)
(9.55567e-05 -1.29601e-06 0.255338)
(6.70563e-05 -1.84104e-06 0.240163)
(3.96871e-05 -2.50741e-06 0.220054)
(1.73043e-05 -3.21605e-06 0.193978)
(2.80631e-06 -3.76808e-06 0.160208)
(-2.87671e-06 -3.90797e-06 0.115464)
(-1.77445e-06 -2.56606e-06 0.0521428)
(-6.29451e-07 1.34693e-05 0.1158)
(1.30218e-05 2.30015e-05 0.283683)
(4.84993e-05 2.35576e-05 0.410367)
(0.000104218 2.05169e-05 0.508299)
(0.000174499 1.62366e-05 0.584627)
(0.000251654 1.18959e-05 0.643728)
(0.000326937 7.96917e-06 0.688419)
(0.000391812 4.54286e-06 0.720564)
(0.000438888 1.51959e-06 0.74138)
(0.000462643 -1.30562e-06 0.751606)
(0.000460053 -4.18212e-06 0.751585)
(0.000431006 -7.35623e-06 0.741309)
(0.000378487 -1.10334e-05 0.720417)
(0.00030844 -1.53193e-05 0.688163)
(0.000229218 -2.01357e-05 0.643332)
(0.000150627 -2.51216e-05 0.584077)
(8.2485e-05 -2.94141e-05 0.507614)
(3.26262e-05 -3.13612e-05 0.409621)
(5.04211e-06 -2.81965e-05 0.283017)
(-1.75157e-06 -1.49353e-05 0.115453)
(6.20093e-07 2.46307e-05 0.160599)
(2.96351e-05 4.48237e-05 0.410416)
(9.36306e-05 4.82052e-05 0.6066)
(0.000187691 4.36118e-05 0.761608)
(0.000302181 3.56213e-05 0.883906)
(0.000425444 2.67674e-05 0.979273)
(0.000544459 1.82426e-05 1.0517)
(0.000646581 1.04242e-05 1.10393)
(0.000720837 3.23598e-06 1.13781)
(0.000758972 -3.66389e-06 1.15447)
(0.00075639 -1.07334e-05 1.15445)
(0.00071277 -1.84275e-05 1.13774)
(0.000632349 -2.70895e-05 1.10377)
(0.000523745 -3.68113e-05 1.0514)
(0.000399166 -4.72505e-05 0.978786)
(0.000273078 -5.74106e-05 0.883208)
(0.000160216 -6.52792e-05 0.760725)
(7.28399e-05 -6.73877e-05 0.605631)
(1.87686e-05 -5.83758e-05 0.409558)
(-9.58474e-07 -2.9583e-05 0.160165)
(1.90352e-06 3.30147e-05 0.194378)
(4.62928e-05 6.25079e-05 0.508427)
(0.000137823 6.93991e-05 0.761702)
(0.00026796 6.43858e-05 0.965363)
(0.000423145 5.37038e-05 1.12789)
(0.000588104 4.10273e-05 1.25556)
(0.000746192 2.82575e-05 1.35298)
(0.000881387 1.61354e-05 1.42346)
(0.0009798 4.68435e-06 1.46926)
(0.00103095 -6.49576e-06 1.49182)
(0.00102894 -1.7996e-05 1.49181)
(0.000973197 -3.04045e-05 1.46921)
(0.000868877 -4.41201e-05 1.42331)
(0.000726664 -5.91327e-05 1.35268)
(0.000561832 -7.47511e-05 1.25503)
(0.000392668 -8.92787e-05 1.12711)
(0.000238117 -9.95925e-05 0.964358)
(0.000114565 -0.000100661 0.760588)
(3.38263e-05 -8.50817e-05 0.507438)
(6.47788e-08 -4.18855e-05 0.19388)
(2.95118e-06 3.70751e-05 0.220441)
(6.1096e-05 7.22782e-05 0.584852)
(0.000177286 8.21234e-05 0.884116)
(0.00033961 7.76406e-05 1.12801)
(0.000530827 6.57785e-05 1.3245)
(0.000732411 5.08639e-05 1.4799)
(0.000924606 3.5292e-05 1.59903)
(0.00108856 2.01053e-05 1.68548)
(0.00120797 5.46042e-06 1.74179)
(0.00127054 -9.01874e-06 1.76955)
(0.00126928 -2.39551e-05 1.76954)
(0.00120339 -3.99679e-05 1.74175)
(0.00107871 -5.74255e-05 1.68536)
(0.00090757 -7.61687e-05 1.59874)
(0.000707731 -9.51849e-05 1.47936)
(0.000500681 -0.000112234 1.32367)
(0.000308994 -0.000123419 1.12691)
(0.000152788 -0.000122768 0.882888)
(4.76924e-05 -0.000101867 0.583755)
(9.40197e-07 -4.90108e-05 0.219888)
(3.75477e-06 3.68103e-05 0.24053)
(7.3338e-05 7.33443e-05 0.64405)
(0.00021034 8.47915e-05 0.9796)
(0.000399956 8.13148e-05 1.2558)
(0.000621729 6.97079e-05 1.48003)
(0.000854309 5.43941e-05 1.65835)
(0.00107529 3.79402e-05 1.79561)
(0.00126346 2.15464e-05 1.8955)
(0.00140054 5.4839e-06 1.96068)
(0.00147275 -1.05489e-05 1.99285)
(0.00147221 -2.7123e-05 1.99285)
(0.00139791 -4.48039e-05 1.96066)
(0.00125624 -6.38764e-05 1.89539)
(0.00106082 -8.40453e-05 1.79532)
(0.000831477 -0.000104099 1.65779)
(0.00059235 -0.000121539 1.47914)
(0.000369104 -0.000132195 1.25462)
(0.000185088 -0.000129893 0.97827)
(5.92857e-05 -0.000106256 0.642854)
(1.6119e-06 -5.02183e-05 0.239924)
(4.33796e-06 3.27317e-05 0.255685)
(8.2872e-05 6.62756e-05 0.688826)
(0.000236452 7.76063e-05 1.05212)
(0.000447972 7.52184e-05 1.35332)
(0.000694358 6.50512e-05 1.59925)
(0.000951928 5.11033e-05 1.79571)
(0.00119611 3.57761e-05 1.94742)
(0.00140376 2.0251e-05 2.05809)
(0.00155505 4.85473e-06 2.13041)
(0.00163501 -1.0623e-05 2.16614)
(0.00163504 -2.6648e-05 2.16615)
(0.00155399 -4.36787e-05 2.1304)
(0.00139865 -6.19015e-05 2.05799)
(0.00118369 -8.09481e-05 1.94713)
(0.000930577 -9.95877e-05 1.79513)
(0.000665593 -0.000115404 1.59832)
(0.000416927 -0.000124484 1.35207)
(0.00021059 -0.000121188 1.0507)
(6.82936e-05 -9.80785e-05 0.687541)
(2.08503e-06 -4.5731e-05 0.255032)
(4.7332e-06 2.55899e-05 0.266571)
(8.97955e-05 5.24089e-05 0.721037)
(0.000255661 6.19267e-05 1.10443)
(0.000483543 6.04769e-05 1.42387)
(0.000748396 5.26315e-05 1.68577)
(0.00102475 4.15439e-05 1.89565)
(0.00128638 2.91554e-05 2.05814)
(0.00150869 1.64551e-05 2.17688)
(0.00167065 3.75012e-06 2.25456)
(0.00175641 -9.08743e-06 2.29298)
(0.00175685 -2.23933e-05 2.29299)
(0.00167069 -3.64953e-05 2.25456)
(0.00150504 -5.14957e-05 2.17678)
(0.00127537 -6.70405e-05 2.05784)
(0.00100435 -8.2075e-05 1.89505)
(0.000719938 -9.45962e-05 1.68479)
(0.000452227 -0.000101429 1.42255)
(0.000229254 -9.80858e-05 1.10293)
(7.47773e-05 -7.87732e-05 0.719677)
(2.39015e-06 -3.63738e-05 0.265878)
(4.97529e-06 1.62388e-05 0.273616)
(9.42805e-05 3.35012e-05 0.741899)
(0.000268232 3.98155e-05 1.13836)
(0.000506952 3.90731e-05 1.46972)
(0.000784084 3.41417e-05 1.7421)
(0.00107296 2.70312e-05 1.96085)
(0.00134622 1.8999e-05 2.13047)
(0.00157831 1.06996e-05 2.25458)
(0.00174738 2.3501e-06 2.33584)
(0.00183699 -6.11437e-06 2.37605)
(0.00183769 -1.48936e-05 2.37606)
(0.00174808 -2.41814e-05 2.33584)
(0.00157553 -3.40228e-05 2.25448)
(0.00133602 -4.41641e-05 2.13017)
(0.00105306 -5.38962e-05 1.96022)
(0.000755705 -6.19e-05 1.74109)
(0.000475349 -6.6113e-05 1.46835)
(0.000241389 -6.36573e-05 1.1368)
(7.8934e-05 -5.08697e-05 0.740485)
(2.56709e-06 -2.33417e-05 0.272895)
(5.08984e-06 5.5604e-06 0.277077)
(9.64799e-05 1.15123e-05 0.752154)
(0.000274436 1.37211e-05 1.15505)
(0.000518546 1.34973e-05 1.4923)
(0.000801801 1.18172e-05 1.76987)
(0.00109693 9.37005e-06 1.99302)
(0.00137601 6.59056e-06 2.1662)
(0.00161298 3.70748e-06 2.29298)
(0.0017856 7.98873e-07 2.37604)
(0.00187713 -2.15453e-06 2.41713)
(0.00187794 -5.21877e-06 2.41714)
(0.00178661 -8.45762e-06 2.37603)
(0.0016106 -1.1883e-05 2.29288)
(0.00136616 -1.54029e-05 2.16589)
(0.00107723 -1.87677e-05 1.99238)
(0.000773413 -2.15174e-05 1.76884)
(0.000486759 -2.29379e-05 1.4909)
(0.000247348 -2.2039e-05 1.15346)
(8.0956e-05 -1.75688e-05 0.750711)
(2.6473e-06 -8.03659e-06 0.276341)
(5.08985e-06 -5.56003e-06 0.277077)
(9.64799e-05 -1.15114e-05 0.752154)
(0.000274436 -1.37198e-05 1.15505)
(0.000518546 -1.34959e-05 1.4923)
(0.000801801 -1.18158e-05 1.76987)
(0.00109693 -9.36867e-06 1.99302)
(0.00137601 -6.58923e-06 2.1662)
(0.00161298 -3.70618e-06 2.29298)
(0.0017856 -7.97574e-07 2.37604)
(0.00187714 2.15584e-06 2.41713)
(0.00187794 5.22008e-06 2.41714)
(0.00178661 8.45892e-06 2.37603)
(0.0016106 1.18842e-05 2.29288)
(0.00136616 1.54041e-05 2.16589)
(0.00107723 1.87687e-05 1.99238)
(0.000773413 2.15183e-05 1.76884)
(0.000486759 2.29387e-05 1.4909)
(0.000247348 2.20395e-05 1.15346)
(8.0956e-05 1.7569e-05 0.750711)
(2.64729e-06 8.03668e-06 0.276341)
(4.97531e-06 -1.62384e-05 0.273616)
(9.42805e-05 -3.35002e-05 0.741899)
(0.000268232 -3.98142e-05 1.13836)
(0.000506952 -3.90716e-05 1.46972)
(0.000784084 -3.41403e-05 1.7421)
(0.00107296 -2.703e-05 1.96085)
(0.00134622 -1.89977e-05 2.13047)
(0.00157831 -1.06984e-05 2.25458)
(0.00174738 -2.34888e-06 2.33584)
(0.00183699 6.11561e-06 2.37605)
(0.00183769 1.48948e-05 2.37606)
(0.00174808 2.41826e-05 2.33584)
(0.00157554 3.4024e-05 2.25448)
(0.00133602 4.41652e-05 2.13017)
(0.00105306 5.38973e-05 1.96022)
(0.000755705 6.19009e-05 1.74109)
(0.000475349 6.61137e-05 1.46835)
(0.000241389 6.36577e-05 1.1368)
(7.89339e-05 5.08699e-05 0.740485)
(2.56708e-06 2.33418e-05 0.272895)
(4.7332e-06 -2.55894e-05 0.266571)
(8.97955e-05 -5.24077e-05 0.721037)
(0.000255661 -6.19254e-05 1.10443)
(0.000483544 -6.04756e-05 1.42387)
(0.000748397 -5.26303e-05 1.68577)
(0.00102475 -4.15428e-05 1.89565)
(0.00128638 -2.91543e-05 2.05814)
(0.00150869 -1.64541e-05 2.17688)
(0.00167065 -3.74904e-06 2.25457)
(0.00175641 9.08854e-06 2.29298)
(0.00175685 2.23944e-05 2.29299)
(0.00167069 3.64964e-05 2.25456)
(0.00150504 5.14968e-05 2.17678)
(0.00127537 6.70416e-05 2.05784)
(0.00100435 8.2076e-05 1.89505)
(0.000719939 9.4597e-05 1.68479)
(0.000452227 0.00010143 1.42255)
(0.000229254 9.80861e-05 1.10293)
(7.47772e-05 7.87731e-05 0.719677)
(2.39011e-06 3.63737e-05 0.265878)
(4.3379e-06 -3.27312e-05 0.255685)
(8.2872e-05 -6.62746e-05 0.688826)
(0.000236451 -7.76053e-05 1.05212)
(0.000447972 -7.52174e-05 1.35332)
(0.000694358 -6.50503e-05 1.59925)
(0.000951929 -5.11025e-05 1.79571)
(0.00119611 -3.57752e-05 1.94742)
(0.00140376 -2.02501e-05 2.05809)
(0.00155505 -4.85383e-06 2.13041)
(0.00163501 1.06239e-05 2.16614)
(0.00163504 2.6649e-05 2.16615)
(0.00155399 4.36797e-05 2.1304)
(0.00139865 6.19025e-05 2.05799)
(0.0011837 8.09491e-05 1.94713)
(0.000930578 9.95886e-05 1.79513)
(0.000665593 0.000115405 1.59832)
(0.000416928 0.000124485 1.35207)
(0.00021059 0.000121189 1.0507)
(6.82935e-05 9.80786e-05 0.687541)
(2.08496e-06 4.57311e-05 0.255032)
(3.75463e-06 -3.68101e-05 0.24053)
(7.33379e-05 -7.33439e-05 0.64405)
(0.00021034 -8.47912e-05 0.9796)
(0.000399955 -8.13143e-05 1.2558)
(0.000621729 -6.97073e-05 1.48003)
(0.00085431 -5.43934e-05 1.65835)
(0.00107529 -3.79395e-05 1.79561)
(0.00126346 -2.15458e-05 1.8955)
(0.00140054 -5.48322e-06 1.96068)
(0.00147275 1.05496e-05 1.99285)
(0.00147221 2.71238e-05 1.99285)
(0.00139791 4.48047e-05 1.96066)
(0.00125624 6.38772e-05 1.89539)
(0.00106082 8.40461e-05 1.79532)
(0.000831478 0.0001041 1.65779)
(0.000592351 0.00012154 1.47914)
(0.000369104 0.000132196 1.25462)
(0.000185088 0.000129894 0.97827)
(5.92856e-05 0.000106257 0.642854)
(1.6118e-06 5.02185e-05 0.239924)
(2.95106e-06 -3.70752e-05 0.220441)
(6.10958e-05 -7.22786e-05 0.584852)
(0.000177285 -8.21235e-05 0.884116)
(0.00033961 -7.76403e-05 1.12801)
(0.000530827 -6.57782e-05 1.3245)
(0.000732412 -5.08636e-05 1.4799)
(0.000924608 -3.52917e-05 1.59903)
(0.00108856 -2.01049e-05 1.68548)
(0.00120797 -5.45997e-06 1.74179)
(0.00127054 9.01925e-06 1.76955)
(0.00126928 2.39556e-05 1.76955)
(0.00120339 3.99685e-05 1.74175)
(0.00107872 5.74262e-05 1.68536)
(0.000907572 7.61694e-05 1.59874)
(0.000707733 9.51856e-05 1.47936)
(0.000500681 0.000112235 1.32367)
(0.000308994 0.000123421 1.12691)
(0.000152788 0.000122769 0.882888)
(4.76923e-05 0.000101868 0.583755)
(9.40124e-07 4.90112e-05 0.219888)
(1.90347e-06 -3.30147e-05 0.194378)
(4.62922e-05 -6.25079e-05 0.508427)
(0.000137822 -6.93988e-05 0.761702)
(0.00026796 -6.43853e-05 0.965363)
(0.000423145 -5.37036e-05 1.12789)
(0.000588105 -4.10273e-05 1.25556)
(0.000746194 -2.82575e-05 1.35298)
(0.000881389 -1.61353e-05 1.42346)
(0.000979802 -4.68415e-06 1.46926)
(0.00103096 6.49605e-06 1.49182)
(0.00102894 1.79963e-05 1.49181)
(0.0009732 3.0405e-05 1.46921)
(0.00086888 4.41207e-05 1.42331)
(0.000726666 5.91336e-05 1.35268)
(0.000561834 7.4752e-05 1.25503)
(0.000392669 8.92795e-05 1.12711)
(0.000238117 9.95932e-05 0.964358)
(0.000114565 0.000100662 0.760588)
(3.3826e-05 8.50824e-05 0.507438)
(6.47645e-08 4.18858e-05 0.19388)
(6.20001e-07 -2.463e-05 0.160599)
(2.96341e-05 -4.48219e-05 0.410416)
(9.36293e-05 -4.82037e-05 0.606601)
(0.00018769 -4.36109e-05 0.761608)
(0.000302181 -3.56212e-05 0.883906)
(0.000425445 -2.67678e-05 0.979273)
(0.000544461 -1.8243e-05 1.0517)
(0.000646583 -1.04245e-05 1.10393)
(0.000720839 -3.23604e-06 1.13781)
(0.000758975 3.66397e-06 1.15447)
(0.000756392 1.07336e-05 1.15445)
(0.000712773 1.84279e-05 1.13774)
(0.000632351 2.70902e-05 1.10377)
(0.000523747 3.68124e-05 1.0514)
(0.000399167 4.72518e-05 0.978786)
(0.000273078 5.74113e-05 0.883208)
(0.000160215 6.52792e-05 0.760725)
(7.2839e-05 6.73871e-05 0.605631)
(1.87679e-05 5.83747e-05 0.409558)
(-9.58501e-07 2.95825e-05 0.160165)
(-6.29737e-07 -1.34677e-05 0.1158)
(1.30203e-05 -2.2998e-05 0.283683)
(4.84972e-05 -2.35552e-05 0.410367)
(0.000104217 -2.05158e-05 0.508299)
(0.000174498 -1.62365e-05 0.584627)
(0.000251655 -1.18963e-05 0.643728)
(0.000326938 -7.9697e-06 0.688419)
(0.000391814 -4.54325e-06 0.720564)
(0.00043889 -1.51981e-06 0.74138)
(0.000462645 1.30556e-06 0.751606)
(0.000460055 4.18224e-06 0.751585)
(0.000431008 7.35657e-06 0.741309)
(0.000378489 1.10341e-05 0.720417)
(0.000308442 1.53204e-05 0.688163)
(0.000229219 2.01371e-05 0.643332)
(0.000150626 2.51222e-05 0.584077)
(8.24833e-05 2.94136e-05 0.507614)
(3.26242e-05 3.13593e-05 0.409621)
(5.04099e-06 2.81936e-05 0.283017)
(-1.75177e-06 1.49339e-05 0.115453)
(-1.4151e-06 -2.62773e-06 0.0523301)
(3.81177e-07 -3.55638e-06 0.11579)
(9.85076e-06 -3.10098e-06 0.160562)
(2.74701e-05 -2.45768e-06 0.194301)
(5.13171e-05 -1.78072e-06 0.220317)
(7.84052e-05 -1.20636e-06 0.240357)
(0.000105266 -7.67242e-07 0.255469)
(0.000128545 -4.27971e-07 0.266321)
(0.000145368 -1.6482e-07 0.27334)
(0.000153608 5.70836e-08 0.276784)
(0.000152133 2.77527e-07 0.276771)
(0.000140955 5.33893e-07 0.273299)
(0.0001213 8.63935e-07 0.266241)
(9.55578e-05 1.29654e-06 0.255338)
(6.70567e-05 1.84179e-06 0.240163)
(3.96864e-05 2.50788e-06 0.220054)
(1.73027e-05 3.2158e-06 0.193978)
(2.80446e-06 3.76701e-06 0.160208)
(-2.87762e-06 3.90639e-06 0.115464)
(-1.77454e-06 2.56519e-06 0.0521428)
(-2.47424e-06 4.30364e-06 0.0523209)
(-6.22503e-07 5.90035e-06 0.115767)
(1.33198e-05 5.2588e-06 0.160529)
(4.05043e-05 4.21117e-06 0.19426)
(7.80869e-05 3.10546e-06 0.220273)
(0.000121265 2.14923e-06 0.240314)
(0.00016441 1.39399e-06 0.255432)
(0.000202009 7.96992e-07 0.266292)
(0.000229293 3.16571e-07 0.273323)
(0.00024271 -1.03835e-07 0.276781)
(0.000240334 -5.26805e-07 0.276782)
(0.000222134 -1.01236e-06 0.273324)
(0.000190112 -1.6194e-06 0.266278)
(0.000148232 -2.39379e-06 0.255384)
(0.000102057 -3.35272e-06 0.240213)
(5.81009e-05 -4.48978e-06 0.220103)
(2.27829e-05 -5.66879e-06 0.194022)
(8.70792e-07 -6.56435e-06 0.160243)
(-6.46635e-06 -6.6385e-06 0.115486)
(-3.1509e-06 -4.25999e-06 0.0521504)
(-1.44062e-06 2.24142e-05 0.115779)
(1.8507e-05 3.87982e-05 0.283625)
(7.33944e-05 4.0223e-05 0.410279)
(0.000161441 3.54346e-05 0.50819)
(0.000273906 2.83948e-05 0.58451)
(0.000398378 2.10811e-05 0.643612)
(0.000520582 1.43107e-05 0.688316)
(0.000626436 8.25721e-06 0.720485)
(0.000703627 2.77591e-06 0.741332)
(0.00074288 -2.45251e-06 0.751595)
(0.000739018 -7.81803e-06 0.751613)
(0.000691702 -1.37043e-05 0.741375)
(0.000605784 -2.04213e-05 0.720515)
(0.000491122 -2.81066e-05 0.688284)
(0.000361692 -3.65834e-05 0.643465)
(0.000233952 -4.51701e-05 0.584209)
(0.000124327 -5.23261e-05 0.507732)
(4.58057e-05 -5.51759e-05 0.409713)
(4.39713e-06 -4.89434e-05 0.283075)
(-3.48356e-06 -2.54615e-05 0.115473)
(5.09802e-07 4.14974e-05 0.160569)
(4.50507e-05 7.62592e-05 0.41033)
(0.000146141 8.28015e-05 0.606469)
(0.000296752 7.56402e-05 0.761445)
(0.000481787 6.24414e-05 0.883728)
(0.000682301 4.7447e-05 0.979097)
(0.000876957 3.26871e-05 1.05154)
(0.00104481 1.88398e-05 1.10381)