/*--------------------------------*- C++ -*----------------------------------*\
  =========                 |
  \\      /  F ield         | OpenFOAM: The Open Source CFD Toolbox
   \\    /   O peration     | Website:  https://openfoam.org
    \\  /    A nd           | Version:  6
     \\/     M anipulation  |
\*---------------------------------------------------------------------------*/
FoamFile
{
    version     2.0;
    format      ascii;
    class       volVectorField;
    location    "0.05";
    object      U;
}
// * * * * * * * * * * * * * * * * * * * * * * * * * * * * * * * * * * * * * //

dimensions      [0 1 -1 0 0 0 0];

internalField   nonuniform List<vector> 
48800
(
(9.25401e-08 2.56544e-08 0.0455324)
(-6.2591e-08 3.9987e-07 0.100784)
(1.04709e-08 -1.99624e-07 0.139792)
(2.90083e-07 5.34239e-08 0.169205)
(2.44322e-07 7.21347e-08 0.191898)
(3.83274e-07 -3.66935e-08 0.209386)
(5.57423e-07 -3.89603e-09 0.222577)
(6.38942e-07 8.96643e-09 0.23205)
(7.08936e-07 -3.19437e-09 0.23818)
(7.57867e-07 -3.58452e-09 0.241191)
(7.54491e-07 3.02045e-09 0.24119)
(6.991e-07 2.56429e-09 0.238178)
(6.23465e-07 -9.71106e-09 0.232048)
(5.3719e-07 3.1347e-09 0.222573)
(3.59995e-07 3.53995e-08 0.209382)
(2.21844e-07 -7.39297e-08 0.191893)
(2.67981e-07 -5.24942e-08 0.169199)
(-8.75339e-09 1.95928e-07 0.139786)
(-8.64135e-08 -3.93529e-07 0.100779)
(7.63839e-08 -1.07305e-08 0.0455297)
(4.58557e-07 1.75173e-08 0.100784)
(-2.19147e-07 2.01348e-08 0.24697)
(2.02819e-07 -1.5948e-08 0.357343)
(6.90375e-07 1.26898e-07 0.44271)
(8.10885e-07 7.7638e-08 0.509275)
(1.18282e-06 1.68464e-08 0.560831)
(1.6051e-06 3.83784e-08 0.599823)
(1.85536e-06 2.74311e-08 0.62787)
(2.05249e-06 4.90948e-09 0.646033)
(2.17588e-06 -2.81202e-09 0.654961)
(2.16849e-06 -5.76691e-09 0.654959)
(2.03088e-06 -1.38016e-08 0.64603)
(1.82111e-06 -3.68947e-08 0.627864)
(1.56014e-06 -4.8374e-08 0.599815)
(1.13107e-06 -2.75853e-08 0.560821)
(7.60026e-07 -8.86597e-08 0.509263)
(6.4337e-07 -1.35117e-07 0.442697)
(1.68402e-07 9.76444e-09 0.35733)
(-2.39378e-07 -1.61742e-08 0.24696)
(4.49242e-07 1.037e-09 0.100779)
(3.57413e-07 4.15624e-08 0.139792)
(-2.10932e-07 2.24723e-07 0.357344)
(3.77804e-07 9.2973e-08 0.528274)
(1.21228e-06 2.22691e-07 0.663391)
(1.34536e-06 1.49354e-07 0.770035)
(1.93565e-06 6.64807e-08 0.853215)
(2.59038e-06 7.02953e-08 0.91639)
(2.96572e-06 4.62652e-08 0.961949)
(3.26776e-06 1.2674e-08 0.991499)
(3.45989e-06 -4.78703e-09 1.00603)
(3.45043e-06 -1.64442e-08 1.00603)
(3.23996e-06 -3.48311e-08 0.991494)
(2.92137e-06 -7.01254e-08 0.961941)
(2.53157e-06 -9.60553e-08 0.916379)
(1.86721e-06 -9.40852e-08 0.853201)
(1.27836e-06 -1.77818e-07 0.770018)
(1.14981e-06 -2.47698e-07 0.663373)
(3.34026e-07 -1.14357e-07 0.528256)
(-2.29862e-07 -2.34495e-07 0.357329)
(3.5018e-07 -3.95756e-08 0.139785)
(4.36107e-07 1.41651e-07 0.169206)
(-1.45014e-07 2.75393e-07 0.442712)
(5.6783e-07 2.77674e-07 0.663392)
(1.53556e-06 2.75077e-07 0.840919)
(1.80463e-06 1.9211e-07 0.982632)
(2.61684e-06 1.31369e-07 1.09398)
(3.44697e-06 1.04492e-07 1.17895)
(3.93776e-06 6.09798e-08 1.24041)
(4.33709e-06 2.09815e-08 1.28035)
(4.58613e-06 -6.04429e-09 1.30002)
(4.57579e-06 -2.98001e-08 1.30002)
(4.30655e-06 -5.8212e-08 1.28035)
(3.8887e-06 -1.00743e-07 1.2404)
(3.38139e-06 -1.47183e-07 1.17894)
(2.53966e-06 -1.76526e-07 1.09396)
(1.72866e-06 -2.38293e-07 0.982612)
(1.46459e-06 -3.18061e-07 0.840897)
(5.18628e-07 -3.14314e-07 0.663371)
(-1.65205e-07 -2.98999e-07 0.442695)
(4.29004e-07 -1.48774e-07 0.169198)
(4.66403e-07 1.2893e-07 0.1919)
(-1.07332e-07 2.74678e-07 0.509278)
(7.07294e-07 2.82451e-07 0.770038)
(1.82488e-06 2.73704e-07 0.982634)
(2.24007e-06 2.29362e-07 1.15397)
(3.20508e-06 1.75689e-07 1.28949)
(4.16373e-06 1.27187e-07 1.39339)
(4.75731e-06 7.50167e-08 1.46877)
(5.23867e-06 3.02302e-08 1.51786)
(5.53214e-06 -6.45064e-09 1.54206)
(5.52158e-06 -4.17385e-08 1.54205)
(5.2073e-06 -8.01098e-08 1.51785)
(4.70653e-06 -1.27952e-07 1.46876)
(4.09529e-06 -1.8372e-07 1.39337)
(3.12376e-06 -2.35189e-07 1.28947)
(2.15946e-06 -2.89911e-07 1.15395)
(1.74949e-06 -3.31062e-07 0.98261)
(6.55039e-07 -3.3161e-07 0.770014)
(-1.28141e-07 -3.08716e-07 0.509259)
(4.5928e-07 -1.41544e-07 0.191891)
(4.59796e-07 1.26833e-07 0.209388)
(-6.54705e-08 2.6399e-07 0.560836)
(8.38163e-07 2.93324e-07 0.85322)
(2.07517e-06 2.88796e-07 1.09398)
(2.59701e-06 2.46311e-07 1.2895)
(3.67547e-06 1.86124e-07 1.44501)
(4.74238e-06 1.29894e-07 1.56471)
(5.4252e-06 7.78566e-08 1.65181)
(5.9721e-06 3.25323e-08 1.70863)
(6.29966e-06 -7.7443e-09 1.73667)
(6.28919e-06 -4.72814e-08 1.73666)
(5.94084e-06 -8.93423e-08 1.70862)
(5.37421e-06 -1.37863e-07 1.6518)
(4.67309e-06 -1.93683e-07 1.5647)
(3.59242e-06 -2.53042e-07 1.44499)
(2.5141e-06 -3.14243e-07 1.28947)
(1.99741e-06 -3.53555e-07 1.09396)
(7.84153e-07 -3.49177e-07 0.853195)
(-8.68397e-08 -3.0355e-07 0.560816)
(4.52452e-07 -1.42349e-07 0.209379)
(4.64173e-07 1.20388e-07 0.22258)
(-2.57384e-08 2.43315e-07 0.599829)
(9.38763e-07 2.80457e-07 0.916397)
(2.25586e-06 2.69221e-07 1.17895)
(2.86348e-06 2.26411e-07 1.39339)
(4.03557e-06 1.71712e-07 1.56472)
(5.19056e-06 1.20391e-07 1.69702)
(5.94396e-06 7.31675e-08 1.79352)
(6.54101e-06 3.06601e-08 1.85656)
(6.8947e-06 -8.17932e-09 1.88769)
(6.88442e-06 -4.63411e-08 1.88769)
(6.51021e-06 -8.68508e-08 1.85655)
(5.89338e-06 -1.32337e-07 1.7935)
(5.12129e-06 -1.83087e-07 1.69701)
(3.9519e-06 -2.37328e-07 1.5647)
(2.77936e-06 -2.92911e-07 1.39337)
(2.17665e-06 -3.32748e-07 1.17893)
(8.8354e-07 -3.35452e-07 0.91637)
(-4.76986e-08 -2.82666e-07 0.599808)
(4.56706e-07 -1.36144e-07 0.22257)
(4.67913e-07 9.25424e-08 0.232054)
(-5.48162e-11 1.88575e-07 0.627877)
(1.00771e-06 2.1945e-07 0.961958)
(2.3831e-06 2.09942e-07 1.24042)
(3.05717e-06 1.78506e-07 1.46878)
(4.29834e-06 1.38156e-07 1.65182)
(5.51644e-06 9.79311e-08 1.79352)
(6.32063e-06 5.97407e-08 1.89705)
(6.95406e-06 2.47684e-08 1.96477)
(7.32698e-06 -7.39962e-09 1.99824)
(7.31689e-06 -3.89595e-08 1.99824)
(6.92373e-06 -7.24832e-08 1.96476)
(6.27054e-06 -1.0987e-07 1.89704)
(5.4474e-06 -1.50915e-07 1.7935)
(4.21445e-06 -1.93495e-07 1.6518)
(2.97236e-06 -2.34501e-07 1.46876)
(2.30293e-06 -2.63427e-07 1.24039)
(9.51589e-07 -2.65792e-07 0.96193)
(-2.25494e-08 -2.21866e-07 0.627855)
(4.60331e-07 -1.05967e-07 0.232043)
(4.6815e-07 5.73139e-08 0.238184)
(1.51811e-08 1.17894e-07 0.646042)
(1.05174e-06 1.38197e-07 0.991509)
(2.46607e-06 1.33183e-07 1.28036)
(3.18394e-06 1.14607e-07 1.51787)
(4.46915e-06 8.96348e-08 1.70864)
(5.72747e-06 6.3556e-08 1.85656)
(6.56474e-06 3.85163e-08 1.96477)
(7.22213e-06 1.56062e-08 2.03561)
(7.60778e-06 -5.45044e-09 2.07064)
(7.59782e-06 -2.60897e-08 2.07063)
(7.19213e-06 -4.80184e-08 2.0356)
(6.515e-06 -7.24792e-08 1.96476)
(5.65863e-06 -9.93478e-08 1.85654)
(4.38514e-06 -1.26918e-07 1.70861)
(3.09871e-06 -1.52244e-07 1.51784)
(2.38529e-06 -1.69081e-07 1.28034)
(9.95029e-07 -1.69276e-07 0.991481)
(-7.69356e-09 -1.4024e-07 0.646019)
(4.6048e-07 -6.63477e-08 0.238173)
(4.67849e-07 1.96033e-08 0.241195)
(2.29296e-08 4.03823e-08 0.65497)
(1.07343e-06 4.75578e-08 1.00605)
(2.50676e-06 4.59829e-08 1.30003)
(3.24596e-06 3.96362e-08 1.54207)
(4.55257e-06 3.0914e-08 1.73667)
(5.83069e-06 2.16828e-08 1.8877)
(6.68447e-06 1.28554e-08 1.99824)
(7.35387e-06 4.83447e-09 2.07064)
(7.74586e-06 -2.51005e-09 2.10644)
(7.73597e-06 -9.69246e-09 2.10644)
(7.32403e-06 -1.73152e-08 2.07063)
(6.63492e-06 -2.58282e-08 1.99823)
(5.76193e-06 -3.52256e-08 1.88768)
(4.46849e-06 -4.4889e-08 1.73665)
(3.1605e-06 -5.36209e-08 1.54204)
(2.42567e-06 -5.92198e-08 1.3)
(1.01641e-06 -5.89498e-08 1.00602)
(-1.45559e-10 -4.85507e-08 0.654947)
(4.60126e-07 -2.28988e-08 0.241185)
(4.67846e-07 -1.93898e-08 0.241195)
(2.29088e-08 -4.01095e-08 0.65497)
(1.0734e-06 -4.7277e-08 1.00605)
(2.50672e-06 -4.59122e-08 1.30003)
(3.24593e-06 -3.99096e-08 1.54207)
(4.55255e-06 -3.15788e-08 1.73667)
(5.8307e-06 -2.27151e-08 1.8877)
(6.6845e-06 -1.41862e-08 1.99824)
(7.35392e-06 -6.37956e-09 2.07064)
(7.74593e-06 8.27753e-10 2.10644)
(7.73603e-06 7.92715e-09 2.10644)
(7.32408e-06 1.54879e-08 2.07063)
(6.63494e-06 2.39256e-08 1.99823)
(5.76192e-06 3.32182e-08 1.88768)
(4.46846e-06 4.27707e-08 1.73665)
(3.16047e-06 5.14506e-08 1.54204)
(2.42564e-06 5.71344e-08 1.3)
(1.01639e-06 5.71486e-08 1.00602)
(-1.58249e-10 4.72812e-08 0.654947)
(4.60129e-07 2.2328e-08 0.241185)
(4.6813e-07 -5.70274e-08 0.238184)
(1.51331e-08 -1.17511e-07 0.646042)
(1.05166e-06 -1.37829e-07 0.991509)
(2.46597e-06 -1.33057e-07 1.28036)
(3.18386e-06 -1.14846e-07 1.51787)
(4.46911e-06 -9.02738e-08 1.70864)
(5.72749e-06 -6.45609e-08 1.85656)
(6.56482e-06 -3.98115e-08 1.96477)
(7.22229e-06 -1.71034e-08 2.03561)
(7.60797e-06 3.83069e-09 2.07064)
(7.59802e-06 2.44018e-08 2.07063)
(7.19228e-06 4.62785e-08 2.0356)
(6.51506e-06 7.06645e-08 1.96476)
(5.6586e-06 9.74202e-08 1.85654)
(4.38506e-06 1.24867e-07 1.70861)
(3.09862e-06 1.50124e-07 1.51784)
(2.38523e-06 1.67023e-07 1.28034)
(9.94983e-07 1.67481e-07 0.991481)
(-7.70593e-09 1.38969e-07 0.646019)
(4.60484e-07 6.57852e-08 0.238173)
(4.67862e-07 -9.22054e-08 0.232054)
(-1.0225e-10 -1.88152e-07 0.627877)
(1.0076e-06 -2.19065e-07 0.961958)
(2.38298e-06 -2.09815e-07 1.24042)
(3.05706e-06 -1.78745e-07 1.46878)
(4.29828e-06 -1.38783e-07 1.65182)
(5.51647e-06 -9.89071e-08 1.79352)
(6.32077e-06 -6.09847e-08 1.89705)
(6.95431e-06 -2.61887e-08 1.96477)
(7.3273e-06 5.88484e-09 1.99824)
(7.31722e-06 3.74034e-08 1.99824)
(6.92398e-06 7.08956e-08 1.96476)
(6.27065e-06 1.08221e-07 1.89704)
(5.44738e-06 1.49167e-07 1.7935)
(4.21436e-06 1.91638e-07 1.6518)
(2.97229e-06 2.32587e-07 1.46876)
(2.3029e-06 2.61578e-07 1.24039)
(9.5158e-07 2.64199e-07 0.96193)
(-2.24996e-08 2.20759e-07 0.627855)
(4.60345e-07 1.05487e-07 0.232044)
(4.64097e-07 -1.20062e-07 0.22258)
(-2.57847e-08 -2.42965e-07 0.599829)
(9.38638e-07 -2.80153e-07 0.916397)
(2.25573e-06 -2.6916e-07 1.17896)
(2.86335e-06 -2.26689e-07 1.39339)
(4.0355e-06 -1.72353e-07 1.56472)
(5.1906e-06 -1.21351e-07 1.69702)
(5.94415e-06 -7.43614e-08 1.79352)
(6.54135e-06 -3.19911e-08 1.85656)
(6.89515e-06 6.79757e-09 1.88769)
(6.88489e-06 4.49628e-08 1.88769)
(6.51058e-06 8.54848e-08 1.85655)
(5.89358e-06 1.30957e-07 1.79351)
(5.12132e-06 1.81662e-07 1.69701)
(3.95188e-06 2.35856e-07 1.5647)
(2.77938e-06 2.91444e-07 1.39337)
(2.17673e-06 3.31398e-07 1.17893)
(8.83623e-07 3.34348e-07 0.916371)
(-4.75684e-08 2.8196e-07 0.599808)
(4.56728e-07 1.35853e-07 0.22257)
(4.59714e-07 -1.26457e-07 0.209389)
(-6.56826e-08 -2.63636e-07 0.560836)
(8.37905e-07 -2.93032e-07 0.85322)
(2.07491e-06 -2.88752e-07 1.09398)
(2.59678e-06 -2.46609e-07 1.2895)
(3.67533e-06 -1.86791e-07 1.44501)
(4.74241e-06 -1.30873e-07 1.56472)
(5.42543e-06 -7.90412e-08 1.65182)
(5.97253e-06 -3.38064e-08 1.70863)
(6.30025e-06 6.48396e-09 1.73667)
(6.28982e-06 4.61032e-08 1.73667)
(5.94138e-06 8.82654e-08 1.70862)
(5.37455e-06 1.36862e-07 1.6518)
(4.67324e-06 1.92717e-07 1.5647)
(3.59248e-06 2.52107e-07 1.44499)
(2.5142e-06 3.13393e-07 1.28947)
(1.99757e-06 3.52844e-07 1.09396)
(7.84313e-07 3.48687e-07 0.853195)
(-8.66773e-08 3.03336e-07 0.560816)
(4.52484e-07 1.42285e-07 0.209379)
(4.66291e-07 -1.28079e-07 0.1919)
(-1.08178e-07 -2.73875e-07 0.509278)
(7.06561e-07 -2.81789e-07 0.770038)
(1.82424e-06 -2.7342e-07 0.982634)
(2.23956e-06 -2.29536e-07 1.15397)
(3.20476e-06 -1.76323e-07 1.28949)
(4.16368e-06 -1.28179e-07 1.39339)
(4.75756e-06 -7.62115e-08 1.46878)
(5.2392e-06 -3.14648e-08 1.51786)
(5.5329e-06 5.32338e-09 1.54206)
(5.52244e-06 4.08235e-08 1.54206)
(5.20808e-06 7.94361e-08 1.51785)
(4.70706e-06 1.27464e-07 1.46877)
(4.09552e-06 1.8333e-07 1.39338)
(3.12382e-06 2.34849e-07 1.28948)
(2.15949e-06 2.89601e-07 1.15395)
(1.74956e-06 3.30834e-07 0.98261)
(6.5513e-07 3.31497e-07 0.770015)
(-1.28073e-07 3.08751e-07 0.50926)
(4.59316e-07 1.41585e-07 0.191891)
(4.359e-07 -1.39071e-07 0.169206)
(-1.47288e-07 -2.73097e-07 0.442712)
(5.66093e-07 -2.75824e-07 0.663393)
(1.53417e-06 -2.7402e-07 0.840919)
(1.80362e-06 -1.91842e-07 0.982633)
(2.61621e-06 -1.31781e-07 1.09398)
(3.44675e-06 -1.0539e-07 1.17895)
(3.93798e-06 -6.21251e-08 1.24041)
(4.33771e-06 -2.2132e-08 1.28036)
(4.5871e-06 5.10729e-09 1.30002)
(4.57695e-06 2.92285e-08 1.30002)
(4.30763e-06 5.80251e-08 1.28035)
(3.88942e-06 1.00812e-07 1.2404)
(3.38163e-06 1.47296e-07 1.17894)
(2.53948e-06 1.76485e-07 1.09396)
(1.7283e-06 2.38051e-07 0.982613)
(1.46424e-06 3.17655e-07 0.840898)
(5.18381e-07 3.13848e-07 0.663372)
(-1.65381e-07 2.9862e-07 0.442695)
(4.29007e-07 1.48627e-07 0.169198)
(3.56793e-07 -3.44148e-08 0.139792)
(-2.15036e-07 -2.19416e-07 0.357344)
(3.74507e-07 -8.92942e-08 0.528274)
(1.20987e-06 -2.20483e-07 0.663391)
(1.3437e-06 -1.48369e-07 0.770035)
(1.93461e-06 -6.64399e-08 0.853216)
(2.58993e-06 -7.08979e-08 0.916391)
(2.96585e-06 -4.71919e-08 0.96195)
(3.26843e-06 -1.36049e-08 0.9915)
(3.46103e-06 4.13756e-09 1.00604)
(3.45185e-06 1.6257e-08 1.00603)
(3.24129e-06 3.50908e-08 0.991495)
(2.92219e-06 7.05836e-08 0.961942)
(2.53162e-06 9.63286e-08 0.91638)
(1.86656e-06 9.3876e-08 0.853201)
(1.27732e-06 1.77034e-07 0.770018)
(1.14877e-06 2.4648e-07 0.663373)
(3.33272e-07 1.12946e-07 0.528257)
(-2.30227e-07 2.33224e-07 0.357329)
(3.50128e-07 3.90432e-08 0.139785)
(4.53443e-07 2.43566e-09 0.100784)
(-2.28288e-07 -1.0346e-08 0.24697)
(1.97691e-07 2.07756e-08 0.357343)
(6.87283e-07 -1.23827e-07 0.44271)
(8.08855e-07 -7.61086e-08 0.509275)
(1.18153e-06 -1.62952e-08 0.560832)
(1.60448e-06 -3.84231e-08 0.599824)
(1.85538e-06 -2.7777e-08 0.62787)
(2.05312e-06 -5.28357e-09 0.646034)
(2.17703e-06 2.63519e-09 0.654961)
(2.16994e-06 5.89545e-09 0.65496)
(2.03218e-06 1.41576e-08 0.64603)
(1.82176e-06 3.72189e-08 0.627865)
(1.55985e-06 4.83515e-08 0.599816)
(1.12996e-06 2.7007e-08 0.560821)
(7.58493e-07 8.75482e-08 0.509263)
(6.41885e-07 1.33668e-07 0.442697)
(1.67352e-07 -1.12846e-08 0.35733)
(-2.39685e-07 1.48226e-08 0.24696)
(4.49175e-07 -1.68069e-09 0.100779)
(7.75673e-08 -1.0472e-08 0.0455324)
(-8.2156e-08 -3.94366e-07 0.100784)
(3.36404e-09 2.0056e-07 0.139792)
(2.86983e-07 -5.29341e-08 0.169205)
(2.42685e-07 -7.18662e-08 0.191898)
(3.82266e-07 3.67584e-08 0.209386)
(5.56858e-07 3.77988e-09 0.222577)
(6.38803e-07 -9.19081e-09 0.23205)
(7.09207e-07 2.96514e-09 0.23818)
(7.58477e-07 3.45808e-09 0.241191)
(7.55247e-07 -2.97276e-09 0.24119)
(6.99691e-07 -2.35977e-09 0.238178)
(6.23586e-07 9.94026e-09 0.232048)
(5.36725e-07 -3.07798e-09 0.222574)
(3.5909e-07 -3.56632e-08 0.209382)
(2.20804e-07 7.33432e-08 0.191893)
(2.67089e-07 5.16939e-08 0.169199)
(-9.3311e-09 -1.96786e-07 0.139786)
(-8.65197e-08 3.92798e-07 0.100779)
(7.64207e-08 1.04097e-08 0.0455297)
(6.97811e-08 2.80263e-08 0.0455324)
(-1.1602e-07 4.17029e-07 0.100784)
(-3.5218e-08 -1.80002e-07 0.139792)
(2.85483e-07 7.00057e-08 0.169205)
(3.19178e-07 8.50841e-08 0.191898)
(5.63937e-07 -2.72389e-08 0.209386)
(8.51994e-07 2.54263e-09 0.222577)
(1.03625e-06 1.28981e-08 0.23205)
(1.18087e-06 -1.37428e-09 0.23818)
(1.26416e-06 -3.65431e-09 0.241191)
(1.24904e-06 1.08773e-09 0.24119)
(1.13714e-06 -1.39884e-09 0.238178)
(9.68657e-07 -1.60401e-08 0.232048)
(7.67767e-07 -6.00175e-09 0.222574)
(4.73039e-07 2.30271e-08 0.209382)
(2.34664e-07 -8.97702e-08 0.191893)
(2.15628e-07 -7.14996e-08 0.1692)
(-8.10098e-08 1.7506e-07 0.139786)
(-1.38299e-07 -4.12737e-07 0.100779)
(6.34382e-08 -2.1732e-08 0.0455298)
(4.39188e-07 8.03503e-08 0.100784)
(-2.55903e-07 1.60165e-07 0.24697)
(2.44347e-07 1.45848e-07 0.357343)
(9.14372e-07 2.79138e-07 0.44271)
(1.31132e-06 2.07299e-07 0.509274)
(2.01753e-06 1.19316e-07 0.560831)
(2.78389e-06 1.13462e-07 0.599823)
(3.33812e-06 7.66592e-08 0.62787)
(3.75518e-06 2.99769e-08 0.646033)
(3.98268e-06 -8.6839e-10 0.65496)
(3.94806e-06 -2.69277e-08 0.65496)
(3.65479e-06 -5.90952e-08 0.64603)
(3.1822e-06 -1.08135e-07 0.627865)
(2.5885e-06 -1.47558e-07 0.599816)
(1.80515e-06 -1.558e-07 0.560822)
(1.11049e-06 -2.44324e-07 0.509263)
(7.47746e-07 -3.11255e-07 0.442697)
(1.34601e-07 -1.70433e-07 0.35733)
(-3.03383e-07 -1.69052e-07 0.24696)
(4.2922e-07 -7.31166e-08 0.100779)
(3.4279e-07 1.93619e-07 0.139792)
(-1.86613e-07 5.29043e-07 0.357343)
(5.98661e-07 4.44421e-07 0.528274)
(1.79394e-06 5.61406e-07 0.66339)
(2.42209e-06 4.44255e-07 0.770034)
(3.58309e-06 3.04231e-07 0.853214)
(4.81065e-06 2.47351e-07 0.91639)
(5.68566e-06 1.63567e-07 0.961948)
(6.34824e-06 7.23318e-08 0.991498)
(6.71389e-06 -1.39473e-09 1.00603)
(6.66727e-06 -6.95574e-08 1.00603)
(6.21278e-06 -1.46402e-07 0.991495)
(5.47452e-06 -2.43182e-07 0.961942)
(4.54461e-06 -3.3326e-07 0.91638)
(3.29181e-06 -3.95289e-07 0.853202)
(2.14498e-06 -5.36344e-07 0.770019)
(1.56129e-06 -6.44938e-07 0.663374)
(4.44343e-07 -5.12356e-07 0.528257)
(-2.53265e-07 -5.6678e-07 0.35733)
(3.30659e-07 -1.99971e-07 0.139786)
(4.26227e-07 3.64541e-07 0.169206)
(-4.31863e-08 7.24805e-07 0.442711)
(1.00498e-06 8.05115e-07 0.663391)
(2.52436e-06 7.9181e-07 0.840918)
(3.51137e-06 6.48821e-07 0.982631)
(5.12749e-06 5.04317e-07 1.09398)
(6.75117e-06 3.84954e-07 1.17895)
(7.92806e-06 2.47771e-07 1.24041)
(8.82145e-06 1.15528e-07 1.28035)
(9.31113e-06 -2.66265e-09 1.30002)
(9.25741e-06 -1.18278e-07 1.30002)
(8.66501e-06 -2.41186e-07 1.28035)
(7.6834e-06 -3.81781e-07 1.2404)
(6.44153e-06 -5.28513e-07 1.17894)
(4.7864e-06 -6.55301e-07 1.09396)
(3.18483e-06 -8.0109e-07 0.982613)
(2.24863e-06 -9.33238e-07 0.840898)
(8.21003e-07 -9.22131e-07 0.663372)
(-1.23081e-07 -7.99913e-07 0.442695)
(4.13224e-07 -3.87966e-07 0.169199)
(4.61668e-07 3.93574e-07 0.1919)
(7.42799e-08 8.16657e-07 0.509277)
(1.36226e-06 9.27643e-07 0.770037)
(3.21726e-06 9.1396e-07 0.982633)
(4.56299e-06 8.01701e-07 1.15397)
(6.55094e-06 6.47496e-07 1.28949)
(8.50808e-06 4.84475e-07 1.39339)
(9.95959e-06 3.13745e-07 1.46877)
(1.10579e-05 1.50359e-07 1.51786)
(1.16544e-05 -4.63675e-09 1.54206)
(1.15966e-05 -1.59456e-07 1.54205)
(1.08891e-05 -3.20294e-07 1.51785)
(9.69471e-06 -4.93972e-07 1.46877)
(8.17149e-06 -6.76513e-07 1.39338)
(6.17833e-06 -8.48635e-07 1.28948)
(4.20431e-06 -1.00419e-06 1.15395)
(2.91323e-06 -1.10377e-06 0.982611)
(1.1584e-06 -1.0867e-06 0.770015)
(-1.46872e-08 -9.23893e-07 0.50926)
(4.47756e-07 -4.31567e-07 0.191892)
(4.59661e-07 4.00383e-07 0.209388)
(1.8853e-07 8.32055e-07 0.560835)
(1.69114e-06 9.77445e-07 0.853219)
(3.83348e-06 9.74576e-07 1.09398)
(5.47669e-06 8.64745e-07 1.28949)
(7.77339e-06 6.99624e-07 1.44501)
(1.00205e-05 5.20796e-07 1.56471)
(1.17131e-05 3.39615e-07 1.65181)
(1.29854e-05 1.6352e-07 1.70863)
(1.36715e-05 -8.16603e-09 1.73667)
(1.36112e-05 -1.80739e-07 1.73666)
(1.28091e-05 -3.58692e-07 1.70862)
(1.14357e-05 -5.45787e-07 1.6518)
(9.66681e-06 -7.39584e-07 1.5647)
(7.38018e-06 -9.28102e-07 1.44499)
(5.09638e-06 -1.09448e-06 1.28947)
(3.51e-06 -1.19078e-06 1.09396)
(1.47332e-06 -1.16014e-06 0.853196)
(9.28757e-08 -9.57878e-07 0.560816)
(4.4475e-07 -4.47259e-07 0.20938)
(4.67754e-07 3.70988e-07 0.222579)
(2.88531e-07 7.69497e-07 0.599828)
(1.95777e-06 9.1985e-07 0.916396)
(4.32166e-06 9.15144e-07 1.17895)
(6.21123e-06 8.12799e-07 1.39339)
(8.76556e-06 6.6127e-07 1.56472)
(1.1253e-05 4.94527e-07 1.69702)
(1.31432e-05 3.24079e-07 1.79351)
(1.45563e-05 1.55623e-07 1.85656)
(1.5315e-05 -1.04802e-08 1.88769)
(1.52532e-05 -1.77687e-07 1.88769)
(1.43754e-05 -3.49716e-07 1.85655)
(1.28578e-05 -5.28547e-07 1.79351)
(1.08879e-05 -7.10871e-07 1.69701)
(8.35822e-06 -8.86689e-07 1.5647)
(5.81565e-06 -1.03922e-06 1.39337)
(3.98411e-06 -1.12858e-06 1.17893)
(1.72954e-06 -1.10106e-06 0.916371)
(1.87596e-07 -8.95659e-07 0.599808)
(4.52001e-07 -4.19083e-07 0.22257)
(4.74241e-07 2.927e-07 0.232053)
(3.60192e-07 6.12266e-07 0.627877)
(2.15431e-06 7.37683e-07 0.961956)
(4.68604e-06 7.36421e-07 1.24042)
(6.76658e-06 6.58774e-07 1.46878)
(9.51715e-06 5.40702e-07 1.65182)
(1.21857e-05 4.06436e-07 1.79352)
(1.4225e-05 2.6685e-07 1.89705)
(1.57448e-05 1.27537e-07 1.96477)
(1.65588e-05 -1.04851e-08 1.99824)
(1.6496e-05 -1.49504e-07 1.99824)
(1.55608e-05 -2.92368e-07 1.96476)
(1.39342e-05 -4.4015e-07 1.89704)
(1.18127e-05 -5.89407e-07 1.7935)
(9.09987e-06 -7.31017e-07 1.6518)
(6.36008e-06 -8.49744e-07 1.46876)
(4.33824e-06 -9.16522e-07 1.24039)
(1.91833e-06 -8.90918e-07 0.961931)
(2.55131e-07 -7.19535e-07 0.627856)
(4.5775e-07 -3.34035e-07 0.232044)
(4.76265e-07 1.86123e-07 0.238183)
(4.06254e-07 3.92008e-07 0.646041)
(2.28443e-06 4.7492e-07 0.991508)
(4.9295e-06 4.76528e-07 1.28036)
(7.13858e-06 4.28813e-07 1.51787)
(1.00198e-05 3.5368e-07 1.70863)
(1.2809e-05 2.66297e-07 1.85656)
(1.49484e-05 1.74727e-07 1.96477)
(1.65399e-05 8.30494e-08 2.03561)
(1.73913e-05 -7.9526e-09 2.07063)
(1.73278e-05 -9.96489e-08 2.07063)
(1.63539e-05 -1.93801e-07 2.0356)
(1.4654e-05 -2.90979e-07 1.96476)
(1.24308e-05 -3.88817e-07 1.85655)
(9.59595e-06 -4.80924e-07 1.70862)
(6.72481e-06 -5.56361e-07 1.51784)
(4.57483e-06 -5.96791e-07 1.28034)
(2.04316e-06 -5.77324e-07 0.991482)
(2.98314e-07 -4.63874e-07 0.64602)
(4.59224e-07 -2.13958e-07 0.238173)
(4.76852e-07 6.4061e-08 0.241195)
(4.2944e-07 1.35243e-07 0.654969)
(2.34938e-06 1.64349e-07 1.00605)
(5.05102e-06 1.65307e-07 1.30003)
(7.32426e-06 1.49026e-07 1.54206)
(1.02707e-05 1.22982e-07 1.73667)
(1.31204e-05 9.24685e-08 1.8877)
(1.53102e-05 6.04661e-08 1.99824)
(1.69379e-05 2.84378e-08 2.07064)
(1.78081e-05 -3.35349e-09 2.10644)
(1.77444e-05 -3.53751e-08 2.10644)
(1.67509e-05 -6.82249e-08 2.07063)
(1.5014e-05 -1.02098e-07 1.99823)
(1.27396e-05 -1.3619e-07 1.88768)
(9.84354e-06 -1.68238e-07 1.73665)
(6.9068e-06 -1.94263e-07 1.54204)
(4.69284e-06 -2.0787e-07 1.30001)
(2.1054e-06 -2.00549e-07 1.00602)
(3.2e-07 -1.60659e-07 0.654948)
(4.59501e-07 -7.39132e-08 0.241185)
(4.76851e-07 -6.36975e-08 0.241195)
(4.29426e-07 -1.34638e-07 0.65497)
(2.34935e-06 -1.63604e-07 1.00605)
(5.05097e-06 -1.64699e-07 1.30003)
(7.32421e-06 -1.48734e-07 1.54207)
(1.02706e-05 -1.23091e-07 1.73667)
(1.31203e-05 -9.29807e-08 1.8877)
(1.53102e-05 -6.13287e-08 1.99824)
(1.6938e-05 -2.95694e-08 2.07064)
(1.78082e-05 2.03848e-09 2.10644)
(1.77444e-05 3.39475e-08 2.10644)
(1.6751e-05 6.67253e-08 2.07063)
(1.5014e-05 1.00531e-07 1.99823)
(1.27396e-05 1.34534e-07 1.88768)
(9.84353e-06 1.66486e-07 1.73665)
(6.90678e-06 1.92458e-07 1.54204)
(4.69282e-06 2.06122e-07 1.30001)
(2.10538e-06 1.99026e-07 1.00602)
(3.19993e-07 1.59577e-07 0.654948)
(4.59505e-07 7.34193e-08 0.241185)
(4.76265e-07 -1.85707e-07 0.238183)
(4.06233e-07 -3.91343e-07 0.646041)
(2.28435e-06 -4.74144e-07 0.991508)
(4.92939e-06 -4.7592e-07 1.28036)
(7.13844e-06 -4.28536e-07 1.51787)
(1.00197e-05 -3.53807e-07 1.70863)
(1.28089e-05 -2.66821e-07 1.85656)
(1.49484e-05 -1.75591e-07 1.96477)
(1.654e-05 -8.41675e-08 2.03561)
(1.73914e-05 6.66834e-09 2.07064)
(1.7328e-05 9.82694e-08 2.07063)
(1.6354e-05 1.92361e-07 2.0356)
(1.46541e-05 2.89476e-07 1.96476)
(1.24308e-05 3.87222e-07 1.85655)
(9.59593e-06 4.79226e-07 1.70862)
(6.72477e-06 5.54601e-07 1.51784)
(4.57479e-06 5.95077e-07 1.28034)
(2.04313e-06 5.75827e-07 0.991482)
(2.98316e-07 4.62816e-07 0.64602)
(4.59227e-07 2.13483e-07 0.238173)
(4.74218e-07 -2.92274e-07 0.232053)
(3.60183e-07 -6.11643e-07 0.627877)
(2.15421e-06 -7.36983e-07 0.961957)
(4.68588e-06 -7.35904e-07 1.24042)
(6.76638e-06 -6.58587e-07 1.46878)
(9.51696e-06 -5.40902e-07 1.65182)
(1.21856e-05 -4.07012e-07 1.79352)
(1.4225e-05 -2.67739e-07 1.89705)
(1.57449e-05 -1.28649e-07 1.96477)
(1.65591e-05 9.24038e-09 1.99824)
(1.64963e-05 1.48196e-07 1.99824)
(1.5561e-05 2.91028e-07 1.96476)
(1.39344e-05 4.38765e-07 1.89704)
(1.18128e-05 5.87952e-07 1.7935)
(9.09989e-06 7.29485e-07 1.6518)
(6.36009e-06 8.48177e-07 1.46876)
(4.33826e-06 9.15024e-07 1.24039)
(1.91834e-06 8.89642e-07 0.961931)
(2.55197e-07 7.18669e-07 0.627856)
(4.57763e-07 3.33656e-07 0.232044)
(4.67723e-07 -3.70613e-07 0.22258)
(2.88534e-07 -7.69026e-07 0.599829)
(1.95766e-06 -9.19316e-07 0.916396)
(4.32147e-06 -9.14777e-07 1.17895)
(6.21098e-06 -8.12734e-07 1.39339)
(8.76531e-06 -6.61564e-07 1.56472)
(1.12528e-05 -4.95164e-07 1.69702)
(1.31431e-05 -3.24986e-07 1.79352)
(1.45564e-05 -1.56706e-07 1.85656)
(1.53154e-05 9.31746e-09 1.88769)
(1.52536e-05 1.76514e-07 1.88769)
(1.43758e-05 3.48562e-07 1.85655)
(1.28581e-05 5.27403e-07 1.79351)
(1.08881e-05 7.09715e-07 1.69701)
(8.35834e-06 8.85527e-07 1.5647)
(5.81578e-06 1.0381e-06 1.39337)
(3.98425e-06 1.12758e-06 1.17893)
(1.72966e-06 1.10028e-06 0.916372)
(1.87732e-07 8.95205e-07 0.599809)
(4.5202e-07 4.18899e-07 0.22257)
(4.59627e-07 -4.00004e-07 0.209388)
(1.88417e-07 -8.3165e-07 0.560835)
(1.69092e-06 -9.76986e-07 0.853219)
(3.83316e-06 -9.74296e-07 1.09398)
(5.47632e-06 -8.64782e-07 1.28949)
(7.77303e-06 -7.00027e-07 1.44501)
(1.00203e-05 -5.21526e-07 1.56471)
(1.1713e-05 -3.40578e-07 1.65181)
(1.29856e-05 -1.64599e-07 1.70863)
(1.36719e-05 7.08204e-09 1.73667)
(1.36117e-05 1.79734e-07 1.73667)
(1.28097e-05 3.57802e-07 1.70863)
(1.14362e-05 5.44999e-07 1.65181)
(9.66714e-06 7.38875e-07 1.5647)
(7.38043e-06 9.27471e-07 1.44499)
(5.09663e-06 1.09394e-06 1.28947)
(3.51025e-06 1.19039e-06 1.09396)
(1.47351e-06 1.15994e-06 0.853196)
(9.3024e-08 9.57879e-07 0.560816)
(4.44771e-07 4.47287e-07 0.20938)
(4.61595e-07 -3.92839e-07 0.1919)
(7.36934e-08 -8.15874e-07 0.509277)
(1.36162e-06 -9.26848e-07 0.770037)
(3.21658e-06 -9.13478e-07 0.982633)
(4.56233e-06 -8.01653e-07 1.15397)
(6.55038e-06 -6.47894e-07 1.28949)
(8.50773e-06 -4.85236e-07 1.39339)
(9.95954e-06 -3.14723e-07 1.46877)
(1.10582e-05 -1.51393e-07 1.51786)
(1.1655e-05 3.70411e-09 1.54206)
(1.15974e-05 1.58738e-07 1.54206)
(1.08899e-05 3.1983e-07 1.51786)
(9.6954e-06 4.93721e-07 1.46877)
(8.17194e-06 6.76398e-07 1.39338)
(6.1786e-06 8.48584e-07 1.28948)
(4.20451e-06 1.00419e-06 1.15395)
(2.9134e-06 1.10381e-06 0.982612)
(1.15851e-06 1.08681e-06 0.770016)
(-1.46618e-08 9.24061e-07 0.50926)
(4.47773e-07 4.31671e-07 0.191892)
(4.25997e-07 -3.62595e-07 0.169206)
(-4.47273e-08 -7.22843e-07 0.442711)
(1.00351e-06 -8.03304e-07 0.663392)
(2.52302e-06 -7.9064e-07 0.840918)
(3.51024e-06 -6.48364e-07 0.982631)
(5.12662e-06 -5.04497e-07 1.09398)
(6.75066e-06 -3.85606e-07 1.17895)
(7.92798e-06 -2.48671e-07 1.24041)
(8.82183e-06 -1.16437e-07 1.28035)
(9.31195e-06 1.96701e-09 1.30002)
(9.25854e-06 1.1795e-07 1.30002)
(8.66618e-06 2.41251e-07 1.28035)
(7.68429e-06 3.82108e-07 1.24041)
(6.44196e-06 5.28884e-07 1.17894)
(4.78645e-06 6.55544e-07 1.09396)
(3.18465e-06 8.01119e-07 0.982614)
(2.24839e-06 9.33063e-07 0.840899)
(8.20766e-07 9.21838e-07 0.663372)
(-1.23304e-07 7.99631e-07 0.442696)
(4.13192e-07 3.87872e-07 0.169199)
(3.41895e-07 -1.89342e-07 0.139792)
(-1.893e-07 -5.25149e-07 0.357343)
(5.96056e-07 -4.41268e-07 0.528274)
(1.79177e-06 -5.59294e-07 0.663391)
(2.4204e-06 -4.4316e-07 0.770034)
(3.58187e-06 -3.03982e-07 0.853215)
(4.80994e-06 -2.4771e-07 0.91639)
(5.68552e-06 -1.6424e-07 0.961949)
(6.34869e-06 -7.30054e-08 0.991499)
(6.71491e-06 1.00664e-09 1.00604)
(6.66867e-06 6.96345e-08 1.00603)
(6.21417e-06 1.46916e-07 0.991495)
(5.47546e-06 2.43865e-07 0.961943)
(4.54482e-06 3.33728e-07 0.916381)
(3.29135e-06 3.95248e-07 0.853202)
(2.14414e-06 5.3573e-07 0.770019)
(1.56039e-06 6.43893e-07 0.663374)
(4.43629e-07 5.1112e-07 0.528257)
(-2.53664e-07 5.65679e-07 0.35733)
(3.30559e-07 1.99522e-07 0.139786)
(4.36232e-07 -7.32326e-08 0.100784)
(-2.59401e-07 -1.56016e-07 0.24697)
(2.40841e-07 -1.424e-07 0.357343)
(9.11883e-07 -2.76746e-07 0.44271)
(1.30945e-06 -2.05942e-07 0.509275)
(2.01616e-06 -1.18733e-07 0.560831)
(2.78308e-06 -1.1341e-07 0.599823)
(3.33792e-06 -7.68862e-08 0.62787)
(3.75563e-06 -3.02182e-08 0.646033)
(3.98373e-06 8.37391e-10 0.654961)
(3.94948e-06 2.72058e-08 0.65496)
(3.65611e-06 5.95837e-08 0.646031)
(3.1829e-06 1.08551e-07 0.627865)
(2.58829e-06 1.47561e-07 0.599816)
(1.80415e-06 1.55195e-07 0.560822)
(1.10913e-06 2.43186e-07 0.509264)
(7.46472e-07 3.09839e-07 0.442697)
(1.33712e-07 1.69012e-07 0.357331)
(-3.03674e-07 1.67882e-07 0.24696)
(4.2909e-07 7.25561e-08 0.100779)
(6.49527e-08 -2.30404e-08 0.0455324)
(-1.22718e-07 -4.13773e-07 0.100784)
(-3.92759e-08 1.8118e-07 0.139792)
(2.83194e-07 -6.94701e-08 0.169205)
(3.17743e-07 -8.48127e-08 0.191898)
(5.6291e-07 2.72776e-08 0.209386)
(8.51328e-07 -2.6994e-09 0.222577)
(1.03599e-06 -1.31669e-08 0.23205)
(1.18105e-06 1.10538e-09 0.23818)
(1.26471e-06 3.49852e-09 0.241191)
(1.24978e-06 -1.06134e-09 0.241191)
(1.13773e-06 1.57418e-09 0.238178)
(9.68777e-07 1.62063e-08 0.232048)
(7.67314e-07 5.94207e-09 0.222574)
(4.7219e-07 -2.34505e-08 0.209382)
(2.33747e-07 8.90156e-08 0.191893)
(2.14904e-07 7.05842e-08 0.1692)
(-8.14376e-08 -1.75947e-07 0.139786)
(-1.3838e-07 4.12063e-07 0.100779)
(6.34637e-08 2.14643e-08 0.0455298)
(5.28331e-08 3.94109e-08 0.0455323)
(-1.54623e-07 4.38376e-07 0.100784)
(-5.89241e-08 -1.57618e-07 0.139791)
(3.24045e-07 8.93826e-08 0.169205)
(4.641e-07 1.00448e-07 0.191898)
(8.43406e-07 -1.57481e-08 0.209386)
(1.27289e-06 1.06947e-08 0.222576)
(1.58342e-06 1.8279e-08 0.23205)
(1.81991e-06 1.68514e-09 0.238179)
(1.94673e-06 -2.65226e-09 0.241191)
(1.91995e-06 8.41104e-11 0.24119)
(1.74232e-06 -4.57225e-09 0.238179)
(1.46318e-06 -2.17517e-08 0.232048)
(1.12299e-06 -1.47801e-08 0.222574)
(6.81719e-07 1.05993e-08 0.209383)
(3.13042e-07 -1.06278e-07 0.191894)
(2.01264e-07 -9.20052e-08 0.1692)
(-1.36928e-07 1.51761e-07 0.139786)
(-1.8705e-07 -4.35152e-07 0.100779)
(4.93367e-08 -3.53662e-08 0.0455298)
(4.21896e-07 1.64392e-07 0.100784)
(-2.63617e-07 3.24036e-07 0.24697)
(3.56922e-07 3.27165e-07 0.357342)
(1.2728e-06 4.4758e-07 0.442709)
(2.02081e-06 3.49383e-07 0.509273)
(3.13954e-06 2.30747e-07 0.56083)
(4.32432e-06 1.94559e-07 0.599822)
(5.24595e-06 1.29449e-07 0.627869)
(5.92957e-06 5.6541e-08 0.646033)
(6.28644e-06 7.26967e-10 0.65496)
(6.22576e-06 -5.02553e-08 0.65496)
(5.75331e-06 -1.08556e-07 0.646031)
(4.97144e-06 -1.85932e-07 0.627866)
(3.97977e-06 -2.56234e-07 0.599817)
(2.76448e-06 -2.97075e-07 0.560823)
(1.6643e-06 -4.17157e-07 0.509265)
(9.7827e-07 -5.08714e-07 0.442698)
(1.63037e-07 -3.74919e-07 0.357331)
(-3.48495e-07 -3.45674e-07 0.24696)
(4.08858e-07 -1.61149e-07 0.100779)
(3.31045e-07 3.67355e-07 0.139792)
(-1.17924e-07 8.69036e-07 0.357343)
(9.38789e-07 8.3198e-07 0.528272)