/*--------------------------------*- C++ -*----------------------------------*\
  =========                 |
  \\      /  F ield         | OpenFOAM: The Open Source CFD Toolbox
   \\    /   O peration     | Website:  https://openfoam.org
    \\  /    A nd           | Version:  6
     \\/     M anipulation  |
\*---------------------------------------------------------------------------*/
FoamFile
{
    version     2.0;
    format      ascii;
    class       volScalarField;
    location    "0.625";
    object      T;
}
// * * * * * * * * * * * * * * * * * * * * * * * * * * * * * * * * * * * * * //

dimensions      [0 0 0 1 0 0 0];

internalField   nonuniform List<scalar> 
7000
(
105.988
105.986
105.981
105.975
105.968
105.96
105.952
105.945
105.939
105.937
105.988
105.986
105.981
105.975
105.968
105.96
105.952
105.945
105.939
105.937
105.988
105.986
105.981
105.975
105.968
105.96
105.952
105.945
105.939
105.937
105.988
105.986
105.981
105.975
105.968
105.96
105.952
105.945
105.939
105.937
105.988
105.986
105.981
105.975
105.968
105.96
105.952
105.945
105.939
105.937
105.988
105.986
105.981
105.975
105.968
105.96
105.952
105.945
105.939
105.937
105.988
105.986
105.981
105.975
105.968
105.96
105.952
105.945
105.939
105.937
105.988
105.986
105.981
105.975
105.968
105.96
105.952
105.945
105.939
105.937
105.988
105.986
105.981
105.975
105.968
105.96
105.952
105.945
105.939
105.937
105.988
105.986
105.981
105.975
105.968
105.96
105.952
105.945
105.939
105.937
97.9949
97.9881
97.975
97.9565
97.9339
97.909
97.8842
97.8622
97.8456
97.8366
97.9949
97.9881
97.975
97.9565
97.9339
97.909
97.8842
97.8622
97.8456
97.8366
97.9948
97.9881
97.975
97.9565
97.9339
97.909
97.8842
97.8622
97.8455
97.8366
97.9948
97.9881
97.975
97.9565
97.9339
97.909
97.8842
97.8622
97.8455
97.8366
97.9948
97.9881
97.975
97.9565
97.9339
97.909
97.8842
97.8622
97.8455
97.8366
97.9948
97.9881
97.975
97.9565
97.9339
97.909
97.8842
97.8622
97.8455
97.8366
97.9948
97.9881
97.975
97.9565
97.9339
97.909
97.8842
97.8622
97.8455
97.8366
97.9948
97.9881
97.975
97.9565
97.9339
97.909
97.8842
97.8622
97.8455
97.8366
97.9948
97.9881
97.975
97.9565
97.9339
97.909
97.8842
97.8622
97.8456
97.8366
97.9948
97.9881
97.975
97.9565
97.9339
97.909
97.8842
97.8622
97.8456
97.8366
90.0961
90.0844
90.0617
90.0295
89.9899
89.946
89.9019
89.8624
89.8324
89.8161
90.0961
90.0844
90.0617
90.0295
89.9899
89.946
89.9019
89.8624
89.8323
89.8161
90.096
90.0844
90.0617
90.0295
89.9898
89.946
89.9019
89.8624
89.8323
89.816
90.096
90.0844
90.0617
90.0294
89.9898
89.946
89.9019
89.8623
89.8323
89.816
90.096
90.0843
90.0617
90.0294
89.9898
89.9459
89.9019
89.8623
89.8323
89.816
90.096
90.0843
90.0617
90.0294
89.9898
89.9459
89.9019
89.8623
89.8323
89.816
90.096
90.0843
90.0617
90.0294
89.9898
89.9459
89.9019
89.8623
89.8323
89.816
90.096
90.0844
90.0617
90.0294
89.9898
89.946
89.9019
89.8624
89.8323
89.816
90.096
90.0844
90.0617
90.0295
89.9898
89.946
89.9019
89.8624
89.8323
89.8161
90.0961
90.0844
90.0617
90.0295
89.9899
89.946
89.9019
89.8624
89.8323
89.8161
82.3523
82.3351
82.3016
82.2536
82.1941
82.1276
82.0598
81.9981
81.9506
81.9246
82.3523
82.3351
82.3016
82.2536
82.1941
82.1275
82.0597
81.9981
81.9506
81.9246
82.3523
82.3351
82.3015
82.2536
82.1941
82.1275
82.0597
81.9981
81.9506
81.9246
82.3522
82.335
82.3015
82.2535
82.1941
82.1275
82.0597
81.9981
81.9506
81.9246
82.3522
82.335
82.3015
82.2535
82.1941
82.1275
82.0597
81.998
81.9506
81.9246
82.3522
82.335
82.3015
82.2535
82.1941
82.1275
82.0597
81.998
81.9506
81.9246
82.3522
82.335
82.3015
82.2535
82.1941
82.1275
82.0597
81.998
81.9506
81.9246
82.3522
82.335
82.3015
82.2536
82.1941
82.1275
82.0597
81.9981
81.9506
81.9246
82.3523
82.3351
82.3016
82.2536
82.1941
82.1275
82.0597
81.9981
81.9506
81.9246
82.3523
82.3351
82.3016
82.2536
82.1941
82.1275
82.0598
81.9981
81.9506
81.9246
74.8217
74.7982
74.7523
74.686
74.6027
74.508
74.4098
74.3186
74.2467
74.2068
74.8217
74.7982
74.7523
74.6859
74.6027
74.508
74.4098
74.3185
74.2467
74.2067
74.8216
74.7982
74.7522
74.6859
74.6027
74.508
74.4098
74.3185
74.2467
74.2067
74.8216
74.7982
74.7522
74.6859
74.6026
74.508
74.4097
74.3185
74.2467
74.2067
74.8216
74.7981
74.7522
74.6859
74.6026
74.5079
74.4097
74.3185
74.2467
74.2067
74.8216
74.7981
74.7522
74.6859
74.6026
74.5079
74.4097
74.3185
74.2467
74.2067
74.8216
74.7981
74.7522
74.6859
74.6026
74.508
74.4097
74.3185
74.2467
74.2067
74.8216
74.7982
74.7522
74.6859
74.6026
74.508
74.4097
74.3185
74.2467
74.2067
74.8216
74.7982
74.7522
74.6859
74.6027
74.508
74.4098
74.3185
74.2467
74.2067
74.8217
74.7982
74.7523
74.6859
74.6027
74.508
74.4098
74.3185
74.2467
74.2068
67.5587
67.5282
67.4682
67.3805
67.2688
67.1391
67.0009
66.8684
66.7607
66.699
67.5587
67.5282
67.4682
67.3805
67.2688
67.139
67.0008
66.8684
66.7607
66.6989
67.5586
67.5282
67.4681
67.3805
67.2687
67.139
67.0008
66.8684
66.7607
66.6989
67.5586
67.5281
67.4681
67.3804
67.2687
67.139
67.0008
66.8683
66.7606
66.6989
67.5586
67.5281
67.4681
67.3804
67.2687
67.139
67.0008
66.8683
66.7606
66.6989
67.5586
67.5281
67.4681
67.3804
67.2687
67.139
67.0008
66.8683
66.7606
66.6989
67.5586
67.5281
67.4681
67.3804
67.2687
67.139
67.0008
66.8683
66.7606
66.6989
67.5586
67.5281
67.4681
67.3804
67.2687
67.139
67.0008
66.8684
66.7607
66.6989
67.5586
67.5282
67.4681
67.3805
67.2688
67.139
67.0008
66.8684
66.7607
66.6989
67.5587
67.5282
67.4682
67.3805
67.2688
67.1391
67.0009
66.8684
66.7607
66.699
60.6131
60.5751
60.4995
60.3879
60.2428
60.0699
59.8791
59.688
59.5246
59.426
60.613
60.575
60.4995
60.3878
60.2428
60.0698
59.879
59.688
59.5245
59.4259
60.613
60.575
60.4995
60.3878
60.2427
60.0698
59.879
59.6879
59.5245
59.4259
60.613
60.5749
60.4994
60.3878
60.2427
60.0697
59.879
59.6879
59.5244
59.4259
60.613
60.5749
60.4994
60.3877
60.2427
60.0697
59.8789
59.6879
59.5244
59.4258
60.613
60.5749
60.4994
60.3877
60.2427
60.0697
59.8789
59.6879
59.5244
59.4258
60.613
60.5749
60.4994
60.3878
60.2427
60.0697
59.8789
59.6879
59.5244
59.4259
60.613
60.5749
60.4994
60.3878
60.2427
60.0698
59.879
59.6879
59.5245
59.4259
60.613
60.575
60.4995
60.3878
60.2428
60.0698
59.879
59.688
59.5245
59.4259
60.613
60.575
60.4995
60.3878
60.2428
60.0698
59.8791
59.688
59.5246
59.426
54.029
53.9833
53.8918
53.7547
53.5726
53.3484
53.09
52.8151
52.5608
52.393
54.029
53.9832
53.8918
53.7546
53.5725
53.3484
53.0899
52.815
52.5608
52.3929
54.0289
53.9832
53.8917
53.7546
53.5725
53.3484
53.0899
52.815
52.5607
52.3929
54.0289
53.9832
53.8917
53.7545
53.5725
53.3483
53.0899
52.815
52.5607
52.3929
54.0289
53.9831
53.8917
53.7545
53.5724
53.3483
53.0898
52.8149
52.5607
52.3929
54.0289
53.9831
53.8917
53.7545
53.5724
53.3483
53.0898
52.8149
52.5607
52.3929
54.0289
53.9832
53.8917
53.7545
53.5724
53.3483
53.0899
52.815
52.5607
52.3929
54.0289
53.9832
53.8917
53.7546
53.5725
53.3483
53.0899
52.815
52.5607
52.3929
54.0289
53.9832
53.8918
53.7546
53.5725
53.3484
53.0899
52.815
52.5608
52.393
54.0289
53.9833
53.8918
53.7546
53.5726
53.3484
53.09
52.8151
52.5608
52.393
47.844
47.7912
47.685
47.5233
47.3038
47.024
46.6838
46.2921
45.8851
45.5692
47.8439
47.7912
47.6849
47.5233
47.3037
47.0239
46.6837
46.292
45.8851
45.5692
47.8439
47.7911
47.6849
47.5232
47.3037
47.0239
46.6837
46.292
45.885
45.5691
47.8438
47.7911
47.6848
47.5232
47.3037
47.0239
46.6837
46.2919
45.885
45.5691
47.8438
47.7911
47.6848
47.5232
47.3037
47.0239
46.6836
46.2919
45.885
45.5691
47.8438
47.7911
47.6848
47.5232
47.3037
47.0239
46.6836
46.2919
45.885
45.5691
47.8438
47.7911
47.6848
47.5232
47.3037
47.0239
46.6837
46.2919
45.885
45.5691
47.8438
47.7911
47.6848
47.5232
47.3037
47.0239
46.6837
46.292
45.885
45.5691
47.8439
47.7912
47.6849
47.5232
47.3037
47.0239
46.6837
46.292
45.8851
45.5692
47.8439
47.7912
47.6849
47.5233
47.3038
47.024
46.6838
46.2921
45.8851
45.5692
42.0878
42.0297
41.912
41.7308
41.4797
41.1489
40.7236
40.1854
39.5262
38.8424
42.0877
42.0297
41.9119
41.7307
41.4797
41.1488
40.7236
40.1853
39.5262
38.8423
42.0877
42.0296
41.9119
41.7307
41.4796
41.1488
40.7235
40.1852
39.5261
38.8423
42.0876
42.0296
41.9119
41.7307
41.4796
41.1488
40.7235
40.1852
39.5261
38.8423
42.0876
42.0296
41.9119
41.7306
41.4796
41.1487
40.7235
40.1852
39.5261
38.8422
42.0876
42.0296
41.9119
41.7306
41.4796
41.1487
40.7235
40.1852
39.5261
38.8422
42.0876
42.0296
41.9119
41.7307
41.4796
41.1488
40.7235
40.1852
39.5261
38.8423
42.0876
42.0296
41.9119
41.7307
41.4796
41.1488
40.7235
40.1852
39.5261
38.8423
42.0877
42.0297
41.9119
41.7307
41.4797
41.1488
40.7236
40.1853
39.5262
38.8423
42.0877
42.0297
41.912
41.7308
41.4797
41.1489
40.7236
40.1853
39.5262
38.8424
36.7815
36.7209
36.5974
36.4062
36.138
35.7768
35.293
34.6259
33.6302
31.8811
36.7814
36.7208
36.5974
36.4061
36.1379
35.7767
35.2929
34.6258
33.6301
31.881
36.7814
36.7207
36.5973
36.406
36.1379
35.7767
35.2929
34.6258
33.63
31.881
36.7813
36.7207
36.5973
36.406
36.1378
35.7767
35.2929
34.6257
33.63
31.8809
36.7813
36.7207
36.5973
36.406
36.1378
35.7767
35.2928
34.6257
33.63
31.8809
36.7813
36.7207
36.5973
36.406
36.1378
35.7767
35.2928
34.6257
33.63
31.8809
36.7813
36.7207
36.5973
36.406
36.1378
35.7767
35.2928
34.6257
33.63
31.8809
36.7814
36.7207
36.5973
36.406
36.1379
35.7767
35.2929
34.6258
33.63
31.881
36.7814
36.7208
36.5973
36.4061
36.1379
35.7767
35.2929
34.6258
33.6301
31.881
36.7814
36.7208
36.5974
36.4061
36.138
35.7768
35.293
34.6259
33.6301
31.8811
31.9364
31.8766
31.7549
31.5666
31.3029
30.9488
30.4774
29.8406
28.9521
27.6786
31.9364
31.8765
31.7548
31.5665
31.3028
30.9487
30.4773
29.8406
28.952
27.6785
31.9363
31.8765
31.7548
31.5665
31.3028
30.9487
30.4773
29.8405
28.952
27.6785
31.9363
31.8765
31.7548
31.5664
31.3028
30.9486
30.4773
29.8405
28.952
27.6785
31.9363
31.8764
31.7547
31.5664
31.3027
30.9486
30.4772
29.8405
28.9519
27.6784
31.9363
31.8764
31.7547
31.5664
31.3027
30.9486
30.4772
29.8405
28.9519
27.6784
31.9363
31.8765
31.7548
31.5664
31.3028
30.9486
30.4773
29.8405
28.952
27.6784
31.9363
31.8765
31.7548
31.5664
31.3028
30.9487
30.4773
29.8405
28.952
27.6785
31.9363
31.8765
31.7548
31.5665
31.3028
30.9487
30.4773
29.8405
28.952
27.6785
31.9364
31.8766
31.7549
31.5666
31.3029
30.9488
30.4774
29.8406
28.9521
27.6786
27.5538
27.4983
27.386
27.2137
26.9763
26.6651
26.2668
25.7632
25.1376
24.4065
27.5538
27.4982
27.3859
27.2137
26.9763
26.665
26.2667
25.7631
25.1375
24.4064
27.5537
27.4982
27.3858
27.2136
26.9762
26.665
26.2666
25.763
25.1374
24.4063
27.5537
27.4982
27.3858
27.2136
26.9762
26.665
26.2666
25.763
25.1374
24.4063
27.5537
27.4981
27.3858
27.2136
26.9762
26.6649
26.2666
25.763
25.1374
24.4063
27.5537
27.4981
27.3858
27.2136
26.9762
26.6649
26.2666
25.763
25.1374
24.4063
27.5537
27.4982
27.3858
27.2136
26.9762
26.665
26.2666
25.763
25.1374
24.4063
27.5537
27.4982
27.3858
27.2136
26.9762
26.665
26.2666
25.763
25.1374
24.4063
27.5537
27.4982
27.3859
27.2137
26.9763
26.665
26.2667
25.7631
25.1375
24.4064
27.5538
27.4983
27.3859
27.2137
26.9763
26.6651
26.2667
25.7631
25.1375
24.4064
23.6252
23.577
23.4802
23.3346
23.1395
22.8946
22.6012
22.2657
21.9102
21.5959
23.6252
23.5769
23.4802
23.3345
23.1394
22.8945
22.6011
22.2656
21.9101
21.5958
23.6251
23.5769
23.4801
23.3345
23.1394
22.8945
22.601
22.2655
21.9101
21.5958
23.6251
23.5768
23.4801
23.3344
23.1393
22.8945
22.601
22.2655
21.91
21.5958
23.6251
23.5768
23.4801
23.3344
23.1393
22.8945
22.601
22.2655
21.91
21.5957
23.6251
23.5768
23.4801
23.3344
23.1393
22.8945
22.601
22.2655
21.91
21.5957
23.6251
23.5768
23.4801
23.3344
23.1393
22.8945
22.601
22.2655
21.91
21.5957
23.6251
23.5768
23.4801
23.3345
23.1394
22.8945
22.601
22.2655
21.9101
21.5958
23.6252
23.5769
23.4801
23.3345
23.1394
22.8945
22.6011
22.2656
21.9101
21.5958
23.6252
23.5769
23.4802
23.3346
23.1395
22.8946
22.6012
22.2657
21.9102
21.5959
20.1338
20.0947
20.0175
19.9045
19.7601
19.5914
19.411
19.2407
19.1185
19.1101
20.1338
20.0946
20.0174
19.9045
19.76
19.5914
19.411
19.2406
19.1184
19.11
20.1337
20.0946
20.0174
19.9044
19.76
19.5913
19.4109
19.2406
19.1184
19.1099
20.1337
20.0946
20.0173
19.9044
19.76
19.5913
19.4109
19.2405
19.1183
19.1099
20.1337
20.0945
20.0173
19.9044
19.7599
19.5913
19.4109
19.2405
19.1183
19.1099
20.1337
20.0945
20.0173
19.9044
19.7599
19.5913
19.4109
19.2405
19.1183
19.1099
20.1337
20.0946
20.0173
19.9044
19.76
19.5913
19.4109
19.2405
19.1183
19.1099
20.1337
20.0946
20.0174
19.9044
19.76
19.5913
19.4109
19.2406
19.1184
19.1099
20.1338
20.0946
20.0174
19.9045
19.76
19.5914
19.411
19.2406
19.1184
19.11
20.1338
20.0947
20.0175
19.9045
19.7601
19.5914
19.411
19.2407
19.1185
19.11
17.056
17.0267
16.9704
16.8918
16.7992
16.7058
16.632
16.6084
16.6788
16.9023
17.056
17.0267
16.9703
16.8917
16.7991
16.7057
16.632
16.6084
16.6788
16.9022
17.0559
17.0266
16.9703
16.8917
16.7991
16.7057
16.6319
16.6083
16.6787
16.9022
17.0559
17.0266
16.9703
16.8917
16.7991
16.7057
16.6319
16.6083
16.6787
16.9022
17.0559
17.0266
16.9703
16.8917
16.7991
16.7057
16.6319
16.6083
16.6787
16.9021
17.0559
17.0266
16.9703
16.8917
16.7991
16.7057
16.6319
16.6083
16.6787
16.9021
17.0559
17.0266
16.9703
16.8917
16.7991
16.7057
16.6319
16.6083
16.6787
16.9022
17.0559
17.0266
16.9703
16.8917
16.7991
16.7057
16.6319
16.6083
16.6787
16.9022
17.0559
17.0267
16.9703
16.8917
16.7991
16.7058
16.632
16.6084
16.6788
16.9022
17.056
17.0267
16.9704
16.8918
16.7992
16.7058
16.632
16.6084
16.6788
16.9023
14.3635
14.3437
14.3072
14.2608
14.2155
14.1889
14.2069
14.3064
14.5357
14.95
14.3634
14.3436
14.3072
14.2607
14.2154
14.1888
14.2069
14.3064
14.5356
14.9499
14.3634
14.3436
14.3071
14.2607
14.2154
14.1888
14.2068
14.3063
14.5356
14.9499
14.3633
14.3436
14.3071
14.2606
14.2154
14.1887
14.2068
14.3063
14.5356
14.9498
14.3633
14.3436
14.3071
14.2606
14.2153
14.1887
14.2068
14.3063
14.5355
14.9498
14.3633
14.3436
14.3071
14.2606
14.2153
14.1887
14.2068
14.3063
14.5355
14.9498
14.3633
14.3436
14.3071
14.2606
14.2154
14.1887
14.2068
14.3063
14.5356
14.9498
14.3634
14.3436
14.3071
14.2607
14.2154
14.1888
14.2068
14.3063
14.5356
14.9499
14.3634
14.3436
14.3072
14.2607
14.2154
14.1888
14.2069
14.3064
14.5356
14.9499
14.3634
14.3437
14.3072
14.2608
14.2155
14.1889
14.2069
14.3064
14.5357
14.95
12.0251
12.0136
11.9942
11.9747
11.9679
11.994
12.0829
12.2777
12.6367
13.2266
12.025
12.0135
11.9942
11.9746
11.9678
11.9939
12.0828
12.2777
12.6367
13.2265
12.025
12.0135
11.9941
11.9746
11.9678
11.9939
12.0828
12.2776
12.6366
13.2265
12.025
12.0135
11.9941
11.9746
11.9678
11.9939
12.0828
12.2776
12.6366
13.2265
12.025
12.0135
11.9941
11.9746
11.9678
11.9939
12.0828
12.2776
12.6366
13.2264
12.025
12.0135
11.9941
11.9746
11.9678
11.9939
12.0828
12.2776
12.6366
13.2264
12.025
12.0135
11.9941
11.9746
11.9678
11.9939
12.0828
12.2776
12.6366
13.2265
12.025
12.0135
11.9941
11.9746
11.9678
11.9939
12.0828
12.2776
12.6366
13.2265
12.025
12.0135
11.9942
11.9746
11.9679
11.9939
12.0829
12.2777
12.6367
13.2265
12.0251
12.0136
11.9942
11.9747
11.9679
11.994
12.0829
12.2777
12.6367
13.2266
10.0088
10.0038
9.99749
9.99777
10.0178
10.0783
10.2105
10.4629
10.9114
11.6712
10.0088
10.0037
9.99744
9.99773
10.0178
10.0782
10.2104
10.4628
10.9114
11.6712
10.0087
10.0037
9.99741
9.9977
10.0178
10.0782
10.2104
10.4628
10.9113
11.6711
10.0087
10.0037
9.99739
9.99768
10.0177
10.0782
10.2104
10.4628
10.9113
11.6711
10.0087
10.0037
9.99738
9.99767
10.0177
10.0781
10.2103
10.4628
10.9113
11.6711
10.0087
10.0037
9.99739
9.99767
10.0177
10.0781
10.2103
10.4628
10.9113
11.6711
10.0087
10.0037
9.9974
9.99768
10.0177
10.0782
10.2104
10.4628
10.9113
11.6711
10.0087
10.0037
9.99742
9.9977
10.0178
10.0782
10.2104
10.4628
10.9114
11.6711
10.0088
10.0037
9.99745
9.99774
10.0178
10.0782
10.2104
10.4629
10.9114
11.6712
10.0088
10.0038
9.99749
9.99778
10.0179
10.0783
10.2105
10.4629
10.9115
11.6712
8.28284
8.2823
8.28465
8.29703
8.33126
8.4054
8.54703
8.80066
9.25006
10.0993
8.28281
8.28227
8.28461
8.29699
8.33122
8.40536
8.54699
8.80062
9.25001
10.0993
8.28278
8.28224
8.28458
8.29697
8.33119
8.40533
8.54696
8.80059
9.24998
10.0992
8.28276
8.28222
8.28457
8.29695
8.33117
8.40531
8.54694
8.80057
9.24995
10.0992
8.28275
8.28221
8.28456
8.29694
8.33116
8.40531
8.54693
8.80056
9.24994
10.0992
8.28275
8.28221
8.28456
8.29694
8.33116
8.40531
8.54693
8.80056
9.24995
10.0992
8.28276
8.28222
8.28457
8.29695
8.33118
8.40532
8.54694
8.80057
9.24996
10.0992
8.28278
8.28224
8.28459
8.29697
8.3312
8.40534
8.54697
8.8006
9.24999
10.0993
8.2828
8.28227
8.28462
8.297
8.33123
8.40538
8.547
8.80064
9.25003
10.0993
8.28283
8.2823
8.28466
8.29704
8.33127
8.40542
8.54705
8.80068
9.25008
10.0994
27.8668
26.2833
26.3648
27.8619
30.7526
35.1606
41.3544
49.8113
61.3921
77.8126
27.8667
26.2832
26.3647
27.8618
30.7525
35.1605
41.3543
49.8111
61.3919
77.8124
27.8666
26.2831
26.3647
27.8617
30.7524
35.1604
41.3542
49.811
61.3918
77.8123
27.8666
26.2831
26.3646
27.8617
30.7524
35.1603
41.3541
49.811
61.3918
77.8122
27.8665
26.2831
26.3646
27.8617
30.7523
35.1603
41.3541
49.8109
61.3917
77.8121
27.8665
26.2831
26.3646
27.8617
30.7523
35.1602
41.3541
49.8109
61.3917
77.8121
27.8666
26.2831
26.3646
27.8617
30.7524
35.1603
41.3541
49.8109
61.3917
77.8122
27.8666
26.2831
26.3646
27.8617
30.7524
35.1603
41.3542
49.811
61.3918
77.8122
27.8666
26.2832
26.3647
27.8618
30.7525
35.1604
41.3542
49.8111
61.3919
77.8123
27.8667
26.2832
26.3647
27.8618
30.7525
35.1605
41.3543
49.8112
61.392
77.8124
25.9842
25.2169
25.5985
27.1705
29.9937
34.1922
39.9714
47.6322
57.5646
70.0943
25.9841
25.2168
25.5984
27.1704
29.9935
34.1921
39.9712
47.632
57.5644
70.0941
25.984
25.2167
25.5983
27.1703
29.9935
34.192
39.9711
47.6319
57.5643
70.094
25.984
25.2166
25.5982
27.1703
29.9934
34.1919
39.9711
47.6319
57.5642
70.0939
25.9839
25.2166
25.5982
27.1702
29.9934
34.1919
39.971
47.6318
57.5642
70.0939
25.9839
25.2166
25.5982
27.1702
29.9934
34.1919
39.971
47.6318
57.5642
70.0939
25.984
25.2166
25.5982
27.1702
29.9934
34.1919
39.971
47.6318
57.5642
70.0939
25.984
25.2167
25.5983
27.1703
29.9934
34.1919
39.9711
47.6319
57.5643
70.094
25.984
25.2167
25.5983
27.1703
29.9935
34.192
39.9712
47.632
57.5643
70.0941
25.9841
25.2168
25.5984
27.1704
29.9936
34.1921
39.9713
47.6321
57.5645
70.0942
23.7259
23.5989
24.2879
25.926
28.6125
32.4547
37.5792
44.1174
52.1401
61.4734
23.7258
23.5988
24.2878
25.9259
28.6124
32.4545
37.5791
44.1173
52.1399
61.4733
23.7258
23.5988
24.2877
25.9258
28.6123
32.4545
37.579
44.1172
52.1398
61.4732
23.7257
23.5987
24.2877
25.9258
28.6123
32.4544
37.5789
44.1171
52.1398
61.4731
23.7257
23.5987
24.2876
25.9258
28.6122
32.4544
37.5789
44.1171
52.1397
61.473
23.7257
23.5987
24.2876
25.9258
28.6122
32.4544
37.5789
44.1171
52.1397
61.473
23.7257
23.5987
24.2876
25.9258
28.6123
32.4544
37.5789
44.1171
52.1397
61.4731
23.7257
23.5987
24.2877
25.9258
28.6123
32.4544
37.579
44.1172
52.1398
61.4731
23.7258
23.5988
24.2878
25.9259
28.6124
32.4545
37.5791
44.1173
52.1399
61.4733
23.7259
23.5989
24.2878
25.926
28.6125
32.4546
37.5792
44.1174
52.14
61.4734
21.464
21.7577
22.6676
24.323
26.8191
30.2345
34.632
40.0372
46.3846
53.4186
21.4639
21.7576
22.6675
24.3229
26.819
30.2344
34.6319
40.0371
46.3845
53.4185
21.4639
21.7576
22.6674
24.3228
26.8189
30.2343
34.6318
40.037
46.3844
53.4184
21.4638
21.7575
22.6673
24.3227
26.8188
30.2342
34.6317
40.0369
46.3843
53.4183
21.4638
21.7575
22.6673
24.3227
26.8188
30.2342
34.6317
40.0368
46.3843
53.4183
21.4638
21.7575
22.6673
24.3227
26.8188
30.2342
34.6317
40.0368
46.3843
53.4183
21.4638
21.7575
22.6673
24.3227
26.8188
30.2342
34.6317
40.0369
46.3843
53.4183
21.4638
21.7576
22.6674
24.3228
26.8189
30.2343
34.6318
40.0369
46.3844
53.4184
21.4639
21.7576
22.6674
24.3229
26.819
30.2344
34.6318
40.037
46.3845
53.4185
21.464
21.7577
22.6675
24.3229
26.8191
30.2345
34.632
40.0372
46.3846
53.4186
19.3194
19.8844
20.9308
22.557
24.8358
27.8158
31.5164
35.9107
40.895
46.2512
19.3194
19.8843
20.9307
22.5569
24.8357
27.8157
31.5163
35.9105
40.8949
46.251
19.3193
19.8843
20.9306
22.5568
24.8356
27.8156
31.5162
35.9104
40.8948
46.2509
19.3193
19.8842
20.9306
22.5568
24.8355
27.8155
31.5161
35.9104
40.8947
46.2509
19.3192
19.8842
20.9305
22.5567
24.8355
27.8155
31.5161
35.9103
40.8947
46.2508
19.3192
19.8842
20.9305
22.5567
24.8355
27.8155
31.5161
35.9103
40.8947
46.2508
19.3193
19.8842
20.9305
22.5568
24.8355
27.8155
31.5161
35.9104
40.8947
46.2509
19.3193
19.8843
20.9306
22.5568
24.8356
27.8156
31.5162
35.9104
40.8948
46.2509
19.3194
19.8843
20.9307
22.5569
24.8356
27.8157
31.5163
35.9105
40.8949
46.251
19.3194
19.8844
20.9307
22.557
24.8357
27.8158
31.5164
35.9106
40.895
46.2512
17.3508
18.1014
19.2298
20.8015
22.8639
25.4407
28.5239
32.0631
35.9542
40.0329
17.3507
18.1013
19.2298
20.8014
22.8638
25.4406
28.5238
32.063
35.954
40.0328
17.3507
18.1013
19.2297
20.8013
22.8637
25.4405
28.5237
32.0629
35.9539
40.0327
17.3507
18.1012
19.2296
20.8013
22.8637
25.4405
28.5236
32.0628
35.9539
40.0326
17.3506
18.1012
19.2296
20.8012
22.8636
25.4404
28.5236
32.0628
35.9538
40.0326
17.3506
18.1012
19.2296
20.8012
22.8636
25.4404
28.5236
32.0628
35.9538
40.0326
17.3507
18.1012
19.2296
20.8013
22.8637
25.4405
28.5236
32.0628
35.9539
40.0326
17.3507
18.1013
19.2297
20.8013
22.8637
25.4405
28.5237
32.0629
35.9539
40.0327
17.3507
18.1013
19.2298
20.8014
22.8638
25.4406
28.5238
32.063
35.954
40.0328
17.3508
18.1014
19.2298
20.8015
22.8639
25.4407
28.5239
32.0631
35.9542
40.0329
15.5966
16.4974
17.6863
19.2019
21.0723
23.3028
25.8676
28.7039
31.712
34.768
15.5965
16.4973
17.6862
19.2018
21.0722
23.3027
25.8675
28.7038
31.7119
34.7679
15.5964
16.4972
17.6861
19.2017
21.0721
23.3027
25.8674
28.7037
31.7118
34.7678
15.5964
16.4972
17.6861
19.2017
21.0721
23.3026
25.8674
28.7036
31.7117
34.7677
15.5964
16.4972
17.6861
19.2017
21.0721
23.3026
25.8674
28.7036
31.7117
34.7677
15.5964
16.4972
17.6861
19.2017
21.0721
23.3026
25.8674
28.7036
31.7117
34.7677
15.5964
16.4972
17.6861
19.2017
21.0721
23.3026
25.8674
28.7036
31.7117
34.7677
15.5964
16.4972
17.6861
19.2018
21.0721
23.3027
25.8674
28.7037
31.7118
34.7678
15.5965
16.4973
17.6862
19.2018
21.0722
23.3027
25.8675
28.7038
31.7119
34.7679
15.5966
16.4974
17.6863
19.2019
21.0723
23.3029
25.8676
28.7039
31.712
34.768
14.087
15.1457
16.4007
17.8781
19.5976
21.5541
23.7086
25.9847
28.2738
30.4608
14.0869
15.1457
16.4006
17.878
19.5975
21.554
23.7085
25.9846
28.2737
30.4607
14.0869
15.1456
16.4005
17.8779
19.5974
21.5539
23.7084
25.9845
28.2736
30.4606
14.0868
15.1456
16.4005
17.8779
19.5974
21.5539
23.7084
25.9845
28.2735
30.4606
14.0868
15.1456
16.4005
17.8779
19.5973
21.5538
23.7083
25.9844
28.2735
30.4605
14.0868
15.1456
16.4005
17.8779
19.5973
21.5538
23.7084
25.9844
28.2735
30.4606
14.0868
15.1456
16.4005
17.8779
19.5974
21.5539
23.7084
25.9845
28.2735
30.4606
14.0869
15.1456
16.4005
17.8779
19.5974
21.5539
23.7084
25.9845
28.2736
30.4607
14.0869
15.1457
16.4006
17.878
19.5975
21.554
23.7085
25.9846
28.2737
30.4607
14.087
15.1457
16.4007
17.8781
19.5976
21.5541
23.7086
25.9847
28.2738
30.4609
12.8588
14.1222
15.4626
16.928
18.5473
20.313
22.1758
24.0388
25.7576
27.1592
12.8588
14.1221
15.4625
16.928
18.5472
20.3129
22.1757
24.0387
25.7575
27.1591
12.8587
14.1221
15.4624
16.9279
18.5471
20.3128
22.1756
24.0387
25.7574
27.159
12.8587
14.122
15.4624
16.9279
18.5471
20.3128
22.1755
24.0386
25.7574
27.159
12.8587
14.122
15.4624
16.9278
18.547
20.3128
22.1755
24.0386
25.7574
27.159
12.8587
14.122
15.4624
16.9279
18.547
20.3128
22.1755
24.0386
25.7574
27.159
12.8587
14.122
15.4624
16.9279
18.5471
20.3128
22.1756
24.0386
25.7574
27.159
12.8587
14.1221
15.4624
16.9279
18.5471
20.3129
22.1756
24.0387
25.7575
27.1591
12.8588
14.1221
15.4625
16.928
18.5472
20.3129
22.1757
24.0388
25.7575
27.1592
12.8588
14.1222
15.4626
16.9281
18.5473
20.313
22.1758
24.0389
25.7577
27.1593
12.0153
13.5315
14.9573
16.429
18.0001
19.6674
21.3745
23.0036
24.3524
25.0735
12.0152
13.5314
14.9573
16.4289
18
19.6674
21.3745
23.0035
24.3523
25.0735
12.0152
13.5314
14.9572
16.4289
18
19.6673
21.3744
23.0034
24.3522
25.0734
12.0151
13.5313
14.9572
16.4289
18
19.6673
21.3744
23.0034
24.3522
25.0733
12.0151
13.5313
14.9572
16.4288
17.9999
19.6673
21.3743
23.0034
24.3522
25.0733
12.0151
13.5313
14.9572
16.4288
17.9999
19.6673
21.3743
23.0034
24.3522
25.0733
12.0151
13.5314
14.9572
16.4289
18
19.6673
21.3744
23.0034
24.3522
25.0734
12.0152
13.5314
14.9572
16.4289
18
19.6673
21.3744
23.0035
24.3523
25.0734
12.0152
13.5314
14.9573
16.429
18.0001
19.6674
21.3745
23.0036
24.3523
25.0735
12.0153
13.5315
14.9574
16.4291
18.0002
19.6675
21.3746
23.0037
24.3525
25.0736
103.033
114.909
122.101
127.074
130.713
133.416
135.402
136.801
137.694
138.129
103.032
114.909
122.1
127.074
130.712
133.416
135.402
136.801
137.694
138.129
103.032
114.909
122.1
127.074
130.712
133.416
135.402
136.801
137.694
138.129
103.032
114.908
122.1
127.074
130.712
133.416
135.402
136.801
137.694
138.129
103.032
114.908
122.1
127.074
130.712
133.416
135.402
136.801
137.694
138.129
103.032
114.908
122.1
127.074
130.712
133.416
135.402
136.801
137.694
138.129
103.032
114.908
122.1
127.074
130.712
133.416
135.402
136.801
137.694
138.129
103.032
114.909
122.1
127.074
130.712
133.416
135.402
136.801
137.694
138.129
103.032
114.909
122.1
127.074
130.712
133.416
135.402
136.801
137.694
138.129
103.032
114.909
122.1
127.074
130.713
133.416
135.402
136.801
137.694
138.129
84.5916
95.0861
102.442
107.728
111.611
114.485
116.584
118.056
118.993
119.449
84.5914
95.086
102.442
107.727
111.611
114.484
116.584
118.056
118.993
119.449
84.5913
95.0858
102.442
107.727
111.611
114.484
116.584
118.056
118.993
119.449
84.5912
95.0857
102.442
107.727
111.611
114.484
116.584
118.056
118.993
119.449
84.5912
95.0857
102.442
107.727
111.611
114.484
116.583
118.056
118.993
119.449
84.5912
95.0857
102.442
107.727
111.611
114.484
116.583
118.056
118.993
119.449
84.5912
95.0857
102.442
107.727
111.611
114.484
116.584
118.056
118.993
119.449
84.5913
95.0858
102.442
107.727
111.611
114.484
116.584
118.056
118.993
119.449
84.5914
95.0859
102.442
107.727
111.611
114.484
116.584
118.056
118.993
119.449
84.5915
95.0861
102.442
107.728
111.611
114.485
116.584
118.056
118.993
119.449
71.2802
79.579
86.0734
91.0377
94.8041
97.6365
99.7229
101.192
102.129
102.585
71.28
79.5788
86.0732
91.0375
94.8039
97.6363
99.7227
101.192
102.129
102.585
71.2799
79.5787
86.0731
91.0374
94.8038
97.6362
99.7226
101.192
102.129
102.585
71.2798
79.5786
86.073
91.0373
94.8037
97.6361
99.7225
101.192
102.129
102.585
71.2798
79.5785
86.0729
91.0372
94.8037
97.636
99.7225
101.192
102.129
102.585
71.2798
79.5785
86.0729
91.0372
94.8037
97.6361
99.7225
101.192
102.129
102.585
71.2798
79.5786
86.073
91.0373
94.8037
97.6361
99.7225
101.192
102.129
102.585
71.2799
79.5786
86.073
91.0374
94.8038
97.6362
99.7226
101.192
102.129
102.585
71.28
79.5788
86.0732
91.0375
94.804
97.6363
99.7228
101.192
102.129
102.585
71.2801
79.5789
86.0733
91.0377
94.8041
97.6365
99.723
101.192
102.129
102.586
60.5724
67.0215
72.4229
76.7708
80.188
82.8174
84.7831
86.1803
87.0764
87.5142
60.5723
67.0214
72.4228
76.7707
80.1878
82.8173
84.783
86.1801
87.0763
87.5141
60.5722
67.0213
72.4227
76.7705
80.1876
82.8171
84.7828
86.18
87.0761
87.514
60.5721
67.0212
72.4226
76.7704
80.1876
82.817
84.7827
86.1799
87.0761
87.5139
60.572
67.0211
72.4225
76.7704
80.1875
82.817
84.7827
86.1799
87.076
87.5139
60.572
67.0211
72.4225
76.7704
80.1875
82.817
84.7827
86.1799
87.076
87.5139
60.5721
67.0212
72.4226
76.7704
80.1876
82.8171
84.7828
86.18
87.0761
87.514
60.5721
67.0213
72.4227
76.7705
80.1877
82.8172
84.7829
86.1801
87.0762
87.5141
60.5723
67.0214
72.4228
76.7707
80.1878
82.8173
84.783
86.1802
87.0764
87.5142
60.5724
67.0215
72.423
76.7708
80.188
82.8175
84.7832
86.1804
87.0766
87.5144
51.6281
56.6174
60.9732
64.6181
67.574
69.9028
71.6736
72.9471
73.7702
74.1741
51.628
56.6173
60.973
64.618
67.5738
69.9026
71.6734
72.947
73.7701
74.174
51.6279
56.6171
60.9729
64.6178
67.5737
69.9025
71.6733
72.9468
73.77
74.1739
51.6278
56.6171
60.9728
64.6178
67.5736
69.9024
71.6732
72.9468
73.7699
74.1738
51.6278
56.617
60.9728
64.6177
67.5736
69.9024
71.6732
72.9467
73.7699
74.1738
51.6278
56.617
60.9728
64.6177
67.5736
69.9024
71.6732
72.9467
73.7699
74.1738
51.6278
56.6171
60.9728
64.6178
67.5736
69.9024
71.6732
72.9468
73.7699
74.1738
51.6279
56.6172
60.9729
64.6179
67.5737
69.9025
71.6733
72.9469
73.77
74.174
51.628
56.6173
60.9731
64.618
67.5739
69.9027
71.6735
72.947
73.7702
74.1741
51.6281
56.6174
60.9732
64.6182
67.574
69.9029
71.6737
72.9472
73.7704
74.1743
44.0879
47.9057
51.3315
54.2857
56.7478
58.7318
60.267
61.3854
62.1145
62.4741
44.0877
47.9056
51.3314
54.2856
56.7476
58.7316
60.2668
61.3852
62.1144
62.474
44.0876
47.9055
51.3313
54.2855
56.7475
58.7315
60.2667
61.3851
62.1143
62.4739
44.0875
47.9054
51.3312
54.2854
56.7474
58.7314
60.2667
61.3851
62.1142
62.4738
44.0875
47.9054
51.3312
54.2854
56.7474
58.7314
60.2666
61.385
62.1142
62.4738
44.0875
47.9054
51.3312
54.2854
56.7474
58.7314
60.2666
61.385
62.1142
62.4738
44.0875
47.9054
51.3312
54.2854
56.7474
58.7314
60.2667
61.3851
62.1143
62.4739
44.0876
47.9055
51.3313
54.2855
56.7475
58.7315
60.2668
61.3852
62.1144
62.474
44.0877
47.9056
51.3314
54.2856
56.7477
58.7317
60.2669
61.3853
62.1145
62.4741
44.0879
47.9057
51.3316
54.2858
56.7478
58.7318
60.2671
61.3855
62.1147
62.4743
37.7546
40.593
43.2022
45.5166
47.4974
49.1301
50.4165
51.3664
51.9915
52.3015
37.7544
40.5928
43.2021
45.5165
47.4973
49.13
50.4164
51.3663
51.9914
52.3014
37.7543
40.5927
43.202
45.5164
47.4972
49.1299
50.4163
51.3662
51.9913
52.3013
37.7543
40.5927
43.2019
45.5163
47.4971
49.1298
50.4162
51.3661
51.9912
52.3012
37.7542
40.5926
43.2019
45.5163
47.4971
49.1298
50.4162
51.3661
51.9912
52.3012
37.7542
40.5926
43.2019
45.5163
47.4971
49.1298
50.4162
51.3661
51.9912
52.3012
37.7543
40.5927
43.2019
45.5163
47.4971
49.1299
50.4163
51.3662
51.9913
52.3013
37.7543
40.5927
43.202
45.5164
47.4972
49.1299
50.4164
51.3663
51.9914
52.3014
37.7545
40.5929
43.2021
45.5165
47.4973
49.1301
50.4165
51.3664
51.9915
52.3015
37.7546
40.593
43.2022
45.5167
47.4975
49.1302
50.4166
51.3666
51.9917
52.3017
32.4905
34.4607
36.347
38.0864
39.6236
40.9234
41.9678
42.7503
43.2703
43.5297
32.4903
34.4605
36.3469
38.0862
39.6235
40.9233
41.9677