/*--------------------------------*- C++ -*----------------------------------*\
  =========                 |
  \\      /  F ield         | OpenFOAM: The Open Source CFD Toolbox
   \\    /   O peration     | Website:  https://openfoam.org
    \\  /    A nd           | Version:  6
     \\/     M anipulation  |
\*---------------------------------------------------------------------------*/
FoamFile
{
    version     2.0;
    format      ascii;
    class       volScalarField;
    location    "0.26";
    object      T;
}
// * * * * * * * * * * * * * * * * * * * * * * * * * * * * * * * * * * * * * //

dimensions      [0 0 0 1 0 0 0];

internalField   nonuniform List<scalar> 
7000
(
103.895
103.895
103.894
103.892
103.89
103.888
103.886
103.884
103.883
103.882
103.895
103.895
103.894
103.892
103.89
103.888
103.886
103.884
103.883
103.882
103.895
103.895
103.894
103.892
103.89
103.888
103.886
103.884
103.883
103.882
103.895
103.895
103.894
103.892
103.89
103.888
103.886
103.884
103.883
103.882
103.895
103.895
103.894
103.892
103.89
103.888
103.886
103.884
103.883
103.882
103.895
103.895
103.894
103.892
103.89
103.888
103.886
103.884
103.883
103.882
103.895
103.895
103.894
103.892
103.89
103.888
103.886
103.884
103.883
103.882
103.895
103.895
103.894
103.892
103.89
103.888
103.886
103.884
103.883
103.882
103.895
103.895
103.894
103.892
103.89
103.888
103.886
103.884
103.883
103.882
103.895
103.895
103.894
103.892
103.89
103.888
103.886
103.884
103.883
103.882
91.8029
91.8014
91.7983
91.7939
91.7882
91.7815
91.7744
91.7679
91.7627
91.7598
91.8029
91.8013
91.7983
91.7938
91.7881
91.7814
91.7744
91.7678
91.7626
91.7598
91.8028
91.8013
91.7982
91.7938
91.788
91.7814
91.7743
91.7678
91.7626
91.7598
91.8028
91.8012
91.7982
91.7938
91.788
91.7814
91.7743
91.7677
91.7626
91.7597
91.8028
91.8012
91.7982
91.7937
91.788
91.7813
91.7743
91.7677
91.7626
91.7597
91.8028
91.8012
91.7982
91.7937
91.788
91.7813
91.7743
91.7677
91.7626
91.7597
91.8028
91.8012
91.7982
91.7937
91.788
91.7813
91.7743
91.7677
91.7626
91.7597
91.8028
91.8012
91.7982
91.7938
91.788
91.7814
91.7743
91.7678
91.7626
91.7598
91.8028
91.8013
91.7982
91.7938
91.7881
91.7814
91.7744
91.7678
91.7626
91.7598
91.8029
91.8013
91.7983
91.7938
91.7881
91.7814
91.7744
91.7678
91.7627
91.7598
80.0569
80.054
80.0484
80.0402
80.0294
80.0167
80.0031
79.9902
79.9799
79.9742
80.0568
80.0539
80.0484
80.0401
80.0293
80.0166
80.003
79.9901
79.9798
79.9741
80.0567
80.0539
80.0483
80.04
80.0292
80.0165
80.0029
79.99
79.9797
79.974
80.0567
80.0538
80.0482
80.04
80.0292
80.0165
80.0029
79.99
79.9797
79.974
80.0566
80.0538
80.0482
80.0399
80.0292
80.0165
80.0029
79.9899
79.9797
79.974
80.0566
80.0538
80.0482
80.0399
80.0292
80.0165
80.0029
79.99
79.9797
79.974
80.0567
80.0538
80.0482
80.0399
80.0292
80.0165
80.0029
79.99
79.9797
79.974
80.0567
80.0538
80.0483
80.04
80.0292
80.0165
80.0029
79.99
79.9797
79.9741
80.0567
80.0539
80.0483
80.04
80.0293
80.0166
80.003
79.9901
79.9798
79.9741
80.0568
80.0539
80.0484
80.0401
80.0293
80.0166
80.003
79.9901
79.9799
79.9742
68.8656
68.8611
68.8522
68.8387
68.821
68.7996
68.7763
68.7536
68.7352
68.7248
68.8655
68.861
68.8521
68.8386
68.8209
68.7995
68.7762
68.7535
68.7351
68.7247
68.8654
68.8609
68.852
68.8385
68.8208
68.7994
68.7761
68.7534
68.735
68.7246
68.8654
68.8609
68.8519
68.8385
68.8207
68.7994
68.776
68.7534
68.735
68.7246
68.8653
68.8608
68.8519
68.8384
68.8207
68.7994
68.776
68.7533
68.735
68.7246
68.8653
68.8608
68.8519
68.8384
68.8207
68.7994
68.776
68.7534
68.735
68.7246
68.8653
68.8608
68.8519
68.8385
68.8207
68.7994
68.776
68.7534
68.735
68.7246
68.8654
68.8609
68.8519
68.8385
68.8208
68.7994
68.7761
68.7534
68.735
68.7246
68.8654
68.8609
68.852
68.8386
68.8208
68.7995
68.7762
68.7535
68.7351
68.7247
68.8655
68.861
68.8521
68.8387
68.8209
68.7996
68.7763
68.7536
68.7352
68.7248
58.4071
58.4004
58.387
58.3665
58.3389
58.3048
58.2665
58.2281
58.196
58.1774
58.407
58.4003
58.3869
58.3664
58.3388
58.3047
58.2664
58.228
58.1959
58.1773
58.4069
58.4002
58.3868
58.3663
58.3387
58.3046
58.2663
58.2279
58.1958
58.1772
58.4068
58.4001
58.3867
58.3662
58.3386
58.3046
58.2662
58.2279
58.1958
58.1772
58.4068
58.4001
58.3867
58.3662
58.3386
58.3045
58.2662
58.2279
58.1958
58.1771
58.4068
58.4001
58.3867
58.3662
58.3386
58.3045
58.2662
58.2279
58.1958
58.1771
58.4068
58.4001
58.3867
58.3662
58.3386
58.3046
58.2663
58.2279
58.1958
58.1772
58.4068
58.4002
58.3868
58.3663
58.3387
58.3046
58.2663
58.228
58.1959
58.1772
58.4069
58.4002
58.3868
58.3664
58.3387
58.3047
58.2664
58.2281
58.1959
58.1773
58.407
58.4003
58.3869
58.3665
58.3389
58.3048
58.2665
58.2282
58.1961
58.1775
48.8203
48.8108
48.7916
48.7616
48.7203
48.6678
48.6064
48.5424
48.4865
48.4527
48.8201
48.8107
48.7914
48.7615
48.7202
48.6676
48.6063
48.5423
48.4864
48.4527
48.82
48.8106
48.7913
48.7614
48.7201
48.6675
48.6062
48.5422
48.4863
48.4526
48.8199
48.8105
48.7912
48.7613
48.72
48.6674
48.6061
48.5421
48.4862
48.4525
48.8199
48.8104
48.7912
48.7613
48.72
48.6674
48.6061
48.5421
48.4862
48.4525
48.8199
48.8104
48.7912
48.7613
48.72
48.6674
48.6061
48.5421
48.4862
48.4525
48.8199
48.8105
48.7912
48.7613
48.72
48.6675
48.6061
48.5422
48.4862
48.4526
48.82
48.8105
48.7913
48.7614
48.7201
48.6675
48.6062
48.5422
48.4863
48.4526
48.82
48.8106
48.7914
48.7615
48.7202
48.6676
48.6063
48.5423
48.4864
48.4527
48.8201
48.8107
48.7915
48.7616
48.7203
48.6678
48.6065
48.5425
48.4866
48.4529
40.2005
40.1877
40.1612
40.1192
40.0595
39.9809
39.8849
39.7791
39.6808
39.6178
40.2003
40.1875
40.161
40.119
40.0594
39.9807
39.8847
39.7789
39.6807
39.6177
40.2002
40.1874
40.1609
40.1189
40.0593
39.9806
39.8846
39.7788
39.6806
39.6176
40.2001
40.1873
40.1609
40.1189
40.0592
39.9806
39.8846
39.7788
39.6805
39.6176
40.2001
40.1873
40.1608
40.1188
40.0592
39.9805
39.8845
39.7788
39.6805
39.6176
40.2001
40.1873
40.1608
40.1188
40.0592
39.9805
39.8845
39.7788
39.6805
39.6176
40.2001
40.1873
40.1609
40.1189
40.0592
39.9806
39.8846
39.7788
39.6806
39.6176
40.2002
40.1874
40.1609
40.119
40.0593
39.9807
39.8847
39.7789
39.6806
39.6177
40.2003
40.1875
40.161
40.1191
40.0594
39.9808
39.8848
39.779
39.6808
39.6178
40.2004
40.1876
40.1612
40.1192
40.0595
39.9809
39.8849
39.7791
39.6809
39.618
32.5984
32.5818
32.5471
32.4907
32.408
32.2946
32.1483
31.9755
31.8004
31.6763
32.5983
32.5817
32.5469
32.4905
32.4079
32.2944
32.1482
31.9754
31.8003
31.6762
32.5982
32.5816
32.5468
32.4904
32.4078
32.2943
32.1481
31.9753
31.8002
31.6762
32.5981
32.5815
32.5467
32.4903
32.4077
32.2943
32.148
31.9752
31.8001
31.6761
32.5981
32.5815
32.5467
32.4903
32.4077
32.2943
32.148
31.9752
31.8001
31.6761
32.5981
32.5815
32.5467
32.4903
32.4077
32.2943
32.148
31.9752
31.8001
31.6761
32.5981
32.5815
32.5467
32.4904
32.4077
32.2943
32.1481
31.9753
31.8002
31.6762
32.5982
32.5816
32.5468
32.4904
32.4078
32.2944
32.1481
31.9754
31.8002
31.6762
32.5983
32.5817
32.5469
32.4905
32.4079
32.2945
32.1483
31.9755
31.8004
31.6764
32.5984
32.5818
32.5471
32.4907
32.4081
32.2946
32.1484
31.9756
31.8005
31.6765
26.0226
26.0021
25.9587
25.8868
25.7782
25.6224
25.4087
25.1331
24.8172
24.5523
26.0224
26.002
25.9586
25.8867
25.7781
25.6222
25.4085
25.133
24.8171
24.5522
26.0223
26.0019
25.9585
25.8866
25.778
25.6221
25.4084
25.1329
24.817
24.5521
26.0223
26.0018
25.9584
25.8865
25.7779
25.6221
25.4084
25.1328
24.8169
24.5521
26.0222
26.0018
25.9584
25.8865
25.7779
25.6221
25.4084
25.1328
24.8169
24.5521
26.0222
26.0018
25.9584
25.8865
25.7779
25.6221
25.4084
25.1328
24.8169
24.5521
26.0223
26.0018
25.9584
25.8865
25.7779
25.6221
25.4084
25.1329
24.817
24.5521
26.0223
26.0019
25.9585
25.8866
25.778
25.6222
25.4085
25.1329
24.8171
24.5522
26.0224
26.002
25.9586
25.8867
25.7781
25.6223
25.4086
25.1331
24.8172
24.5523
26.0225
26.0021
25.9587
25.8869
25.7783
25.6225
25.4088
25.1332
24.8173
24.5525
20.4439
20.4201
20.369
20.2829
20.1493
19.9495
19.6576
19.2412
18.6768
18.0451
20.4437
20.4199
20.3688
20.2828
20.1491
19.9494
19.6575
19.2411
18.6767
18.0451
20.4436
20.4198
20.3688
20.2827
20.1491
19.9493
19.6574
19.2411
18.6767
18.045
20.4436
20.4198
20.3687
20.2826
20.149
19.9492
19.6574
19.241
18.6766
18.045
20.4435
20.4198
20.3687
20.2826
20.149
19.9492
19.6574
19.241
18.6766
18.0449
20.4435
20.4198
20.3687
20.2826
20.149
19.9492
19.6574
19.241
18.6766
18.045
20.4436
20.4198
20.3687
20.2826
20.149
19.9493
19.6574
19.2411
18.6767
18.045
20.4436
20.4199
20.3688
20.2827
20.1491
19.9493
19.6575
19.2411
18.6767
18.0451
20.4437
20.42
20.3689
20.2828
20.1492
19.9495
19.6576
19.2412
18.6768
18.0452
20.4438
20.4201
20.369
20.283
20.1493
19.9496
19.6577
19.2414
18.677
18.0453
15.8026
15.7766
15.7204
15.6246
15.4732
15.2406
14.8843
14.3279
13.4085
11.6867
15.8025
15.7765
15.7203
15.6245
15.4731
15.2405
14.8842
14.3278
13.4085
11.6866
15.8024
15.7764
15.7202
15.6244
15.4731
15.2405
14.8842
14.3278
13.4084
11.6866
15.8024
15.7764
15.7201
15.6243
15.473
15.2404
14.8841
14.3277
13.4084
11.6866
15.8023
15.7763
15.7201
15.6243
15.473
15.2404
14.8841
14.3277
13.4083
11.6865
15.8023
15.7763
15.7201
15.6243
15.473
15.2404
14.8841
14.3277
13.4084
11.6866
15.8024
15.7764
15.7202
15.6244
15.473
15.2404
14.8842
14.3278
13.4084
11.6866
15.8024
15.7764
15.7202
15.6244
15.4731
15.2405
14.8842
14.3278
13.4085
11.6866
15.8025
15.7765
15.7203
15.6245
15.4732
15.2406
14.8843
14.3279
13.4085
11.6867
15.8026
15.7766
15.7204
15.6246
15.4733
15.2407
14.8844
14.328
13.4087
11.6868
12.0163
11.9897
11.932
11.8335
11.6777
11.4378
11.0714
10.5093
9.63611
8.27476
12.0162
11.9896
11.9319
11.8335
11.6776
11.4377
11.0713
10.5092
9.63604
8.2747
12.0161
11.9895
11.9318
11.8334
11.6775
11.4376
11.0713
10.5091
9.63598
8.27465
12.0161
11.9895
11.9318
11.8333
11.6775
11.4376
11.0712
10.5091
9.63595
8.27462
12.0161
11.9894
11.9318
11.8333
11.6775
11.4376
11.0712
10.5091
9.63594
8.27461
12.0161
11.9894
11.9318
11.8333
11.6775
11.4376
11.0712
10.5091
9.63596
8.27462
12.0161
11.9895
11.9318
11.8334
11.6775
11.4376
11.0713
10.5091
9.63599
8.27465
12.0162
11.9895
11.9319
11.8334
11.6776
11.4377
11.0713
10.5092
9.63604
8.2747
12.0162
11.9896
11.932
11.8335
11.6776
11.4378
11.0714
10.5093
9.63612
8.27477
12.0163
11.9897
11.9321
11.8336
11.6778
11.4379
11.0715
10.5094
9.63622
8.27486
8.98748
8.96192
8.90673
8.81303
8.66612
8.44371
8.11346
7.63092
6.94249
6.01066
8.98739
8.96184
8.90665
8.81295
8.66605
8.44363
8.11338
7.63086
6.94243
6.0106
8.98733
8.96178
8.90659
8.8129
8.66599
8.44358
8.11333
7.63081
6.94239
6.01056
8.98729
8.96174
8.90656
8.81286
8.66596
8.44355
8.1133
7.63078
6.94236
6.01054
8.98728
8.96172
8.90654
8.81285
8.66595
8.44354
8.1133
7.63077
6.94235
6.01053
8.98728
8.96173
8.90655
8.81286
8.66596
8.44355
8.11331
7.63078
6.94236
6.01054
8.98731
8.96176
8.90658
8.81289
8.66599
8.44358
8.11334
7.63081
6.94239
6.01057
8.98736
8.96181
8.90663
8.81294
8.66604
8.44363
8.11339
7.63086
6.94244
6.01061
8.98742
8.96188
8.90671
8.81302
8.66612
8.44371
8.11346
7.63093
6.94251
6.01067
8.9875
8.96197
8.9068
8.81312
8.66622
8.4438
8.11356
7.63102
6.94259
6.01075
6.61156
6.58848
6.53892
6.45567
6.32728
6.1376
5.86586
5.48891
4.9891
4.37483
6.61149
6.58841
6.53885
6.4556
6.32721
6.13753
5.86581
5.48886
4.98905
4.37478
6.61144
6.58836
6.5388
6.45555
6.32717
6.13749
5.86577
5.48882
4.98902
4.37475
6.61141
6.58833
6.53877
6.45553
6.32714
6.13747
5.86574
5.4888
4.98899
4.37473
6.6114
6.58832
6.53876
6.45552
6.32713
6.13746
5.86574
5.48879
4.98899
4.37472
6.61141
6.58832
6.53877
6.45552
6.32714
6.13747
5.86574
5.4888
4.989
4.37473
6.61143
6.58835
6.5388
6.45555
6.32717
6.13749
5.86577
5.48882
4.98902
4.37475
6.61147
6.58839
6.53884
6.4556
6.32721
6.13754
5.86582
5.48887
4.98906
4.37479
6.61152
6.58845
6.5389
6.45566
6.32728
6.1376
5.86588
5.48893
4.98912
4.37484
6.61159
6.58853
6.53899
6.45574
6.32736
6.13768
5.86596
5.489
4.98919
4.37491
4.78369
4.76396
4.72191
4.65221
4.54678
4.39515
4.1856
3.90825
3.56158
3.16369
4.78364
4.7639
4.72186
4.65215
4.54672
4.3951
4.18555
3.90821
3.56154
3.16365
4.7836
4.76386
4.72182
4.65212
4.54669
4.39506
4.18552
3.90818
3.56151
3.16363
4.78357
4.76384
4.7218
4.65209
4.54667
4.39504
4.1855
3.90816
3.5615
3.16361
4.78356
4.76383
4.72179
4.65209
4.54666
4.39504
4.1855
3.90816
3.56149
3.16361
4.78357
4.76384
4.72179
4.65209
4.54667
4.39505
4.18551
3.90817
3.5615
3.16361
4.78359
4.76386
4.72182
4.65212
4.54669
4.39507
4.18553
3.90819
3.56152
3.16363
4.78362
4.76389
4.72185
4.65215
4.54673
4.39511
4.18557
3.90822
3.56155
3.16366
4.78367
4.76394
4.7219
4.65221
4.54678
4.39516
4.18562
3.90827
3.5616
3.16371
4.78372
4.76401
4.72197
4.65228
4.54685
4.39522
4.18568
3.90833
3.56166
3.16376
3.40426
3.3882
3.35428
3.29883
3.21663
3.10154
2.94777
2.75253
2.52011
2.26732
3.40422
3.38816
3.35424
3.29879
3.21659
3.1015
2.94774
2.75249
2.52008
2.26729
3.40419
3.38813
3.35421
3.29876
3.21657
3.10147
2.94771
2.75247
2.52005
2.26726
3.40417
3.38811
3.35419
3.29874
3.21655
3.10146
2.9477
2.75245
2.52004
2.26725
3.40416
3.38811
3.35418
3.29873
3.21655
3.10145
2.94769
2.75245
2.52004
2.26725
3.40417
3.38811
3.35419
3.29874
3.21655
3.10146
2.9477
2.75246
2.52004
2.26725
3.40419
3.38813
3.35421
3.29876
3.21657
3.10148
2.94772
2.75248
2.52006
2.26727
3.40421
3.38816
3.35424
3.29879
3.2166
3.10151
2.94775
2.7525
2.52009
2.26729
3.40425
3.3882
3.35428
3.29883
3.21665
3.10155
2.94779
2.75254
2.52012
2.26733
3.40429
3.38825
3.35433
3.29889
3.2167
3.10161
2.94784
2.75259
2.52017
2.26737
2.38288
2.37037
2.34419
2.30202
2.24075
2.15715
2.04902
1.91697
1.76683
1.61189
2.38284
2.37034
2.34416
2.30198
2.24071
2.15712
2.04899
1.91694
1.76681
1.61187
2.38282
2.37032
2.34414
2.30196
2.24069
2.1571
2.04897
1.91692
1.76679
1.61185
2.3828
2.3703
2.34412
2.30195
2.24068
2.15709
2.04896
1.91691
1.76678
1.61184
2.3828
2.3703
2.34412
2.30195
2.24068
2.15709
2.04896
1.91691
1.76678
1.61184
2.3828
2.3703
2.34413
2.30195
2.24068
2.15709
2.04896
1.91692
1.76678
1.61185
2.38282
2.37032
2.34414
2.30197
2.2407
2.15711
2.04898
1.91693
1.76679
1.61186
2.38284
2.37034
2.34416
2.30199
2.24072
2.15713
2.049
1.91695
1.76682
1.61188
2.38287
2.37037
2.3442
2.30202
2.24076
2.15716
2.04903
1.91698
1.76685
1.61191
2.3829
2.37041
2.34424
2.30207
2.2408
2.15721
2.04908
1.91702
1.76688
1.61194
1.64067
1.63132
1.61192
1.5811
1.53723
1.47892
1.40599
1.3207
1.22918
1.14219
1.64064
1.6313
1.61189
1.58108
1.5372
1.4789
1.40597
1.32068
1.22916
1.14217
1.64063
1.63128
1.61187
1.58106
1.53719
1.47888
1.40596
1.32067
1.22914
1.14216
1.64062
1.63127
1.61186
1.58105
1.53718
1.47888
1.40595
1.32066
1.22914
1.14215
1.64061
1.63127
1.61186
1.58105
1.53718
1.47887
1.40595
1.32066
1.22913
1.14215
1.64062
1.63127
1.61187
1.58105
1.53718
1.47888
1.40595
1.32066
1.22914
1.14215
1.64063
1.63128
1.61188
1.58106
1.53719
1.47889
1.40596
1.32067
1.22915
1.14216
1.64064
1.6313
1.6119
1.58108
1.53721
1.47891
1.40598
1.32069
1.22917
1.14218
1.64067
1.63132
1.61192
1.58111
1.53724
1.47894
1.40601
1.32071
1.22919
1.1422
1.6407
1.63136
1.61196
1.58114
1.53727
1.47897
1.40604
1.32075
1.22922
1.14223
1.11125
1.10451
1.09064
1.06894
1.03868
0.999568
0.952518
0.900655
0.850669
0.813925
1.11123
1.10449
1.09063
1.06892
1.03866
0.999552
0.952502
0.90064
0.850654
0.813909
1.11122
1.10448
1.09061
1.06891
1.03865
0.99954
0.952491
0.900629
0.850643
0.813899
1.11121
1.10447
1.09061
1.06891
1.03864
0.999534
0.952485
0.900624
0.850638
0.813893
1.11121
1.10447
1.0906
1.0689
1.03864
0.999533
0.952484
0.900623
0.850637
0.813892
1.11121
1.10447
1.09061
1.06891
1.03864
0.999537
0.952488
0.900627
0.850641
0.813896
1.11122
1.10448
1.09062
1.06892
1.03865
0.999546
0.952497
0.900635
0.850649
0.813904
1.11123
1.10449
1.09063
1.06893
1.03867
0.99956
0.952511
0.900649
0.850662
0.813917
1.11125
1.10451
1.09065
1.06895
1.03869
0.99958
0.95253
0.900667
0.85068
0.813934
1.11127
1.10454
1.09068
1.06898
1.03871
0.999605
0.952554
0.90069
0.850702
0.813957
0.740457
0.735762
0.726183
0.711406
0.691227
0.665914
0.636797
0.607223
0.584447
0.584878
0.740443
0.735748
0.72617
0.711394
0.691214
0.665902
0.636786
0.607212
0.584436
0.584866
0.740434
0.735739
0.726161
0.711385
0.691206
0.665894
0.636778
0.607204
0.584428
0.584859
0.740429
0.735734
0.726156
0.71138
0.691201
0.665889
0.636774
0.6072
0.584424
0.584855
0.740427
0.735733
0.726154
0.711379
0.6912
0.665889
0.636773
0.607199
0.584424
0.584854
0.74043
0.735735
0.726157
0.711382
0.691203
0.665892
0.636776
0.607202
0.584427
0.584857
0.740436
0.735742
0.726164
0.711389
0.69121
0.665899
0.636783
0.607209
0.584433
0.584863
0.740446
0.735752
0.726174
0.711399
0.691221
0.665909
0.636793
0.607219
0.584443
0.584874
0.740459
0.735766
0.726189
0.711414
0.691236
0.665924
0.636807
0.607233
0.584457
0.584887
0.740475
0.735784
0.726208
0.711434
0.691255
0.665942
0.636825
0.60725
0.584474
0.584905
7.65459
5.4959
4.43427
4.18007
4.66283
5.95488
8.26837
12.0061
17.9018
27.3917
7.65452
5.49584
4.43421
4.18
4.66275
5.95478
8.26824
12.0059
17.9015
27.3914
7.65447
5.4958
4.43416
4.17995
4.66269
5.9547
8.26815
12.0058
17.9014
27.3913
7.65445
5.49577
4.43414
4.17991
4.66265
5.95465
8.26809
12.0057
17.9013
27.3911
7.65444
5.49576
4.43412
4.1799
4.66263
5.95463
8.26805
12.0057
17.9012
27.3911
7.65445
5.49577
4.43413
4.1799
4.66263
5.95463
8.26805
12.0057
17.9012
27.3911
7.65447
5.49579
4.43415
4.17992
4.66264
5.95465
8.26808
12.0057
17.9013
27.3911
7.65452
5.49582
4.43418
4.17995
4.66268
5.95468
8.26812
12.0057
17.9014
27.3912
7.65458
5.49587
4.43422
4.17999
4.66272
5.95474
8.26819
12.0058
17.9015
27.3914
7.65465
5.49593
4.43427
4.18004
4.66278
5.9548
8.26826
12.0059
17.9016
27.3916
6.30593
4.864
4.07301
3.90912
4.38035
5.56631
7.6347
10.8569
15.6099
22.271
6.30586
4.86394
4.07295
3.90906
4.38028
5.56621
7.63458
10.8568
15.6097
22.2708
6.30582
4.8639
4.0729
3.90901
4.38022
5.56614
7.63449
10.8567
15.6096
22.2706
6.3058
4.86387
4.07288
3.90898
4.38018
5.5661
7.63443
10.8566
15.6095
22.2705
6.30579
4.86386
4.07286
3.90896
4.38016
5.56607
7.6344
10.8566
15.6095
22.2705
6.3058
4.86387
4.07287
3.90897
4.38017
5.56607
7.6344
10.8566
15.6095
22.2705
6.30582
4.86389
4.07289
3.90898
4.38018
5.56609
7.63443
10.8566
15.6095
22.2705
6.30586
4.86393
4.07292
3.90901
4.38022
5.56613
7.63447
10.8567
15.6096
22.2706
6.30592
4.86398
4.07297
3.90906
4.38027
5.56619
7.63454
10.8567
15.6097
22.2708
6.306
4.86405
4.07303
3.90912
4.38033
5.56626
7.63464
10.8569
15.6099
22.271
4.90861
4.01804
3.50955
3.44951
3.88835
4.90072
6.59931
9.12796
12.6171
17.0476
4.90856
4.01799
3.50949
3.44945
3.88827
4.90063
6.5992
9.12783
12.6169
17.0474
4.90852
4.01796
3.50946
3.44941
3.88822
4.90057
6.59912
9.12774
12.6168
17.0473
4.9085
4.01793
3.50943
3.44938
3.88819
4.90053
6.59907
9.12767
12.6167
17.0472
4.90849
4.01792
3.50942
3.44937
3.88817
4.90051
6.59905
9.12764
12.6167
17.0471
4.9085
4.01793
3.50943
3.44937
3.88817
4.90051
6.59905
9.12764
12.6167
17.0471
4.90852
4.01795
3.50944
3.44939
3.88819
4.90053
6.59907
9.12767
12.6167
17.0472
4.90856
4.01798
3.50947
3.44942
3.88823
4.90056
6.59912
9.12773
12.6168
17.0473
4.90861
4.01803
3.50952
3.44946
3.88827
4.90062
6.59919
9.12782
12.6169
17.0474
4.90868
4.0181
3.50958
3.44952
3.88834
4.9007
6.59928
9.12793
12.6171
17.0476
3.71862
3.1826
2.88576
2.90207
3.28844
4.10464
5.41845
7.29293
9.74721
12.6797
3.71857
3.18255
2.88571
2.90202
3.28838
4.10457
5.41836
7.29282
9.74708
12.6795
3.71854
3.18252
2.88567
2.90198
3.28834
4.10451
5.4183
7.29274
9.74698
12.6794
3.71852
3.1825
2.88565
2.90195
3.28831
4.10447
5.41825
7.29269
9.74691
12.6793
3.71852
3.18249
2.88565
2.90194
3.28829
4.10446
5.41823
7.29266
9.74688
12.6793
3.71852
3.1825
2.88565
2.90195
3.2883
4.10446
5.41823
7.29266
9.74689
12.6793
3.71854
3.18252
2.88567
2.90196
3.28831
4.10448
5.41825
7.29269
9.74692
12.6794
3.71858
3.18255
2.8857
2.90199
3.28834
4.10451
5.4183
7.29274
9.74699
12.6794
3.71862
3.18259
2.88574
2.90203
3.28839
4.10457
5.41836
7.29282
9.74709
12.6796
3.71868
3.18265
2.88579
2.90209
3.28845
4.10464
5.41845
7.29293
9.74722
12.6797
2.76537
2.44932
2.29135
2.35017
2.6732
3.30313
4.27753
5.61786
7.30569
9.24898
2.76533
2.44928
2.29131
2.35012
2.67314
3.30307
4.27745
5.61777
7.30558
9.24885
2.76531
2.44925
2.29128
2.35009
2.67311
3.30302
4.2774
5.6177
7.3055
9.24876
2.76529
2.44923
2.29126
2.35007
2.67308
3.30299
4.27736
5.61766
7.30545
9.2487
2.76529
2.44923
2.29126
2.35006
2.67307
3.30298
4.27734
5.61764
7.30543
9.24867
2.76529
2.44923
2.29126
2.35006
2.67307
3.30298
4.27735
5.61764
7.30543
9.24868
2.76531
2.44925
2.29128
2.35008
2.67309
3.303
4.27737
5.61767
7.30546
9.24872
2.76534
2.44928
2.2913
2.3501
2.67312
3.30303
4.27741
5.61771
7.30552
9.24879
2.76538
2.44931
2.29134
2.35014
2.67316
3.30308
4.27746
5.61778
7.30561
9.24889
2.76543
2.44936
2.29139
2.35019
2.67321
3.30314
4.27754
5.61788
7.30572
9.24903
2.02741
1.84716
1.77419
1.85005
2.10938
2.58035
3.28214
4.21752
5.36068
6.64499
2.02738
1.84712
1.77416
1.85001
2.10933
2.58029
3.28208
4.21745
5.36059
6.64489
2.02736
1.8471
1.77413
1.84998
2.1093
2.58026
3.28203
4.21739
5.36052
6.64481
2.02734
1.84709
1.77412
1.84996
2.10928
2.58023
3.28201
4.21736
5.36048
6.64476
2.02734
1.84708
1.77411
1.84996
2.10927
2.58022
3.28199
4.21734
5.36046
6.64474
2.02735
1.84709
1.77412
1.84996
2.10927
2.58022
3.28199
4.21735
5.36047
6.64475
2.02736
1.8471
1.77413
1.84997
2.10929
2.58024
3.28201
4.21737
5.3605
6.64478
2.02738
1.84713
1.77415
1.85
2.10931
2.58027
3.28205
4.21741
5.36055
6.64484
2.02742
1.84716
1.77418
1.85003
2.10935
2.58031
3.2821
4.21747
5.36062
6.64493
2.02746
1.8472
1.77422
1.85007
2.1094
2.58036
3.28216
4.21755
5.36071
6.64504
1.47341
1.37803
1.35545
1.43385
1.63709
1.98275
2.47935
3.12178
3.88585
4.72577
1.47339
1.378
1.35542
1.43382
1.63705
1.9827
2.4793
3.12172
3.88578
4.72569
1.47337
1.37798
1.3554
1.4338
1.63703
1.98267
2.47926
3.12167
3.88573
4.72564
1.47336
1.37797
1.35539
1.43378
1.63701
1.98265
2.47924
3.12164
3.8857
4.7256
1.47336
1.37797
1.35538
1.43378
1.637
1.98264
2.47923
3.12163
3.88569
4.72558
1.47336
1.37797
1.35538
1.43378
1.63701
1.98265
2.47923
3.12164
3.88569
4.72559
1.47338
1.37799
1.3554
1.43379
1.63702
1.98266
2.47925
3.12166
3.88571
4.72562
1.47339
1.37801
1.35541
1.43381
1.63704
1.98268
2.47928
3.12169
3.88576
4.72567
1.47342
1.37803
1.35544
1.43384
1.63707
1.98272
2.47932
3.12174
3.88582
4.72574
1.47346
1.37806
1.35547
1.43388
1.63711
1.98277
2.47937
3.12181
3.88589
4.72583
1.07343
1.03365
1.04147
1.11677
1.27619
1.53049
1.88196
2.32149
2.82634
3.36172
1.07341
1.03363
1.04145
1.11674
1.27616
1.53045
1.88192
2.32145
2.82628
3.36165
1.07339
1.03361
1.04143
1.11672
1.27614
1.53043
1.88189
2.32141
2.82624
3.36161
1.07339
1.03361
1.04142
1.11671
1.27612
1.53041
1.88187
2.32139
2.82622
3.36158
1.07338
1.0336
1.04142
1.11671
1.27612
1.53041
1.88186
2.32138
2.82621
3.36157
1.07339
1.03361
1.04142
1.11671
1.27612
1.53041
1.88186
2.32139
2.82621
3.36158
1.0734
1.03362
1.04143
1.11672
1.27613
1.53042
1.88188
2.3214
2.82623
3.3616
1.07341
1.03363
1.04145
1.11673
1.27615
1.53044
1.8819
2.32143
2.82627
3.36164
1.07344
1.03365
1.04147
1.11676
1.27618
1.53047
1.88194
2.32147
2.82632
3.3617
1.07346
1.03368
1.0415
1.11679
1.27621
1.53051
1.88198
2.32153
2.82638
3.36177
0.803721
0.80462
0.832219
0.904265
1.03426
1.22921
1.48764
1.79705
2.13164
2.45323
0.803705
0.804602
0.832199
0.904243
1.03423
1.22918
1.4876
1.79701
2.1316
2.45318
0.803694
0.80459
0.832186
0.904228
1.03421
1.22916
1.48758
1.79698
2.13157
2.45315
0.803688
0.804583
0.832178
0.904219
1.0342
1.22915
1.48757
1.79697
2.13155
2.45313
0.803686
0.804581
0.832176
0.904216
1.0342
1.22914
1.48756
1.79696
2.13154
2.45312
0.80369
0.804584
0.832178
0.904219
1.0342
1.22915
1.48756
1.79696
2.13154
2.45313
0.803698
0.804593
0.832187
0.904227
1.03421
1.22916
1.48758
1.79698
2.13156
2.45315
0.803711
0.804606
0.832201
0.904242
1.03423
1.22918
1.4876
1.797
2.13159
2.45318
0.803729
0.804624
0.83222
0.904263
1.03425
1.2292
1.48763
1.79704
2.13163
2.45322
0.803751
0.804647
0.832244
0.904289
1.03428
1.22924
1.48767
1.79708
2.13168
2.45328
0.653913
0.686976
0.726975
0.797767
0.913191
1.07892
1.29145
1.5352
1.77695
1.95395
0.653901
0.686963
0.726961
0.79775
0.913172
1.0789
1.29143
1.53517
1.77692
1.95392
0.653892
0.686953
0.72695
0.797737
0.913157
1.07888
1.29141
1.53515
1.77689
1.95389
0.653887
0.686948
0.726943
0.79773
0.913148
1.07887
1.2914
1.53514
1.77688
1.95387
0.653886
0.686946
0.726941
0.797727
0.913144
1.07887
1.29139
1.53513
1.77687
1.95387
0.653889
0.686949
0.726944
0.79773
0.913147
1.07887
1.2914
1.53514
1.77688
1.95387
0.653896
0.686957
0.726952
0.797738
0.913156
1.07888
1.29141
1.53515
1.77689
1.95389
0.653907
0.686969
0.726964
0.797751
0.913171
1.0789
1.29143
1.53517
1.77692
1.95392
0.653923
0.686985
0.726982
0.79777
0.913192
1.07892
1.29145
1.5352
1.77695
1.95396
0.653942
0.687005
0.727003
0.797794
0.913219
1.07895
1.29149
1.53524
1.777
1.95401
43.7011
50.6877
54.4155
56.6628
58.0943
59.0236
59.6252
60.0043
60.226
60.3282
43.7007
50.6873
54.4151
56.6623
58.0938
59.0232
59.6247
60.0038
60.2255
60.3278
43.7004
50.687
54.4148
56.662
58.0935
59.0228
59.6244
60.0035
60.2252
60.3275
43.7003
50.6868
54.4146
56.6618
58.0933
59.0227
59.6242
60.0033
60.2251
60.3274
43.7002
50.6867
54.4145
56.6618
58.0932
59.0226
59.6241
60.0033
60.225
60.3273
43.7002
50.6868
54.4145
56.6618
58.0933
59.0226
59.6242
60.0033
60.2251
60.3274
43.7003
50.6869
54.4146
56.6619
58.0934
59.0228
59.6243
60.0035
60.2252
60.3276
43.7004
50.687
54.4148
56.6621
58.0936
59.023
59.6246
60.0037
60.2255
60.3278
43.7007
50.6873
54.4151
56.6625
58.094
59.0234
59.6249
60.0041
60.2259
60.3282
43.7009
50.6876
54.4155
56.6628
58.0943
59.0238
59.6253
60.0045
60.2263
60.3286
30.5567
36.1995
39.7868
42.0782
43.5604
44.5241
45.1465
45.5375
45.7656
45.8705
30.5564
36.1992
39.7865
42.0779
43.56
44.5238
45.1461
45.5371
45.7652
45.8703
30.5562
36.1989
39.7863
42.0776
43.5598
44.5235
45.1458
45.5369
45.765
45.8701
30.556
36.1988
39.7861
42.0775
43.5596
44.5233
45.1457
45.5367
45.7648
45.8699
30.556
36.1987
39.786
42.0774
43.5595
44.5233
45.1456
45.5366
45.7648
45.8699
30.556
36.1987
39.786
42.0774
43.5595
44.5233
45.1456
45.5367
45.7648
45.8699
30.556
36.1988
39.7861
42.0775
43.5597
44.5234
45.1458
45.5368
45.765
45.8701
30.5562
36.199
39.7863
42.0777
43.5599
44.5237
45.146
45.5371
45.7652
45.8703
30.5564
36.1992
39.7866
42.078
43.5602
44.524
45.1463
45.5374
45.7655
45.8707
30.5566
36.1995
39.7869
42.0784
43.5606
44.5244
45.1467
45.5378
45.766
45.8711
21.9295
25.9055
28.7852
30.7759
32.1235
33.0227
33.6121
33.9858
34.2048
34.3059
21.9293
25.9052
28.7849
30.7756
32.1232
33.0224
33.6118
33.9854
34.2045
34.3056
21.9291
25.905
28.7847
30.7754
32.1229
33.0222
33.6116
33.9852
34.2043
34.3055
21.929
25.9049
28.7846
30.7753
32.1228
33.022
33.6115
33.9851
34.2042
34.3054
21.929
25.9049
28.7845
30.7752
32.1228
33.022
33.6114
33.9851
34.2041
34.3053
21.929
25.9049
28.7846
30.7753
32.1228
33.022
33.6115
33.9851
34.2042
34.3054
21.929
25.9049
28.7846
30.7753
32.1229
33.0221
33.6116
33.9852
34.2043
34.3055
21.9291
25.9051
28.7848
30.7755
32.1231
33.0223
33.6118
33.9854
34.2045
34.3057
21.9293
25.9053
28.785
30.7758
32.1233
33.0226
33.6121
33.9857
34.2048
34.306
21.9295
25.9055
28.7853
30.7761
32.1237
33.023
33.6124
33.9861
34.2052
34.3064
15.7676
18.4841
20.6223
22.2009
23.3212
24.0939
24.612
24.9454
25.1429
25.2345
15.7674
18.4839
20.6221
22.2006
23.321
24.0936
24.6117
24.9452
25.1426
25.2343
15.7673
18.4837
20.622
22.2005
23.3208
24.0935
24.6115
24.945
25.1425
25.2342
15.7672
18.4837
20.6219
22.2004
23.3207
24.0934
24.6114
24.9449
25.1424
25.2341
15.7672
18.4836
20.6218
22.2003
23.3206
24.0933
24.6114
24.9449
25.1424
25.2341
15.7672
18.4836
20.6218
22.2003
23.3207
24.0934
24.6114
24.9449
25.1424
25.2341
15.7672
18.4837
20.6219
22.2004
23.3208
24.0935
24.6115
24.945
25.1425
25.2342
15.7673
18.4838
20.622
22.2006
23.3209
24.0936
24.6117
24.9452
25.1427
25.2344
15.7675
18.484
20.6222
22.2008
23.3211
24.0939
24.612
24.9455
25.143
25.2347
15.7677
18.4842
20.6225
22.2011
23.3214
24.0942
24.6123
24.9458
25.1433
25.235
11.2593
13.0957
14.6197
15.8023
16.6771
17.3003
17.7285
18.0092
18.1774
18.256
11.2592
13.0956
14.6195
15.8021
16.6769
17.3001
17.7283
18.009
18.1772
18.2559
11.2591
13.0954
14.6194
15.802
16.6767
17.2999
17.7282
18.0088
18.1771
18.2558
11.259
13.0954
14.6193
15.8019
16.6766
17.2999
17.7281
18.0088
18.177
18.2557
11.259
13.0953
14.6193
15.8018
16.6766
17.2998
17.7281
18.0087
18.177
18.2557
11.259
13.0953
14.6193
15.8019
16.6766
17.2999
17.7281
18.0088
18.177
18.2557
11.259
13.0954
14.6194
15.8019
16.6767
17.2999
17.7282
18.0089
18.1771
18.2558
11.2591
13.0955
14.6195
15.8021
16.6768
17.3001
17.7283
18.009
18.1773
18.256
11.2592
13.0956
14.6196
15.8022
16.677
17.3003
17.7285
18.0092
18.1775
18.2562
11.2594
13.0958
14.6198
15.8025
16.6773
17.3005
17.7288
18.0095
18.1778
18.2565
7.9625
9.19139
10.2476
11.0986
11.7503
12.2284
12.5648
12.7894
12.9258
12.9901
7.96239
9.19127
10.2475
11.0985
11.7501
12.2282
12.5647
12.7893
12.9257
12.99
7.96231
9.19118
10.2474
11.0984
11.75
12.2281
12.5646
12.7891
12.9256
12.9899
7.96225
9.19112
10.2473
11.0983
11.7499
12.228
12.5645
12.7891
12.9255
12.9898
7.96223
9.1911
10.2473
11.0983
11.7499
12.228
12.5645
12.7891
12.9255
12.9898
7.96224
9.19111
10.2473
11.0983
11.7499
12.228
12.5645
12.7891
12.9255
12.9898
7.96228
9.19115
10.2474
11.0984
11.75
12.2281
12.5646
12.7892
12.9256
12.9899
7.96235
9.19123
10.2475
11.0985
11.7501
12.2282
12.5647
12.7893
12.9257
12.99
7.96245
9.19135
10.2476
11.0986
11.7503
12.2284
12.5649
12.7895
12.9259
12.9902
7.96258
9.1915
10.2478
11.0988
11.7505
12.2286
12.5651
12.7897
12.9261
12.9904
5.57995
6.38742
7.09989
7.69167
8.15844
8.51012
8.76323
8.93522
9.04105
9.09131
5.57986
6.38732
7.09979
7.69156
8.15833
8.51
8.76311
8.9351
9.04094
9.09123
5.5798
6.38725
7.09971
7.69148
8.15825
8.50992
8.76302
8.93502
9.04086
9.09116
5.57976
6.38721
7.09966
7.69143
8.1582
8.50987
8.76298
8.93498
9.04082
9.09113
5.57974
6.38719
7.09965
7.69142
8.15818
8.50986
8.76297
8.93497
9.04082
9.09112
5.57975
6.3872
7.09966
7.69143
8.1582
8.50988
8.76299
8.93499
9.04084
9.09115
5.57978
6.38724
7.0997
7.69148
8.15825
8.50993
8.76305
8.93505
9.04091
9.09121
5.57984
6.3873
7.09978
7.69156
8.15834
8.51002
8.76314
8.93515
9.04101
9.09132
5.57992