/*--------------------------------*- C++ -*----------------------------------*\
  =========                 |
  \\      /  F ield         | OpenFOAM: The Open Source CFD Toolbox
   \\    /   O peration     | Website:  https://openfoam.org
    \\  /    A nd           | Version:  6
     \\/     M anipulation  |
\*---------------------------------------------------------------------------*/
FoamFile
{
    version     2.0;
    format      ascii;
    class       volVectorField;
    location    "0.084";
    object      U;
}
// * * * * * * * * * * * * * * * * * * * * * * * * * * * * * * * * * * * * * //

dimensions      [0 1 -1 0 0 0 0];

internalField   nonuniform List<vector> 
56000
(
(-8.1241e-08 6.21934e-07 0.0356485)
(2.0652e-06 7.10622e-07 0.0799799)
(6.74343e-06 5.06478e-07 0.11217)
(1.37661e-05 3.22925e-07 0.137306)
(2.26765e-05 1.64936e-07 0.157635)
(3.31112e-05 4.70308e-08 0.174384)
(4.47504e-05 -3.61161e-08 0.188329)
(5.73352e-05 -9.46195e-08 0.200012)
(7.06562e-05 -1.3282e-07 0.209832)
(8.45385e-05 -1.5567e-07 0.218096)
(9.8832e-05 -1.66947e-07 0.225045)
(0.000113399 -1.68941e-07 0.230871)
(0.000128101 -1.63391e-07 0.235728)
(0.000142792 -1.51555e-07 0.239739)
(0.000157307 -1.34241e-07 0.243003)
(0.000171454 -1.11965e-07 0.245596)
(0.000185009 -8.50552e-08 0.247577)
(0.000197707 -5.37221e-08 0.248984)
(0.000209244 -1.81496e-08 0.249844)
(0.000219272 2.14042e-08 0.250165)
(0.000227407 6.44862e-08 0.249943)
(0.000233234 1.10308e-07 0.249156)
(0.000236326 1.57577e-07 0.24777)
(0.000236264 2.04291e-07 0.245734)
(0.000232666 2.47521e-07 0.242978)
(0.000225228 2.8318e-07 0.239415)
(0.000213768 3.05754e-07 0.234935)
(0.000198277 3.08012e-07 0.229403)
(0.00017897 2.8091e-07 0.222655)
(0.000156334 2.13557e-07 0.214489)
(0.000131159 9.2543e-08 0.204655)
(0.000104551 -9.70645e-08 0.192841)
(7.79052e-05 -3.68498e-07 0.178642)
(5.28415e-05 -7.36275e-07 0.161512)
(3.10824e-05 -1.1969e-06 0.140671)
(1.42462e-05 -1.69783e-06 0.114881)
(3.6719e-06 -2.13773e-06 0.0818684)
(-4.999e-07 -1.73565e-06 0.0364594)
(4.85977e-07 2.69887e-06 0.0799195)
(7.65037e-06 3.84937e-06 0.198102)
(2.13469e-05 3.27174e-06 0.289596)
(4.0752e-05 2.29297e-06 0.362772)
(6.47793e-05 1.30855e-06 0.42254)
(9.26051e-05 4.65239e-07 0.472012)
(0.000123494 -2.02001e-07 0.513305)
(0.00015683 -7.01699e-07 0.547947)
(0.000192098 -1.05347e-06 0.577087)
(0.000228861 -1.28049e-06 0.601619)
(0.000266733 -1.40364e-06 0.622246)
(0.000305356 -1.43986e-06 0.639535)
(0.000344371 -1.40267e-06 0.653941)
(0.00038339 -1.30237e-06 0.665829)
(0.000421981 -1.14655e-06 0.67549)
(0.00045964 -9.40716e-07 0.683152)
(0.000495775 -6.8904e-07 0.688986)
(0.000529693 -3.95053e-07 0.693112)
(0.000560593 -6.25129e-08 0.695604)
(0.000587563 3.036e-07 0.696491)
(0.000609594 6.95929e-07 0.695758)
(0.000625597 1.10341e-06 0.693346)
(0.000634451 1.50977e-06 0.689152)
(0.000635051 1.89191e-06 0.683024)
(0.000626394 2.21833e-06 0.67476)
(0.000607672 2.44767e-06 0.6641)
(0.000578394 2.5278e-06 0.650723)
(0.000538509 2.39566e-06 0.63423)
(0.000488542 1.97871e-06 0.614138)
(0.000429706 1.19881e-06 0.589853)
(0.000363981 -2.09204e-08 0.560647)
(0.000294135 -1.74201e-06 0.525607)
(0.000223649 -3.98397e-06 0.483568)
(0.000156536 -6.68045e-06 0.43299)
(9.70324e-05 -9.58114e-06 0.371742)
(4.91239e-05 -1.20693e-05 0.296687)
(1.64057e-05 -1.27959e-05 0.202864)
(6.41676e-07 -8.15608e-06 0.0817829)
(9.79436e-07 4.23529e-06 0.111854)
(1.296e-05 6.60519e-06 0.288946)
(3.4806e-05 6.01822e-06 0.431397)
(6.49395e-05 4.43143e-06 0.54772)
(0.000101694 2.63314e-06 0.643831)
(0.000143911 9.803e-07 0.723916)
(0.000190559 -3.93938e-07 0.79103)
(0.000240773 -1.46116e-06 0.847476)
(0.000293825 -2.23541e-06 0.895033)
(0.000349088 -2.7489e-06 0.935106)
(0.000406005 -3.03682e-06 0.968821)
(0.000464055 -3.13114e-06 0.997085)
(0.000522708 -3.05896e-06 1.02063)
(0.000581397 -2.84197e-06 1.04006)
(0.000639479 -2.4969e-06 1.05583)
(0.000696209 -2.03651e-06 1.06833)
(0.000750707 -1.47101e-06 1.07783)
(0.000801946 -8.09599e-07 1.08452)
(0.000848731 -6.2372e-08 1.08854)
(0.000889704 7.57399e-07 1.08992)
(0.00092336 1.63067e-06 1.08864)
(0.000948074 2.52964e-06 1.08461)
(0.000962165 3.41451e-06 1.07766)
(0.000963977 4.23007e-06 1.06754)
(0.000951995 4.9026e-06 1.05393)
(0.000924991 5.33743e-06 1.03641)
(0.000882194 5.41815e-06 1.01444)
(0.000823478 5.00829e-06 0.987398)
(0.000749557 3.95751e-06 0.954492)
(0.000662148 2.11437e-06 0.914772)
(0.000564088 -6.51735e-07 0.867077)
(0.000459359 -4.41226e-06 0.80997)
(0.000352981 -9.11476e-06 0.741646)
(0.000250758 -1.44813e-05 0.659785)
(0.000158852 -1.98237e-05 0.561313)
(8.31622e-05 -2.37367e-05 0.44202)
(2.94775e-05 -2.35739e-05 0.295944)
(1.76945e-06 -1.38069e-05 0.114485)
(1.36778e-06 5.03641e-06 0.136401)
(1.74057e-05 8.3149e-06 0.36047)
(4.61403e-05 7.92507e-06 0.545399)
(8.52612e-05 6.02464e-06 0.698979)
(0.000132539 3.66346e-06 0.827264)
(0.000186501 1.3758e-06 0.934917)
(0.000245879 -5.97381e-07 1.02556)
(0.000309619 -2.17115e-06 1.10202)
(0.000376839 -3.33797e-06 1.16658)
(0.000446779 -4.12662e-06 1.22106)
(0.000518764 -4.57813e-06 1.26692)
(0.000592159 -4.73433e-06 1.3054)
(0.000666315 -4.63291e-06 1.33745)
(0.000740533 -4.30531e-06 1.36389)
(0.000814021 -3.77668e-06 1.38536)
(0.000885853 -3.06697e-06 1.40235)
(0.000954935 -2.19272e-06 1.41524)
(0.00101998 -1.16943e-06 1.4243)
(0.00107951 -1.44688e-08 1.4297)
(0.0011318 1.24947e-06 1.4315)
(0.00117498 2.59033e-06 1.42968)
(0.00120699 3.96212e-06 1.42409)
(0.00122571 5.30007e-06 1.41452)
(0.00122904 6.5157e-06 1.40064)
(0.00121505 7.49254e-06 1.38199)
(0.00118215 8.08342e-06 1.35802)
(0.00112932 8.11061e-06 1.32802)
(0.00105631 7.37078e-06 1.29112)
(0.000963937 5.64763e-06 1.24627)
(0.000854234 2.73578e-06 1.19223)
(0.000730634 -1.51956e-06 1.12745)
(0.000597999 -7.15893e-06 1.05007)
(0.000462499 -1.40084e-05 0.957794)
(0.000331328 -2.15296e-05 0.847763)
(0.000212218 -2.85854e-05 0.71634)
(0.000112761 -3.30926e-05 0.558851)
(4.08635e-05 -3.1502e-05 0.369217)
(2.70023e-06 -1.74832e-05 0.139615)
(1.64166e-06 5.12401e-06 0.155668)
(2.08836e-05 8.80768e-06 0.417169)
(5.51676e-05 8.66167e-06 0.63683)
(0.000101558 6.73227e-06 0.821646)
(0.000157309 4.14664e-06 0.977466)
(0.000220656 1.53454e-06 1.10909)
(0.000290117 -7.84503e-07 1.22042)
(0.000364486 -2.67453e-06 1.31464)
(0.000442765 -4.10039e-06 1.39437)
(0.0005241 -5.07835e-06 1.46175)
(0.000607739 -5.64665e-06 1.51854)
(0.000692969 -5.84974e-06 1.5662)
(0.000779065 -5.7302e-06 1.60593)
(0.000865241 -5.32503e-06 1.6387)
(0.000950599 -4.66484e-06 1.66529)
(0.00103409 -3.77467e-06 1.68633)
(0.00111446 -2.67597e-06 1.70227)
(0.00119025 -1.38941e-06 1.71346)
(0.00125974 6.15365e-08 1.72009)
(0.00132097 1.64624e-06 1.72225)
(0.00137176 3.32191e-06 1.71989)
(0.00140973 5.02795e-06 1.71287)
(0.00143242 6.68001e-06 1.7009)
(0.00143738 8.16423e-06 1.68358)
(0.00142232 9.33248e-06 1.66035)
(0.00138536 9.99991e-06 1.63052)
(0.00132524 9.94679e-06 1.59323)
(0.00124159 8.92694e-06 1.54742)
(0.00113523 6.68657e-06 1.49183)
(0.00100838 2.99789e-06 1.42492)
(0.000864897 -2.28676e-06 1.34489)
(0.000710265 -9.15262e-06 1.24952)
(0.000551532 -1.7301e-05 1.13618)
(0.000396998 -2.59768e-05 1.00165)
(0.000255709 -3.37269e-05 0.842034)
(0.000136755 -3.80851e-05 0.652523)
(4.99412e-05 -3.51656e-05 0.427279)
(3.36215e-06 -1.87732e-05 0.159326)
(1.82823e-06 4.68564e-06 0.170742)
(2.34803e-05 8.29359e-06 0.461739)
(6.20483e-05 8.34119e-06 0.70919)
(0.000114103 6.58279e-06 0.919431)
(0.000176462 4.07805e-06 1.09802)
(0.000247097 1.4638e-06 1.24972)
(0.00032434 -9.10735e-07 1.37856)
(0.000406854 -2.87992e-06 1.48794)
(0.00049355 -4.38615e-06 1.58069)
(0.000583508 -5.43106e-06 1.65919)
(0.000675922 -6.04493e-06 1.72542)
(0.000770034 -6.26869e-06 1.78105)
(0.000865073 -6.14407e-06 1.82744)
(0.000960197 -5.70881e-06 1.8657)
(0.00105444 -4.99505e-06 1.89675)
(0.00114668 -4.02981e-06 1.9213)
(0.00123555 -2.83683e-06 1.93989)
(0.00131946 -1.43954e-06 1.95291)
(0.00139653 1.35193e-07 1.9606)
(0.00146462 1.85236e-06 1.96305)
(0.00152133 3.66341e-06 1.96022)
(0.00156403 5.50024e-06 1.95192)
(0.00159001 7.26897e-06 1.93784)
(0.00159652 8.84397e-06 1.91749)
(0.00158102 1.00634e-05 1.89025)
(0.00154136 1.07274e-05 1.85531)
(0.00147608 1.06014e-05 1.81168)
(0.00138467 9.42751e-06 1.75813)
(0.00126791 6.94696e-06 1.69322)
(0.00112815 2.93961e-06 1.61522)
(0.000969495 -2.71498e-06 1.52207)
(0.000797899 -9.94774e-06 1.41135)
(0.000621081 -1.83743e-05 1.28017)
(0.000448228 -2.71269e-05 1.12513)
(0.000289477 -3.46377e-05 0.942199)
(0.000155188 -3.839e-05 0.726626)
(5.67586e-05 -3.46546e-05 0.472896)
(3.80521e-06 -1.79754e-05 0.174734)
(1.95019e-06 3.8968e-06 0.182259)
(2.53361e-05 7.0455e-06 0.495878)
(6.70665e-05 7.19946e-06 0.764843)
(0.000123348 5.73956e-06 0.994998)
(0.000190658 3.55996e-06 1.19163)
(0.000266744 1.22783e-06 1.3594)
(0.000349781 -9.28136e-07 1.50238)
(0.000438323 -2.74029e-06 1.62407)
(0.000531208 -4.14124e-06 1.72745)
(0.000627469 -5.12161e-06 1.81508)
(0.000726266 -5.7021e-06 1.88909)
(0.000826816 -5.9162e-06 1.95128)
(0.000928319 -5.80022e-06 2.00316)
(0.00102991 -5.38816e-06 2.04597)
(0.00113057 -4.70971e-06 2.0807)
(0.00122914 -3.79042e-06 2.10815)
(0.00132418 -2.65321e-06 2.12893)
(0.00141401 -1.32107e-06 2.14346)
(0.00149664 1.79376e-07 2.15202)
(0.00156981 1.8135e-06 2.15469)
(0.00163095 3.53353e-06 2.15145)
(0.00167727 5.27294e-06 2.14209)
(0.00170584 6.94064e-06 2.12624)
(0.00171372 8.41564e-06 2.10338)
(0.00169814 9.5432e-06 2.07281)
(0.00165676 1.01339e-05 2.03362)
(0.00158793 9.96777e-06 1.98473)
(0.00149103 8.80645e-06 1.92479)
(0.00136678 6.41647e-06 1.8522)
(0.00121757 2.60843e-06 1.76509)
(0.00104769 -2.70356e-06 1.66123)
(0.000863442 -9.41707e-06 1.53803)
(0.00067304 -1.71273e-05 1.39245)
(0.000486371 -2.49821e-05 1.22098)
(0.000314447 -3.15101e-05 1.01958)
(0.000168651 -3.44452e-05 0.783595)
(6.16168e-05 -3.05814e-05 0.507816)
(4.08328e-06 -1.55297e-05 0.186496)
(2.02555e-06 2.89421e-06 0.190616)
(2.65907e-05 5.31131e-06 0.520687)
(7.05218e-05 5.48652e-06 0.805391)
(0.000129776 4.40207e-06 1.05022)
(0.000200582 2.72676e-06 1.26026)
(0.00028052 9.01679e-07 1.44006)
(0.000367637 -8.07257e-07 1.5937)
(0.000460403 -2.25783e-06 1.72472)
(0.000557603 -3.38798e-06 1.8362)
(0.000658233 -4.18384e-06 1.93079)
(0.000761435 -4.65763e-06 2.01075)
(0.000866409 -4.83355e-06 2.07798)
(0.000972345 -4.73932e-06 2.13408)
(0.00107836 -4.40164e-06 2.18038)
(0.00118342 -3.84434e-06 2.21794)
(0.00128633 -3.08826e-06 2.24762)
(0.00138561 -2.15242e-06 2.27008)
(0.00147953 -1.05611e-06 2.28577)
(0.00156604 1.78178e-07 2.29499)
(0.00164277 1.52119e-06 2.29784)
(0.00170705 2.93274e-06 2.29427)
(0.00175597 4.35715e-06 2.28408)
(0.00178646 5.71858e-06 2.26686)
(0.00179542 6.91679e-06 2.24205)
(0.00177995 7.82433e-06 2.20891)
(0.00173752 8.28617e-06 2.16645)
(0.00166637 8.12378e-06 2.11351)
(0.00156575 7.14584e-06 2.04866)
(0.00143635 5.16844e-06 1.97019)
(0.00128057 2.04819e-06 1.87612)
(0.00110282 -2.26848e-06 1.7641)
(0.000909626 -7.67653e-06 1.63143)
(0.00070958 -1.38224e-05 1.475)
(0.000513084 -1.99948e-05 1.29124)
(0.000331807 -2.50028e-05 1.07611)
(0.000177896 -2.70661e-05 0.825084)
(6.48747e-05 -2.37502e-05 0.53318)
(4.24539e-06 -1.18807e-05 0.195025)
(2.06829e-06 1.77361e-06 0.196064)
(2.73597e-05 3.28585e-06 0.536877)
(7.26712e-05 3.41724e-06 0.83189)
(0.000133806 2.75191e-06 1.08639)
(0.000206834 1.70102e-06 1.30529)
(0.000289219 5.42818e-07 1.4931)
(0.000378925 -5.50717e-07 1.65386)
(0.000474362 -1.48488e-06 1.79114)
(0.000574277 -2.21641e-06 1.90807)
(0.000677647 -2.73366e-06 2.00736)
(0.000783598 -3.04263e-06 2.09134)
(0.000891326 -3.15775e-06 2.16198)
(0.00100001 -3.09627e-06 2.22094)
(0.00110877 -2.87514e-06 2.2696)
(0.00121657 -2.50973e-06 2.30909)
(0.00132217 -2.01363e-06 2.34028)
(0.00142409 -1.39936e-06 2.36388)
(0.00152057 -6.79758e-07 2.38036)
(0.00160951 1.30166e-07 2.39002)
(0.00168848 1.0109e-06 2.39298)
(0.00175477 1.93569e-06 2.38919)
(0.00180537 2.86761e-06 2.37843)
(0.00183712 3.75651e-06 2.36028)
(0.00184684 4.53635e-06 2.33415)
(0.0018315 5.12347e-06 2.29925)
(0.00178849 5.41654e-06 2.25457)
(0.00171595 5.29952e-06 2.19889)
(0.00161305 4.64902e-06 2.13071)
(0.00148044 3.34795e-06 2.04826)
(0.00132053 1.30758e-06 1.94949)
(0.00113778 -1.50001e-06 1.83198)
(0.00093889 -4.99732e-06 1.69296)
(0.000732685 -8.94442e-06 1.52927)
(0.000529911 -1.28714e-05 1.33733)
(0.000342673 -1.60068e-05 1.11312)
(0.000183622 -1.72197e-05 0.852189)
(6.68519e-05 -1.49972e-05 0.549723)
(4.33121e-06 -7.42996e-06 0.200583)
(2.08745e-06 5.96624e-07 0.198754)
(2.77237e-05 1.11045e-06 0.544871)
(7.36983e-05 1.1586e-06 0.844987)
(0.000135742 9.34564e-07 1.10428)
(0.000209846 5.76844e-07 1.3276)
(0.000293418 1.80347e-07 1.5194)
(0.000384378 -1.95537e-07 1.68373)
(0.000481106 -5.17655e-07 1.82415)
(0.00058233 -7.70531e-07 1.94382)
(0.000687016 -9.49691e-07 2.04548)
(0.000794286 -1.05688e-06 2.13148)
(0.00090333 -1.09687e-06 2.20384)
(0.00101333 -1.0755e-06 2.26425)
(0.0011234 -9.98589e-07 2.3141)
(0.0012325 -8.71423e-07 2.35455)
(0.00133939 -6.98721e-07 2.38652)
(0.00144258 -4.84855e-07 2.41069)
(0.00154028 -2.34321e-07 2.42756)
(0.00163039 4.76136e-08 2.43744)
(0.00171045 3.541e-07 2.44046)
(0.0017777 6.75765e-07 2.43656)
(0.00182912 9.9968e-07 2.42551)
(0.00186151 1.30833e-06 2.40689)
(0.00187161 1.57867e-06 2.38009)
(0.00185636 1.78159e-06 2.3443)
(0.0018131 1.88188e-06 2.2985)
(0.0017399 1.83935e-06 2.24143)
(0.00163592 1.61142e-06 2.17157)
(0.00150177 1.15796e-06 2.08712)
(0.00133986 4.48998e-07 1.98597)
(0.0011547 -5.23938e-07 1.8657)
(0.000953044 -1.73244e-06 1.7235)
(0.000743843 -3.09167e-06 1.55618)
(0.000538015 -4.43764e-06 1.36016)
(0.000347883 -5.50372e-06 1.13142)
(0.000186348 -5.90257e-06 0.865581)
(6.77802e-05 -5.12188e-06 0.557891)
(4.36747e-06 -2.52549e-06 0.203325)
(2.08745e-06 -5.96689e-07 0.198754)
(2.77236e-05 -1.11057e-06 0.544871)
(7.36983e-05 -1.15872e-06 0.844987)
(0.000135742 -9.34659e-07 1.10428)
(0.000209846 -5.76884e-07 1.3276)
(0.000293418 -1.80315e-07 1.5194)
(0.000384377 1.9565e-07 1.68373)
(0.000481106 5.17848e-07 1.82415)
(0.00058233 7.708e-07 1.94382)
(0.000687016 9.50028e-07 2.04548)
(0.000794285 1.05727e-06 2.13148)
(0.00090333 1.09729e-06 2.20384)
(0.00101333 1.07594e-06 2.26425)
(0.0011234 9.99017e-07 2.3141)
(0.0012325 8.71818e-07 2.35455)
(0.00133939 6.99056e-07 2.38652)
(0.00144258 4.85105e-07 2.41069)
(0.00154028 2.34459e-07 2.42756)
(0.00163038 -4.76122e-08 2.43744)
(0.00171045 -3.54258e-07 2.44046)
(0.0017777 -6.76103e-07 2.43656)
(0.00182912 -1.00021e-06 2.42551)
(0.00186151 -1.30907e-06 2.40689)
(0.00187161 -1.57963e-06 2.38009)
(0.00185636 -1.78275e-06 2.3443)
(0.0018131 -1.88325e-06 2.2985)
(0.0017399 -1.84089e-06 2.24143)
(0.00163592 -1.61311e-06 2.17157)
(0.00150177 -1.15976e-06 2.08712)
(0.00133986 -4.50859e-07 1.98597)
(0.0011547 5.22074e-07 1.8657)
(0.000953044 1.73064e-06 1.7235)
(0.000743843 3.09001e-06 1.55618)
(0.000538015 4.43618e-06 1.36016)
(0.000347882 5.50254e-06 1.13142)
(0.000186348 5.90171e-06 0.865581)
(6.77802e-05 5.12138e-06 0.557891)
(4.36747e-06 2.52534e-06 0.203325)
(2.06828e-06 -1.77367e-06 0.196064)
(2.73597e-05 -3.28597e-06 0.536877)
(7.26711e-05 -3.41737e-06 0.83189)
(0.000133806 -2.75201e-06 1.08639)
(0.000206834 -1.70107e-06 1.30529)
(0.000289219 -5.42794e-07 1.4931)
(0.000378924 5.5082e-07 1.65386)
(0.000474362 1.48506e-06 1.79114)
(0.000574277 2.21666e-06 1.90807)
(0.000677646 2.73398e-06 2.00736)
(0.000783598 3.043e-06 2.09134)
(0.000891325 3.15816e-06 2.16198)
(0.00100001 3.09668e-06 2.22094)
(0.00110877 2.87555e-06 2.2696)
(0.00121657 2.51011e-06 2.30909)
(0.00132217 2.01395e-06 2.34028)
(0.00142409 1.3996e-06 2.36388)
(0.00152057 6.7989e-07 2.38036)
(0.00160951 -1.30165e-07 2.39002)
(0.00168848 -1.01105e-06 2.39298)
(0.00175477 -1.93602e-06 2.38919)
(0.00180536 -2.86812e-06 2.37843)
(0.00183712 -3.75722e-06 2.36028)
(0.00184684 -4.53727e-06 2.33415)
(0.0018315 -5.12459e-06 2.29925)
(0.00178849 -5.41785e-06 2.25457)
(0.00171595 -5.30101e-06 2.19889)
(0.00161305 -4.65065e-06 2.13071)
(0.00148044 -3.34968e-06 2.04826)
(0.00132053 -1.30937e-06 1.94949)
(0.00113778 1.4982e-06 1.83198)
(0.00093889 4.99558e-06 1.69296)
(0.000732685 8.9428e-06 1.52927)
(0.000529911 1.28699e-05 1.33733)
(0.000342673 1.60057e-05 1.11312)
(0.000183622 1.72189e-05 0.852189)
(6.68518e-05 1.49967e-05 0.549723)
(4.33121e-06 7.42982e-06 0.200583)
(2.02553e-06 -2.89428e-06 0.190616)
(2.65907e-05 -5.31143e-06 0.520687)
(7.05217e-05 -5.48666e-06 0.805391)
(0.000129776 -4.40218e-06 1.05022)
(0.000200582 -2.72682e-06 1.26026)
(0.000280519 -9.01668e-07 1.44006)
(0.000367636 8.07341e-07 1.5937)
(0.000460402 2.25798e-06 1.72472)
(0.000557602 3.3882e-06 1.8362)
(0.000658232 4.18412e-06 1.93079)
(0.000761434 4.65796e-06 2.01075)
(0.000866408 4.83391e-06 2.07798)
(0.000972343 4.73969e-06 2.13408)
(0.00107836 4.40201e-06 2.18038)
(0.00118342 3.84468e-06 2.21794)
(0.00128633 3.08855e-06 2.24762)
(0.00138561 2.15263e-06 2.27008)
(0.00147953 1.05623e-06 2.28577)
(0.00156604 -1.7818e-07 2.29499)
(0.00164276 -1.52133e-06 2.29784)
(0.00170705 -2.93304e-06 2.29427)
(0.00175597 -4.35763e-06 2.28408)
(0.00178646 -5.71923e-06 2.26686)
(0.00179542 -6.91764e-06 2.24205)
(0.00177994 -7.82537e-06 2.20891)
(0.00173752 -8.28739e-06 2.16645)
(0.00166637 -8.12516e-06 2.11351)
(0.00156575 -7.14735e-06 2.04866)
(0.00143635 -5.17005e-06 1.97019)
(0.00128057 -2.04986e-06 1.87612)
(0.00110282 2.26679e-06 1.7641)
(0.000909625 7.67489e-06 1.63143)
(0.000709579 1.38209e-05 1.475)
(0.000513084 1.99934e-05 1.29124)
(0.000331807 2.50017e-05 1.07611)
(0.000177896 2.70653e-05 0.825084)
(6.48746e-05 2.37497e-05 0.53318)
(4.24539e-06 1.18805e-05 0.195025)
(1.95017e-06 -3.89687e-06 0.182259)
(2.5336e-05 -7.04565e-06 0.495878)
(6.70664e-05 -7.19964e-06 0.764843)
(0.000123348 -5.7397e-06 0.994998)
(0.000190657 -3.56004e-06 1.19163)
(0.000266743 -1.22783e-06 1.3594)
(0.00034978 9.28193e-07 1.50238)
(0.000438322 2.74041e-06 1.62407)
(0.000531207 4.14142e-06 1.72745)
(0.000627467 5.12184e-06 1.81508)
(0.000726265 5.70237e-06 1.88909)
(0.000826814 5.9165e-06 1.95128)
(0.000928316 5.80053e-06 2.00316)
(0.0010299 5.38847e-06 2.04597)
(0.00113057 4.71e-06 2.0807)
(0.00122913 3.79066e-06 2.10815)
(0.00132417 2.65339e-06 2.12893)
(0.001414 1.32117e-06 2.14346)
(0.00149664 -1.79379e-07 2.15202)
(0.00156981 -1.81362e-06 2.15469)
(0.00163095 -3.53379e-06 2.15145)
(0.00167727 -5.27335e-06 2.14209)
(0.00170584 -6.94122e-06 2.12624)
(0.00171372 -8.41639e-06 2.10338)
(0.00169814 -9.54411e-06 2.07281)
(0.00165676 -1.0135e-05 2.03362)
(0.00158793 -9.96898e-06 1.98473)
(0.00149103 -8.80778e-06 1.92479)
(0.00136678 -6.4179e-06 1.8522)
(0.00121757 -2.60992e-06 1.76509)
(0.00104769 2.70204e-06 1.66123)
(0.000863441 9.41559e-06 1.53803)
(0.000673039 1.71259e-05 1.39245)
(0.00048637 2.49809e-05 1.22098)
(0.000314447 3.15091e-05 1.01958)
(0.000168651 3.44445e-05 0.783595)
(6.16168e-05 3.0581e-05 0.507816)
(4.08328e-06 1.55296e-05 0.186496)
(1.82821e-06 -4.68574e-06 0.170742)
(2.34803e-05 -8.29379e-06 0.461739)
(6.20482e-05 -8.34141e-06 0.70919)
(0.000114103 -6.58295e-06 0.919431)
(0.000176462 -4.07814e-06 1.09802)
(0.000247097 -1.46383e-06 1.24972)
(0.000324339 9.10756e-07 1.37856)
(0.000406853 2.87999e-06 1.48794)
(0.000493549 4.38626e-06 1.58069)
(0.000583506 5.43123e-06 1.65919)
(0.00067592 6.04513e-06 1.72542)
(0.000770032 6.26891e-06 1.78105)
(0.00086507 6.14431e-06 1.82744)
(0.000960194 5.70905e-06 1.8657)
(0.00105444 4.99527e-06 1.89675)
(0.00114668 4.03e-06 1.9213)
(0.00123555 2.83697e-06 1.93989)
(0.00131946 1.43961e-06 1.95291)
(0.00139653 -1.35205e-07 1.9606)
(0.00146462 -1.85247e-06 1.96305)
(0.00152132 -3.66363e-06 1.96022)
(0.00156403 -5.50059e-06 1.95192)
(0.00159001 -7.26945e-06 1.93784)
(0.00159652 -8.8446e-06 1.91749)
(0.00158102 -1.00641e-05 1.89025)
(0.00154136 -1.07283e-05 1.85531)
(0.00147607 -1.06024e-05 1.81168)
(0.00138466 -9.42864e-06 1.75813)
(0.00126791 -6.94817e-06 1.69322)
(0.00112815 -2.94088e-06 1.61522)
(0.000969493 2.71368e-06 1.52207)
(0.000797897 9.94645e-06 1.41135)
(0.00062108 1.83731e-05 1.28017)
(0.000448227 2.71258e-05 1.12513)
(0.000289477 3.46368e-05 0.942199)
(0.000155188 3.83895e-05 0.726626)
(5.67586e-05 3.46543e-05 0.472896)
(3.80521e-06 1.79753e-05 0.174734)
(1.64165e-06 -5.12417e-06 0.155668)
(2.08836e-05 -8.80794e-06 0.417169)
(5.51675e-05 -8.66193e-06 0.63683)
(0.000101558 -6.73246e-06 0.821646)
(0.000157309 -4.14676e-06 0.977466)
(0.000220655 -1.53462e-06 1.10909)
(0.000290116 7.84465e-07 1.22042)
(0.000364484 2.67453e-06 1.31464)
(0.000442763 4.10043e-06 1.39437)
(0.000524098 5.07842e-06 1.46175)
(0.000607737 5.64675e-06 1.51854)
(0.000692966 5.84987e-06 1.5662)
(0.000779062 5.73034e-06 1.60593)
(0.000865238 5.32518e-06 1.6387)
(0.000950596 4.66498e-06 1.66529)
(0.00103409 3.77479e-06 1.68633)
(0.00111446 2.67606e-06 1.70227)
(0.00119025 1.38944e-06 1.71346)
(0.00125974 -6.15665e-08 1.72009)
(0.00132097 -1.64635e-06 1.72225)
(0.00137176 -3.32211e-06 1.71989)
(0.00140973 -5.02824e-06 1.71287)
(0.00143242 -6.6804e-06 1.7009)
(0.00143738 -8.16473e-06 1.68358)
(0.00142232 -9.33308e-06 1.66035)
(0.00138536 -1.00006e-05 1.63052)
(0.00132524 -9.94759e-06 1.59323)
(0.00124159 -8.92783e-06 1.54742)
(0.00113522 -6.68752e-06 1.49183)
(0.00100838 -2.9989e-06 1.42492)
(0.000864895 2.28572e-06 1.34489)
(0.000710263 9.15158e-06 1.24952)
(0.000551531 1.73e-05 1.13618)
(0.000396997 2.59759e-05 1.00165)
(0.000255709 3.37263e-05 0.842034)
(0.000136754 3.80847e-05 0.652523)
(4.99411e-05 3.51654e-05 0.427279)
(3.36215e-06 1.87731e-05 0.159326)
(1.36779e-06 -5.03666e-06 0.136401)
(1.74057e-05 -8.31523e-06 0.36047)
(4.61402e-05 -7.92538e-06 0.545399)
(8.52609e-05 -6.0249e-06 0.698979)
(0.000132538 -3.66367e-06 0.827264)
(0.000186501 -1.37598e-06 0.934917)
(0.000245878 5.9723e-07 1.02556)
(0.000309617 2.17103e-06 1.10202)
(0.000376837 3.33788e-06 1.16658)
(0.000446777 4.12657e-06 1.22106)
(0.000518762 4.57811e-06 1.26692)
(0.000592156 4.73434e-06 1.3054)
(0.000666312 4.63294e-06 1.33745)
(0.00074053 4.30535e-06 1.36389)
(0.000814018 3.77673e-06 1.38536)
(0.000885849 3.06701e-06 1.40235)
(0.000954931 2.19275e-06 1.41524)
(0.00101998 1.16944e-06 1.4243)
(0.0010795 1.44359e-08 1.4297)
(0.0011318 -1.24955e-06 1.4315)
(0.00117497 -2.59047e-06 1.42968)
(0.00120698 -3.96233e-06 1.42409)
(0.0012257 -5.30035e-06 1.41452)
(0.00122904 -6.51605e-06 1.40064)
(0.00121505 -7.49298e-06 1.38199)
(0.00118215 -8.08394e-06 1.35802)
(0.00112931 -8.1112e-06 1.32802)
(0.00105631 -7.37143e-06 1.29112)
(0.000963934 -5.64834e-06 1.24627)
(0.000854231 -2.73654e-06 1.19223)
(0.000730632 1.51877e-06 1.12745)
(0.000597997 7.15812e-06 1.05007)
(0.000462498 1.40077e-05 0.957794)
(0.000331327 2.15289e-05 0.847762)
(0.000212217 2.85849e-05 0.71634)
(0.000112761 3.30923e-05 0.55885)
(4.08634e-05 3.15018e-05 0.369217)
(2.70023e-06 1.74832e-05 0.139615)
(9.79465e-07 -4.23574e-06 0.111854)
(1.296e-05 -6.60562e-06 0.288946)
(3.48058e-05 -6.01861e-06 0.431397)
(6.49392e-05 -4.43179e-06 0.54772)
(0.000101694 -2.63347e-06 0.643831)
(0.00014391 -9.80607e-07 0.723915)
(0.000190558 3.93657e-07 0.79103)
(0.000240771 1.46091e-06 0.847476)
(0.000293823 2.23518e-06 0.895033)
(0.000349086 2.74871e-06 0.935106)
(0.000406003 3.03667e-06 0.968821)
(0.000464053 3.13103e-06 0.997085)
(0.000522705 3.05888e-06 1.02063)
(0.000581394 2.84192e-06 1.04006)
(0.000639476 2.49687e-06 1.05583)
(0.000696206 2.0365e-06 1.06833)
(0.000750704 1.47101e-06 1.07783)
(0.000801942 8.09592e-07 1.08452)
(0.000848727 6.2351e-08 1.08854)
(0.000889701 -7.57445e-07 1.08992)
(0.000923356 -1.63075e-06 1.08864)
(0.00094807 -2.52977e-06 1.08461)
(0.000962161 -3.41469e-06 1.07766)
(0.000963973 -4.23031e-06 1.06754)
(0.000951992 -4.90289e-06 1.05393)
(0.000924988 -5.33779e-06 1.03641)
(0.000882191 -5.41857e-06 1.01444)
(0.000823475 -5.00876e-06 0.987398)
(0.000749555 -3.95803e-06 0.954492)
(0.000662146 -2.11492e-06 0.914772)
(0.000564086 6.51151e-07 0.867077)
(0.000459358 4.41167e-06 0.80997)
(0.00035298 9.11417e-06 0.741646)
(0.000250757 1.44807e-05 0.659785)
(0.000158851 1.98232e-05 0.561313)
(8.31619e-05 2.37364e-05 0.44202)
(2.94774e-05 2.35737e-05 0.295944)
(1.76946e-06 1.38068e-05 0.114485)
(4.86191e-07 -2.6998e-06 0.0799195)
(7.6505e-06 -3.84981e-06 0.198102)
(2.13468e-05 -3.27206e-06 0.289596)
(4.07518e-05 -2.29323e-06 0.362772)
(6.47789e-05 -1.30878e-06 0.42254)
(9.26045e-05 -4.65443e-07 0.472012)
(0.000123494 2.01818e-07 0.513305)
(0.000156829 7.01535e-07 0.547947)
(0.000192097 1.05332e-06 0.577087)
(0.00022886 1.28037e-06 0.601619)
(0.000266732 1.40354e-06 0.622246)
(0.000305355 1.43978e-06 0.639535)
(0.000344369 1.40261e-06 0.653941)
(0.000383388 1.30233e-06 0.665829)
(0.000421979 1.14651e-06 0.67549)
(0.000459638 9.40692e-07 0.683152)
(0.000495772 6.8902e-07 0.688986)
(0.00052969 3.95031e-07 0.693112)
(0.00056059 6.24846e-08 0.695605)
(0.00058756 -3.0364e-07 0.696492)
(0.000609591 -6.95985e-07 0.695758)
(0.000625594 -1.10349e-06 0.693346)
(0.000634448 -1.50987e-06 0.689152)
(0.000635048 -1.89204e-06 0.683024)
(0.000626391 -2.21848e-06 0.67476)
(0.00060767 -2.44785e-06 0.6641)
(0.000578392 -2.528e-06 0.650723)
(0.000538507 -2.39588e-06 0.63423)
(0.00048854 -1.97894e-06 0.614138)
(0.000429704 -1.19906e-06 0.589853)
(0.000363979 2.06524e-08 0.560646)
(0.000294134 1.74174e-06 0.525607)
(0.000223648 3.98371e-06 0.483568)
(0.000156536 6.6802e-06 0.43299)
(9.70319e-05 9.58092e-06 0.371741)
(4.91236e-05 1.20692e-05 0.296687)
(1.64057e-05 1.27958e-05 0.202864)
(6.41718e-07 8.15607e-06 0.0817829)
(-8.04837e-08 -6.22761e-07 0.0356485)
(2.06596e-06 -7.10935e-07 0.0799799)
(6.74365e-06 -5.06554e-07 0.11217)
(1.37661e-05 -3.22965e-07 0.137306)
(2.26764e-05 -1.6496e-07 0.157635)
(3.3111e-05 -4.7043e-08 0.174383)
(4.475e-05 3.61103e-08 0.188329)
(5.73348e-05 9.46172e-08 0.200012)
(7.06558e-05 1.32819e-07 0.209832)
(8.45379e-05 1.55669e-07 0.218096)
(9.88314e-05 1.66945e-07 0.225045)
(0.000113398 1.68936e-07 0.230871)
(0.0001281 1.63383e-07 0.235728)
(0.000142791 1.51542e-07 0.239739)
(0.000157306 1.34223e-07 0.243003)
(0.000171453 1.11942e-07 0.245596)
(0.000185008 8.50262e-08 0.247577)
(0.000197706 5.36881e-08 0.248985)
(0.000209243 1.81115e-08 0.249844)
(0.000219271 -2.1445e-08 0.250166)
(0.000227406 -6.45283e-08 0.249943)
(0.000233233 -1.1035e-07 0.249156)
(0.000236325 -1.57616e-07 0.247771)
(0.000236263 -2.04327e-07 0.245734)
(0.000232664 -2.47553e-07 0.242978)
(0.000225226 -2.83205e-07 0.239415)
(0.000213767 -3.0577e-07 0.234935)
(0.000198276 -3.0802e-07 0.229403)
(0.000178969 -2.8091e-07 0.222655)
(0.000156334 -2.13549e-07 0.214489)
(0.000131159 -9.2531e-08 0.204655)
(0.000104551 9.708e-08 0.192841)
(7.79048e-05 3.68522e-07 0.178642)
(5.28412e-05 7.36301e-07 0.161512)
(3.10822e-05 1.19691e-06 0.140671)
(1.42461e-05 1.69784e-06 0.114881)
(3.67188e-06 2.13774e-06 0.0818684)
(-4.99881e-07 1.73567e-06 0.0364594)
(-3.75276e-07 1.84774e-06 0.0356436)
(4.82119e-06 2.23118e-06 0.0799691)
(1.68398e-05 1.74933e-06 0.112155)
(3.54655e-05 1.25792e-06 0.137288)
(5.96224e-05 8.33151e-07 0.157615)
(8.83456e-05 5.09792e-07 0.174361)
(0.00012076 2.77579e-07 0.188305)
(0.000156124 1.14311e-07 0.199987)
(0.000193814 4.02939e-09 0.209806)
(0.000233299 -6.75802e-08 0.21807)
(0.000274107 -1.1134e-07 0.225018)
(0.000315794 -1.34643e-07 0.230843)
(0.000357911 -1.42834e-07 0.2357)
(0.000399981 -1.39677e-07 0.239711)
(0.000441473 -1.27706e-07 0.242976)
(0.000481778 -1.08618e-07 0.24557)
(0.000520198 -8.3572e-08 0.247552)
(0.00055593 -5.34027e-08 0.248962)
(0.00058806 -1.88432e-08 0.249824)
(0.00061557 1.92484e-08 0.250149)
(0.000637353 5.96317e-08 0.24993)
(0.000652237 1.00376e-07 0.249148)
(0.000659039 1.3848e-07 0.247768)
(0.000656624 1.694e-07 0.245738)
(0.000643998 1.86479e-07 0.242989)
(0.000620417 1.80288e-07 0.239434)
(0.000585514 1.3784e-07 0.234961)
(0.000539443 4.17189e-08 0.229437)
(0.000483017 -1.30595e-07 0.222696)
(0.000417833 -4.07178e-07 0.214536)
(0.000346352 -8.22258e-07 0.204707)
(0.000271906 -1.4139e-06 0.192895)
(0.000198596 -2.21663e-06 0.178696)
(0.000131048 -3.25341e-06 0.161565)
(7.39875e-05 -4.48955e-06 0.140718)
(3.1574e-05 -5.75168e-06 0.114919)
(6.59467e-06 -6.62909e-06 0.0818955)
(-1.8517e-06 -5.00877e-06 0.0364711)
(1.04369e-06 8.48812e-06 0.0799087)
(1.96152e-05 1.29437e-05 0.198076)
(5.63788e-05 1.20327e-05 0.289558)
(0.000109616 9.65353e-06 0.362725)
(0.000176663 7.08181e-06 0.422487)
(0.000255342 4.80772e-06 0.471953)
(0.000343639 2.97218e-06 0.513241)
(0.000439779 1.56866e-06 0.547879)
(0.000542226 5.41457e-07 0.577017)
(0.000649624 -1.7777e-07 0.601546)
(0.000760734 -6.52459e-07 0.622172)
(0.000874368 -9.3551e-07 0.63946)
(0.000989312 -1.06913e-06 0.653865)
(0.00110426 -1.0858e-06 0.665753)
(0.00121777 -1.01003e-06 0.675416)
(0.00132818 -8.60377e-07 0.683081)
(0.00143358 -6.51454e-07 0.688918)
(0.0015318 -3.95958e-07 0.69305)
(0.00162036 -1.06753e-07 0.695549)
(0.00169652 2.00825e-07 0.696445)
(0.00175729 5.06376e-07 0.695723)
(0.00179951 7.81465e-07 0.693324)
(0.00182001 9.86229e-07 0.689145)
(0.00181574 1.0656e-06 0.683034)
(0.00178404 9.45367e-07 0.674789)
(0.0017229 5.28413e-07 0.66415)
(0.00163131 -3.08098e-07 0.650793)
(0.00150963 -1.71354e-06 0.634321)
(0.00135993 -3.86044e-06 0.614247)
(0.0011863 -6.93398e-06 0.589979)
(0.000995036 -1.11097e-05 0.560785)
(0.00079462 -1.65087e-05 0.525752)
(0.000595428 -2.31127e-05 0.483713)
(0.000409086 -3.06105e-05 0.433128)
(0.000247405 -3.8095e-05 0.371864)
(0.000120892 -4.35255e-05 0.296786)
(3.78256e-05 -4.26812e-05 0.202931)
(6.07569e-07 -2.53436e-05 0.0818092)
(2.40556e-06 1.40862e-05 0.111839)
(3.46871e-05 2.34121e-05 0.288908)
(9.51109e-05 2.32828e-05 0.431342)
(0.000179943 1.9654e-05 0.547651)
(0.000284967 1.50509e-05 0.64375)
(0.000407085 1.06355e-05 0.723826)
(0.000543464 6.86881e-06 0.790933)
(0.0006916 3.86686e-06 0.847373)
(0.000849293 1.59452e-06 0.894925)
(0.00101457 -4.37296e-08 0.934995)
(0.00118559 -1.15628e-06 0.968707)
(0.00136057 -1.84375e-06 0.996969)
(0.00153768 -2.19194e-06 1.02052)
(0.00171491 -2.27038e-06 1.03994)
(0.00189005 -2.13395e-06 1.05572)
(0.00206055 -1.82612e-06 1.06822)
(0.00222349 -1.38275e-06 1.07772)