/*--------------------------------*- C++ -*----------------------------------*\
  =========                 |
  \\      /  F ield         | OpenFOAM: The Open Source CFD Toolbox
   \\    /   O peration     | Website:  https://openfoam.org
    \\  /    A nd           | Version:  6
     \\/     M anipulation  |
\*---------------------------------------------------------------------------*/
FoamFile
{
    version     2.0;
    format      ascii;
    class       volScalarField;
    location    "0.335";
    object      T;
}
// * * * * * * * * * * * * * * * * * * * * * * * * * * * * * * * * * * * * * //

dimensions      [0 0 0 1 0 0 0];

internalField   nonuniform List<scalar> 
7000
(
104.615
104.614
104.612
104.609
104.605
104.601
104.596
104.592
104.589
104.588
104.615
104.614
104.612
104.609
104.605
104.601
104.596
104.592
104.589
104.588
104.615
104.614
104.612
104.609
104.605
104.601
104.596
104.592
104.589
104.588
104.615
104.614
104.612
104.609
104.605
104.601
104.596
104.592
104.589
104.588
104.615
104.614
104.612
104.609
104.605
104.601
104.596
104.592
104.589
104.588
104.615
104.614
104.612
104.609
104.605
104.601
104.596
104.592
104.589
104.588
104.615
104.614
104.612
104.609
104.605
104.601
104.596
104.592
104.589
104.588
104.615
104.614
104.612
104.609
104.605
104.601
104.596
104.592
104.589
104.588
104.615
104.614
104.612
104.609
104.605
104.601
104.596
104.592
104.589
104.588
104.615
104.614
104.612
104.609
104.605
104.601
104.596
104.592
104.589
104.588
93.925
93.9216
93.915
93.9054
93.8934
93.8799
93.8659
93.8531
93.8433
93.838
93.925
93.9216
93.915
93.9054
93.8934
93.8798
93.8659
93.8531
93.8433
93.8379
93.9249
93.9215
93.9149
93.9054
93.8934
93.8798
93.8658
93.8531
93.8433
93.8379
93.9249
93.9215
93.9149
93.9053
93.8933
93.8798
93.8658
93.8531
93.8432
93.8379
93.9249
93.9215
93.9149
93.9053
93.8933
93.8798
93.8658
93.8531
93.8432
93.8379
93.9249
93.9215
93.9149
93.9053
93.8933
93.8798
93.8658
93.8531
93.8432
93.8379
93.9249
93.9215
93.9149
93.9053
93.8933
93.8798
93.8658
93.8531
93.8432
93.8379
93.9249
93.9215
93.9149
93.9053
93.8934
93.8798
93.8658
93.8531
93.8433
93.8379
93.9249
93.9215
93.9149
93.9054
93.8934
93.8798
93.8658
93.8531
93.8433
93.8379
93.9249
93.9216
93.915
93.9054
93.8934
93.8798
93.8659
93.8531
93.8433
93.8379
83.4711
83.4651
83.4532
83.4359
83.4141
83.389
83.363
83.339
83.3203
83.31
83.471
83.465
83.4531
83.4359
83.414
83.389
83.363
83.3389
83.3202
83.3099
83.471
83.4649
83.4531
83.4358
83.414
83.3889
83.3629
83.3389
83.3202
83.3099
83.471
83.4649
83.453
83.4358
83.4139
83.3889
83.3629
83.3389
83.3202
83.3099
83.4709
83.4649
83.453
83.4358
83.4139
83.3889
83.3629
83.3389
83.3201
83.3098
83.4709
83.4649
83.453
83.4358
83.4139
83.3889
83.3629
83.3389
83.3201
83.3098
83.4709
83.4649
83.453
83.4358
83.4139
83.3889
83.3629
83.3389
83.3202
83.3099
83.471
83.4649
83.4531
83.4358
83.4139
83.3889
83.3629
83.3389
83.3202
83.3099
83.471
83.4649
83.4531
83.4358
83.414
83.389
83.363
83.3389
83.3202
83.3099
83.471
83.465
83.4531
83.4359
83.414
83.389
83.363
83.339
83.3203
83.31
73.3993
73.39
73.3716
73.3446
73.31
73.2698
73.2272
73.1871
73.1553
73.1375
73.3992
73.3899
73.3716
73.3446
73.3099
73.2697
73.2271
73.187
73.1552
73.1375
73.3992
73.3899
73.3715
73.3445
73.3099
73.2696
73.2271
73.187
73.1552
73.1374
73.3991
73.3898
73.3715
73.3445
73.3098
73.2696
73.227
73.1869
73.1551
73.1374
73.3991
73.3898
73.3714
73.3444
73.3098
73.2696
73.227
73.1869
73.1551
73.1374
73.3991
73.3898
73.3714
73.3444
73.3098
73.2696
73.227
73.1869
73.1551
73.1374
73.3991
73.3898
73.3714
73.3444
73.3098
73.2696
73.227
73.1869
73.1551
73.1374
73.3992
73.3898
73.3715
73.3445
73.3099
73.2696
73.2271
73.187
73.1552
73.1375
73.3992
73.3899
73.3715
73.3445
73.3099
73.2697
73.2271
73.187
73.1552
73.1375
73.3992
73.3899
73.3716
73.3446
73.31
73.2698
73.2272
73.1871
73.1553
73.1376
63.8393
63.826
63.7994
63.7599
63.7083
63.6471
63.5808
63.5166
63.4643
63.4345
63.8392
63.8259
63.7993
63.7598
63.7082
63.647
63.5807
63.5165
63.4642
63.4344
63.8392
63.8258
63.7992
63.7597
63.7082
63.647
63.5806
63.5164
63.4642
63.4344
63.8391
63.8258
63.7992
63.7596
63.7081
63.6469
63.5806
63.5164
63.4641
63.4343
63.8391
63.8257
63.7992
63.7596
63.7081
63.6469
63.5806
63.5164
63.4641
63.4343
63.8391
63.8257
63.7992
63.7596
63.7081
63.6469
63.5806
63.5164
63.4641
63.4343
63.8391
63.8257
63.7992
63.7596
63.7081
63.6469
63.5806
63.5164
63.4641
63.4344
63.8391
63.8258
63.7992
63.7597
63.7081
63.647
63.5806
63.5164
63.4642
63.4344
63.8392
63.8258
63.7993
63.7597
63.7082
63.647
63.5807
63.5165
63.4642
63.4345
63.8392
63.8259
63.7993
63.7598
63.7083
63.6471
63.5808
63.5166
63.4643
63.4345
54.8997
54.8814
54.8447
54.7892
54.7153
54.6253
54.5245
54.4232
54.3375
54.287
54.8996
54.8813
54.8446
54.7891
54.7152
54.6252
54.5244
54.4231
54.3374
54.2869
54.8995
54.8812
54.8445
54.789
54.7152
54.6251
54.5243
54.4231
54.3374
54.2869
54.8995
54.8812
54.8444
54.7889
54.7151
54.6251
54.5243
54.423
54.3373
54.2868
54.8994
54.8811
54.8444
54.7889
54.7151
54.6251
54.5243
54.423
54.3373
54.2868
54.8994
54.8811
54.8444
54.7889
54.7151
54.6251
54.5243
54.423
54.3373
54.2868
54.8995
54.8812
54.8444
54.7889
54.7151
54.6251
54.5243
54.423
54.3374
54.2868
54.8995
54.8812
54.8445
54.789
54.7151
54.6251
54.5243
54.4231
54.3374
54.2869
54.8995
54.8813
54.8445
54.789
54.7152
54.6252
54.5244
54.4232
54.3375
54.287
54.8996
54.8814
54.8446
54.7891
54.7153
54.6253
54.5245
54.4232
54.3376
54.2871
46.6648
46.6407
46.5918
46.5167
46.4144
46.2855
46.1353
45.9766
45.8345
45.7459
46.6646
46.6406
46.5917
46.5166
46.4143
46.2854
46.1352
45.9765
45.8344
45.7458
46.6646
46.6405
46.5916
46.5165
46.4142
46.2854
46.1351
45.9764
45.8343
45.7457
46.6645
46.6404
46.5915
46.5165
46.4141
46.2853
46.135
45.9764
45.8343
45.7457
46.6645
46.6404
46.5915
46.5164
46.4141
46.2853
46.135
45.9764
45.8343
45.7457
46.6645
46.6404
46.5915
46.5164
46.4141
46.2853
46.135
45.9764
45.8343
45.7457
46.6645
46.6404
46.5915
46.5165
46.4142
46.2853
46.135
45.9764
45.8343
45.7457
46.6645
46.6405
46.5916
46.5165
46.4142
46.2854
46.1351
45.9764
45.8344
45.7458
46.6646
46.6405
46.5917
46.5166
46.4143
46.2854
46.1352
45.9765
45.8344
45.7459
46.6647
46.6406
46.5918
46.5167
46.4144
46.2856
46.1353
45.9766
45.8346
45.746
39.1927
39.1623
39.0998
39.0022
38.8654
38.6868
38.4677
38.2208
37.9806
37.8159
39.1926
39.1622
39.0997
39.0021
38.8653
38.6867
38.4676
38.2207
37.9805
37.8158
39.1925
39.1621
39.0996
39.002
38.8653
38.6866
38.4675
38.2206
37.9804
37.8158
39.1925
39.162
39.0996
39.0019
38.8652
38.6865
38.4675
38.2205
37.9804
37.8157
39.1924
39.162
39.0996
39.0019
38.8652
38.6865
38.4675
38.2205
37.9804
37.8157
39.1924
39.162
39.0996
39.0019
38.8652
38.6865
38.4675
38.2205
37.9804
37.8157
39.1925
39.162
39.0996
39.0019
38.8652
38.6866
38.4675
38.2206
37.9804
37.8158
39.1925
39.1621
39.0996
39.002
38.8653
38.6866
38.4675
38.2206
37.9805
37.8158
39.1926
39.1621
39.0997
39.0021
38.8653
38.6867
38.4676
38.2207
37.9806
37.8159
39.1926
39.1622
39.0998
39.0022
38.8655
38.6868
38.4677
38.2208
37.9807
37.816
32.5157
32.4789
32.4026
32.2812
32.1066
31.8691
31.5606
31.1827
30.769
30.4349
32.5155
32.4788
32.4025
32.2811
32.1065
31.869
31.5605
31.1826
30.7689
30.4349
32.5155
32.4787
32.4024
32.281
32.1064
31.8689
31.5604
31.1825
30.7689
30.4348
32.5154
32.4786
32.4024
32.281
32.1063
31.8689
31.5603
31.1825
30.7688
30.4348
32.5154
32.4786
32.4023
32.281
32.1063
31.8688
31.5603
31.1825
30.7688
30.4347
32.5154
32.4786
32.4024
32.281
32.1063
31.8688
31.5603
31.1825
30.7688
30.4348
32.5154
32.4786
32.4024
32.281
32.1064
31.8689
31.5604
31.1825
30.7688
30.4348
32.5155
32.4787
32.4024
32.281
32.1064
31.8689
31.5604
31.1826
30.7689
30.4348
32.5155
32.4788
32.4025
32.2811
32.1065
31.869
31.5605
31.1827
30.769
30.4349
32.5156
32.4789
32.4026
32.2812
32.1066
31.8691
31.5606
31.1828
30.7691
30.435
26.6405
26.5983
26.5098
26.3669
26.1563
25.859
25.4492
24.8964
24.184
23.4194
26.6404
26.5982
26.5097
26.3668
26.1562
25.8589
25.4491
24.8963
24.1839
23.4194
26.6403
26.5981
26.5097
26.3668
26.1562
25.8588
25.449
24.8962
24.1839
23.4193
26.6403
26.598
26.5096
26.3667
26.1561
25.8588
25.449
24.8962
24.1838
23.4193
26.6403
26.598
26.5096
26.3667
26.1561
25.8587
25.4489
24.8961
24.1838
23.4193
26.6403
26.598
26.5096
26.3667
26.1561
25.8588
25.4489
24.8962
24.1838
23.4193
26.6403
26.598
26.5096
26.3667
26.1561
25.8588
25.449
24.8962
24.1838
23.4193
26.6403
26.5981
26.5097
26.3668
26.1562
25.8588
25.449
24.8962
24.1839
23.4194
26.6404
26.5982
26.5097
26.3669
26.1563
25.8589
25.4491
24.8963
24.184
23.4194
26.6405
26.5983
26.5099
26.367
26.1564
25.859
25.4492
24.8964
24.1841
23.4195
21.5513
21.5053
21.4086
21.2508
21.0145
20.6723
20.1793
19.4546
18.3224
16.2989
21.5512
21.5052
21.4085
21.2507
21.0144
20.6722
20.1792
19.4545
18.3223
16.2988
21.5511
21.5052
21.4084
21.2506
21.0143
20.6721
20.1792
19.4544
18.3223
16.2988
21.5511
21.5051
21.4084
21.2505
21.0143
20.6721
20.1791
19.4544
18.3222
16.2987
21.5511
21.5051
21.4084
21.2505
21.0142
20.6721
20.1791
19.4544
18.3222
16.2987
21.5511
21.5051
21.4084
21.2505
21.0143
20.6721
20.1791
19.4544
18.3222
16.2987
21.5511
21.5051
21.4084
21.2506
21.0143
20.6721
20.1792
19.4544
18.3223
16.2988
21.5511
21.5052
21.4084
21.2506
21.0143
20.6721
20.1792
19.4545
18.3223
16.2988
21.5512
21.5052
21.4085
21.2507
21.0144
20.6722
20.1793
19.4546
18.3224
16.2989
21.5513
21.5053
21.4086
21.2508
21.0145
20.6723
20.1794
19.4547
18.3225
16.299
17.212
17.1648
17.0653
16.9026
16.6586
16.3045
15.7955
15.0583
13.9713
12.3477
17.2119
17.1647
17.0652
16.9025
16.6585
16.3045
15.7954
15.0583
13.9712
12.3476
17.2119
17.1646
17.0651
16.9025
16.6584
16.3044
15.7954
15.0582
13.9712
12.3476
17.2118
17.1646
17.0651
16.9024
16.6584
16.3044
15.7953
15.0582
13.9711
12.3476
17.2118
17.1646
17.0651
16.9024
16.6584
16.3043
15.7953
15.0582
13.9711
12.3475
17.2118
17.1646
17.0651
16.9024
16.6584
16.3043
15.7953
15.0582
13.9711
12.3476
17.2118
17.1646
17.0651
16.9024
16.6584
16.3044
15.7954
15.0582
13.9712
12.3476
17.2119
17.1646
17.0651
16.9025
16.6585
16.3044
15.7954
15.0582
13.9712
12.3476
17.2119
17.1647
17.0652
16.9026
16.6585
16.3045
15.7955
15.0583
13.9713
12.3477
17.212
17.1648
17.0653
16.9027
16.6586
16.3046
15.7956
15.0584
13.9714
12.3478
13.5704
13.5245
13.4282
13.2715
13.0384
12.7054
12.2389
11.5945
10.7207
9.58959
13.5703
13.5244
13.4281
13.2714
13.0383
12.7053
12.2389
11.5945
10.7207
9.58952
13.5702
13.5244
13.428
13.2713
13.0383
12.7052
12.2388
11.5944
10.7206
9.58947
13.5702
13.5243
13.428
13.2713
13.0382
12.7052
12.2388
11.5944
10.7206
9.58945
13.5702
13.5243
13.428
13.2713
13.0382
12.7052
12.2388
11.5944
10.7206
9.58943
13.5702
13.5243
13.428
13.2713
13.0382
12.7052
12.2388
11.5944
10.7206
9.58944
13.5702
13.5243
13.428
13.2713
13.0383
12.7052
12.2388
11.5944
10.7206
9.58946
13.5702
13.5244
13.428
13.2714
13.0383
12.7053
12.2389
11.5944
10.7206
9.58951
13.5703
13.5244
13.4281
13.2714
13.0384
12.7053
12.2389
11.5945
10.7207
9.58957
13.5704
13.5245
13.4282
13.2715
13.0385
12.7054
12.239
11.5946
10.7208
9.58964
10.5621
10.5199
10.4317
10.2896
10.0816
9.79114
9.39829
8.88287
8.23447
7.47666
10.562
10.5198
10.4316
10.2896
10.0815
9.79108
9.39823
8.88281
8.23441
7.4766
10.5619
10.5197
10.4316
10.2895
10.0815
9.79103
9.39819
8.88277
8.23436
7.47656
10.5619
10.5197
10.4315
10.2895
10.0815
9.791
9.39816
8.88274
8.23434
7.47653
10.5619
10.5197
10.4315
10.2895
10.0814
9.79099
9.39815
8.88273
8.23433
7.47652
10.5619
10.5197
10.4315
10.2895
10.0815
9.791
9.39815
8.88274
8.23433
7.47653
10.5619
10.5197
10.4315
10.2895
10.0815
9.79102
9.39818
8.88276
8.23436
7.47655
10.5619
10.5198
10.4316
10.2896
10.0815
9.79107
9.39822
8.8828
8.2344
7.47659
10.562
10.5198
10.4316
10.2896
10.0816
9.79113
9.39828
8.88286
8.23445
7.47664
10.5621
10.5199
10.4317
10.2897
10.0817
9.79121
9.39836
8.88294
8.23453
7.47671
8.11548
8.07852
8.0018
7.87974
7.70425
7.46561
7.1544
6.76562
6.30681
5.8113
8.11542
8.07846
8.00175
7.87968
7.70419
7.46556
7.15435
6.76557
6.30676
5.81124
8.11538
8.07841
8.0017
7.87964
7.70415
7.46552
7.15431
6.76553
6.30672
5.81121
8.11535
8.07839
8.00168
7.87961
7.70412
7.46549
7.15429
6.7655
6.3067
5.81118
8.11534
8.07837
8.00167
7.8796
7.70411
7.46549
7.15428
6.7655
6.30669
5.81118
8.11534
8.07838
8.00167
7.87961
7.70412
7.46549
7.15428
6.7655
6.3067
5.81118
8.11536
8.0784
8.00169
7.87963
7.70414
7.46551
7.15431
6.76552
6.30672
5.8112
8.1154
8.07843
8.00173
7.87967
7.70418
7.46555
7.15434
6.76556
6.30675
5.81124
8.11544
8.07848
8.00178
7.87972
7.70423
7.4656
7.15439
6.76561
6.3068
5.81128
8.1155
8.07855
8.00185
7.87979
7.7043
7.46567
7.15446
6.76568
6.30687
5.81135
6.15617
6.12519
6.0614
5.96129
5.82022
5.63361
5.39896
5.11927
4.80814
4.49585
6.15612
6.12514
6.06135
5.96124
5.82017
5.63357
5.39891
5.11922
4.8081
4.4958
6.15608
6.1251
6.06132
5.96121
5.82014
5.63353
5.39888
5.11919
4.80807
4.49577
6.15606
6.12508
6.0613
5.96118
5.82012
5.63351
5.39886
5.11917
4.80805
4.49575
6.15605
6.12507
6.06129
5.96118
5.82011
5.63351
5.39886
5.11917
4.80804
4.49574
6.15605
6.12507
6.06129
5.96118
5.82012
5.63351
5.39886
5.11917
4.80805
4.49575
6.15607
6.12509
6.06131
5.9612
5.82013
5.63353
5.39888
5.11919
4.80807
4.49576
6.1561
6.12512
6.06134
5.96123
5.82017
5.63356
5.39891
5.11922
4.8081
4.49579
6.15614
6.12516
6.06139
5.96128
5.82021
5.63361
5.39896
5.11927
4.80814
4.49584
6.15619
6.12522
6.06145
5.96134
5.82027
5.63367
5.39902
5.11932
4.8082
4.49589
4.61065
4.5857
4.53479
4.45602
4.34737
4.20774
4.0388
3.84742
3.64856
3.4673
4.6106
4.58566
4.53475
4.45598
4.34733
4.2077
4.03876
3.84738
3.64852
3.46726
4.61057
4.58563
4.53472
4.45595
4.3473
4.20767
4.03873
3.84735
3.6485
3.46724
4.61055
4.58561
4.5347
4.45593
4.34728
4.20766
4.03871
3.84733
3.64848
3.46722
4.61055
4.5856
4.53469
4.45593
4.34727
4.20765
4.03871
3.84733
3.64847
3.46721
4.61055
4.58561
4.5347
4.45593
4.34728
4.20766
4.03871
3.84733
3.64848
3.46722
4.61057
4.58562
4.53471
4.45595
4.3473
4.20767
4.03873
3.84735
3.64849
3.46723
4.61059
4.58565
4.53474
4.45598
4.34732
4.2077
4.03876
3.84738
3.64852
3.46726
4.61062
4.58569
4.53478
4.45602
4.34736
4.20774
4.0388
3.84742
3.64856
3.4673
4.61066
4.58573
4.53483
4.45607
4.34741
4.20779
4.03885
3.84746
3.64861
3.46734
3.40951
3.39015
3.35099
3.29132
3.21086
3.11072
2.99495
2.87246
2.75889
2.67678
3.40948
3.39012
3.35096
3.29129
3.21082
3.11069
2.99492
2.87243
2.75886
2.67675
3.40945
3.3901
3.35093
3.29127
3.2108
3.11066
2.9949
2.87241
2.75883
2.67673
3.40944
3.39008
3.35092
3.29125
3.21079
3.11065
2.99489
2.87239
2.75882
2.67671
3.40943
3.39008
3.35091
3.29125
3.21078
3.11065
2.99488
2.87239
2.75882
2.67671
3.40944
3.39008
3.35092
3.29125
3.21079
3.11065
2.99489
2.8724
2.75882
2.67671
3.40945
3.39009
3.35093
3.29126
3.2108
3.11067
2.9949
2.87241
2.75884
2.67673
3.40947
3.39011
3.35095
3.29129
3.21083
3.11069
2.99492
2.87243
2.75886
2.67675
3.4095
3.39014
3.35098
3.29132
3.21086
3.11072
2.99496
2.87246
2.75889
2.67678
3.40953
3.39018
3.35103
3.29136
3.2109
3.11076
2.995
2.8725
2.75893
2.67682
2.48957
2.47504
2.44591
2.40224
2.34477
2.27582
2.20065
2.12939
2.07965
2.07887
2.48955
2.47501
2.44589
2.40221
2.34474
2.27579
2.20063
2.12936
2.07962
2.07884
2.48953
2.475
2.44587
2.4022
2.34472
2.27578
2.20061
2.12935
2.0796
2.07882
2.48952
2.47498
2.44586
2.40219
2.34471
2.27577
2.2006
2.12934
2.07959
2.07881
2.48951
2.47498
2.44585
2.40218
2.34471
2.27576
2.20059
2.12933
2.07959
2.07881
2.48951
2.47498
2.44586
2.40219
2.34471
2.27577
2.2006
2.12934
2.07959
2.07881
2.48953
2.47499
2.44587
2.4022
2.34473
2.27578
2.20061
2.12935
2.07961
2.07882
2.48954
2.47501
2.44589
2.40222
2.34474
2.2758
2.20063
2.12937
2.07962
2.07884
2.48957
2.47504
2.44591
2.40224
2.34477
2.27582
2.20066
2.12939
2.07965
2.07887
2.48959
2.47507
2.44595
2.40228
2.34481
2.27586
2.20069
2.12943
2.07968
2.0789
1.79506
1.78448
1.76345
1.73243
1.69262
1.64667
1.59989
1.56213
1.5524
1.6129
1.79504
1.78446
1.76343
1.73241
1.6926
1.64665
1.59987
1.56211
1.55238
1.61287
1.79503
1.78444
1.76342
1.7324
1.69258
1.64664
1.59985
1.5621
1.55236
1.61286
1.79502
1.78443
1.76341
1.73239
1.69257
1.64663
1.59984
1.56209
1.55236
1.61285
1.79501
1.78443
1.7634
1.73239
1.69257
1.64663
1.59984
1.56209
1.55235
1.61285
1.79502
1.78443
1.76341
1.73239
1.69257
1.64663
1.59985
1.56209
1.55236
1.61285
1.79503
1.78444
1.76342
1.7324
1.69258
1.64664
1.59986
1.5621
1.55237
1.61286
1.79504
1.78445
1.76343
1.73241
1.6926
1.64666
1.59987
1.56212
1.55238
1.61288
1.79506
1.78447
1.76345
1.73244
1.69262
1.64668
1.59989
1.56214
1.5524
1.6129
1.79508
1.7845
1.76348
1.73246
1.69265
1.64671
1.59992
1.56216
1.55243
1.61293
11.7003
9.2781
8.2049
8.1875
9.17053
11.2514
14.676
19.8942
27.7157
39.7258
11.7003
9.27802
8.20481
8.18741
9.17042
11.2512
14.6758
19.8941
27.7155
39.7255
11.7002
9.27797
8.20476
8.18734
9.17035
11.2512
14.6757
19.8939
27.7153
39.7253
11.7002
9.27793
8.20472
8.1873
9.1703
11.2511
14.6757
19.8939
27.7152
39.7252
11.7002
9.27791
8.2047
8.18728
9.17027
11.2511
14.6756
19.8938
27.7152
39.7252
11.7002
9.27792
8.2047
8.18728
9.17027
11.2511
14.6756
19.8938
27.7152
39.7251
11.7002
9.27794
8.20472
8.18729
9.17029
11.2511
14.6756
19.8938
27.7152
39.7252
11.7002
9.27798
8.20475
8.18733
9.17033
11.2511
14.6757
19.8939
27.7153
39.7253
11.7003
9.27803
8.2048
8.18738
9.17038
11.2512
14.6758
19.894
27.7154
39.7254
11.7004
9.27809
8.20486
8.18744
9.17045
11.2513
14.6759
19.8941
27.7155
39.7256
10.0743
8.46582
7.69939
7.77841
8.73442
10.6715
13.7832
18.3679
24.8253
33.5301
10.0742
8.46574
7.69931
7.77833
8.73432
10.6714
13.7831
18.3677
24.8251
33.5299
10.0742
8.46569
7.69925
7.77826
8.73425
10.6713
13.783
18.3676
24.8249
33.5297
10.0741
8.46565
7.69922
7.77822
8.7342
10.6712
13.7829
18.3675
24.8249
33.5296
10.0741
8.46564
7.6992
7.7782
8.73418
10.6712
13.7829
18.3675
24.8248
33.5296
10.0741
8.46564
7.6992
7.7782
8.73417
10.6712
13.7829
18.3674
24.8248
33.5296
10.0742
8.46566
7.69922
7.77822
8.73419
10.6712
13.7829
18.3675
24.8248
33.5296
10.0742
8.4657
7.69926
7.77826
8.73423
10.6712
13.783
18.3675
24.8249
33.5297
10.0743
8.46576
7.69931
7.77831
8.7343
10.6713
13.783
18.3676
24.825
33.5299
10.0743
8.46583
7.69938
7.77839
8.73438
10.6714
13.7832
18.3678
24.8252
33.53
8.30535
7.32842
6.88191
7.06702
7.96037
9.6579
12.2884
16.003
20.9207
26.9694
8.30529
7.32835
6.88184
7.06694
7.96028
9.6578
12.2883
16.0029
20.9205
26.9692
8.30524
7.3283
6.88178
7.06688
7.96021
9.65772
12.2882
16.0028
20.9204
26.969
8.30521
7.32827
6.88175
7.06684
7.96016
9.65766
12.2881
16.0027
20.9203
26.969
8.30519
7.32825
6.88173
7.06682
7.96014
9.65764
12.2881
16.0027
20.9202
26.9689
8.3052
7.32826
6.88173
7.06682
7.96014
9.65763
12.2881
16.0027
20.9202
26.9689
8.30522
7.32828
6.88175
7.06684
7.96016
9.65766
12.2881
16.0027
20.9203
26.969
8.30526
7.32832
6.88179
7.06688
7.9602
9.6577
12.2882
16.0028
20.9204
26.969
8.30532
7.32837
6.88184
7.06693
7.96027
9.65777
12.2883
16.0029
20.9205
26.9692
8.30539
7.32844
6.88192
7.06701
7.96035
9.65787
12.2884
16.003
20.9206
26.9694
6.71085
6.14422
5.93589
6.19115
6.99052
8.41023
10.5261
13.3966
17.0165
21.2284
6.71079
6.14415
5.93582
6.19108
6.99043
8.41013
10.5259
13.3964
17.0163
21.2282
6.71075
6.14411
5.93577
6.19102
6.99037
8.41006
10.5259
13.3963
17.0162
21.2281
6.71072
6.14408
5.93574
6.19099
6.99033
8.41001
10.5258
13.3963
17.0161
21.228
6.71071
6.14407
5.93573
6.19097
6.99031
8.40999
10.5258
13.3962
17.0161
21.228
6.71072
6.14407
5.93573
6.19097
6.99031
8.40999
10.5258
13.3962
17.0161
21.228
6.71074
6.14409
5.93575
6.19099
6.99033
8.41001
10.5258
13.3963
17.0161
21.228
6.71077
6.14413
5.93579
6.19103
6.99037
8.41005
10.5259
13.3963
17.0162
21.2281
6.71082
6.14418
5.93584
6.19108
6.99043
8.41012
10.5259
13.3964
17.0163
21.2283
6.71089
6.14425
5.93591
6.19116
6.99051
8.41022
10.526
13.3966
17.0165
21.2284
5.3529
5.0441
4.98997
5.27407
5.96264
7.1099
8.75576
10.9118
13.5337
16.4833
5.35285
5.04404
4.98991
5.274
5.96256
7.10981
8.75566
10.9117
13.5335
16.4832
5.35281
5.044
4.98987
5.27395
5.9625
7.10975
8.75559
10.9116
13.5334
16.4831
5.35279
5.04397
4.98984
5.27392
5.96247
7.10971
8.75554
10.9116
13.5334
16.483
5.35278
5.04396
4.98983
5.2739
5.96245
7.10969
8.75552
10.9116
13.5333
16.483
5.35278
5.04397
4.98983
5.27391
5.96245
7.10969
8.75552
10.9116
13.5334
16.483
5.3528
5.04398
4.98985
5.27392
5.96247
7.10971
8.75554
10.9116
13.5334
16.483
5.35284
5.04402
4.98988
5.27396
5.96251
7.10975
8.75559
10.9116
13.5335
16.4831
5.35288
5.04406
4.98993
5.27401
5.96257
7.10982
8.75567
10.9117
13.5336
16.4832
5.35295
5.04413
4.98999
5.27408
5.96264
7.1099
8.75577
10.9118
13.5337
16.4834
4.23314
4.08694
4.12561
4.40921
4.98631
5.89235
7.14518
8.73572
10.6144
12.6796
4.23309
4.0869
4.12556
4.40915
4.98624
5.89227
7.14509
8.73562
10.6143
12.6795
4.23306
4.08686
4.12552
4.4091
4.98619
5.89222
7.14503
8.73554
10.6142
12.6794
4.23304
4.08684
4.12549
4.40907
4.98616
5.89218
7.14499
8.7355
10.6142
12.6793
4.23303
4.08683
4.12548
4.40906
4.98614
5.89216
7.14497
8.73547
10.6142
12.6793
4.23303
4.08683
4.12549
4.40906
4.98615
5.89216
7.14497
8.73548
10.6142
12.6793
4.23305
4.08685
4.1255
4.40908
4.98616
5.89218
7.145
8.73551
10.6142
12.6793
4.23308
4.08688
4.12553
4.40911
4.9862
5.89222
7.14504
8.73556
10.6143
12.6794
4.23312
4.08692
4.12558
4.40916
4.98625
5.89228
7.14511
8.73563
10.6144
12.6795
4.23318
4.08698
4.12564
4.40922
4.98632
5.89236
7.1452
8.73574
10.6145
12.6797
3.33772
3.29808
3.39184
3.66067
4.13847
4.84683
5.79038
6.95107
8.28314
9.71345
3.33768
3.29804
3.39179
3.66062
4.13841
4.84677
5.79031
6.95098
8.28304
9.71335
3.33765
3.29801
3.39176
3.66058
4.13837
4.84672
5.79025
6.95092
8.28297
9.71327
3.33764
3.29799
3.39173
3.66056
4.13834
4.84669
5.79021
6.95088
8.28293
9.71322
3.33763
3.29798
3.39173
3.66055
4.13833
4.84667
5.7902
6.95086
8.28291
9.7132
3.33763
3.29799
3.39173
3.66055
4.13833
4.84668
5.7902
6.95087
8.28291
9.71321
3.33765
3.298
3.39174
3.66057
4.13835
4.8467
5.79022
6.95089
8.28294
9.71324
3.33768
3.29803
3.39177
3.6606
4.13838
4.84673
5.79026
6.95094
8.283
9.7133
3.33771
3.29807
3.39181
3.66064
4.13843
4.84678
5.79033
6.95101
8.28308
9.71339
3.33776
3.29812
3.39186
3.6607
4.13849
4.84685
5.7904
6.9511
8.28318
9.71351
2.64989
2.68786
2.81755
3.06966
3.46877
4.0275
4.74213
5.58885
6.5225
7.48303
2.64985
2.68782
2.8175
3.06961
3.46871
4.02744
4.74206
5.58877
6.52242
7.48294
2.64983
2.68779
2.81747
3.06958
3.46868
4.0274
4.74201
5.58872
6.52236
7.48288
2.64981
2.68777
2.81746
3.06956
3.46865
4.02737
4.74198
5.58869
6.52232
7.48284
2.64981
2.68777
2.81745
3.06955
3.46864
4.02736
4.74197
5.58867
6.5223
7.48282
2.64981
2.68777
2.81745
3.06955
3.46865
4.02736
4.74197
5.58868
6.52231
7.48283
2.64982
2.68779
2.81747
3.06956
3.46866
4.02738
4.742
5.5887
6.52234
7.48286
2.64985
2.68781
2.81749
3.06959
3.46869
4.02741
4.74203
5.58874
6.52238
7.48291
2.64988
2.68784
2.81753
3.06963
3.46874
4.02746
4.74209
5.5888
6.52245
7.48299
2.64992
2.68789
2.81757
3.06968
3.46879
4.02752
4.74216
5.58888
6.52254
7.48309
2.15695
2.26291
2.42097
2.66189
3.00754
3.46591
4.02758
4.66213
5.31551
5.91444
2.15692
2.26288
2.42093
2.66185
3.0075
3.46585
4.02752
4.66207
5.31544
5.91437
2.1569
2.26285
2.4209
2.66182
3.00746
3.46582
4.02748
4.66203
5.31539
5.91431
2.15689
2.26284
2.42089
2.6618
3.00744
3.46579
4.02746
4.662
5.31536
5.91428
2.15688
2.26283
2.42088
2.66179
3.00743
3.46579
4.02745
4.66198
5.31535
5.91427
2.15689
2.26284
2.42089
2.6618
3.00744
3.46579
4.02745
4.66199
5.31535
5.91427
2.1569
2.26285
2.4209
2.66181
3.00745
3.46581
4.02747
4.66201
5.31538
5.9143
2.15692
2.26287
2.42092
2.66184
3.00748
3.46584
4.02751
4.66205
5.31542
5.91435
2.15695
2.2629
2.42095
2.66187
3.00752
3.46588
4.02755
4.66211
5.31548
5.91442
2.15699
2.26294
2.421
2.66192
3.00757
3.46594
4.02762
4.66218
5.31556
5.9145
1.86562
2.03647
2.2165
2.45353
2.77259
3.18043
3.66431
4.18712
4.67757
5.00753
1.86559
2.03645
2.21647
2.4535
2.77256
3.1804
3.66427
4.18707
4.67752
5.00748
1.86558
2.03643
2.21645
2.45348
2.77253
3.18036
3.66423
4.18704
4.67748
5.00743
1.86557
2.03641
2.21643
2.45346
2.77251
3.18034
3.66421
4.18701
4.67745
5.0074
1.86556
2.03641
2.21643
2.45345
2.7725
3.18033
3.6642
4.187
4.67744
5.00739
1.86557
2.03641
2.21643
2.45346
2.77251
3.18034
3.66421
4.187
4.67744
5.0074
1.86558
2.03642
2.21644
2.45347
2.77252
3.18036
3.66423
4.18703
4.67747
5.00742
1.8656
2.03644
2.21647
2.4535
2.77255
3.18039
3.66426
4.18706
4.67751
5.00747
1.86562
2.03647
2.2165
2.45353
2.77259
3.18043
3.66431
4.18711
4.67756
5.00753
1.86565
2.03651
2.21654
2.45358
2.77263
3.18048
3.66437
4.18718
4.67764
5.00761
59.5108
68.3049
73.2387
76.384
78.5068
79.967
80.9664
81.6288
82.0323
82.2232
59.5105
68.3045
73.2384
76.3836
78.5064
79.9666
80.966
81.6284
82.0319
82.2229
59.5103
68.3043
73.2381
76.3834
78.5061
79.9664
80.9657
81.6281
82.0316
82.2226
59.5101
68.3041
73.2379
76.3832
78.5059
79.9662
80.9656
81.628
82.0315
82.2225
59.5101
68.3041
73.2379
76.3831
78.5059
79.9661
80.9655
81.6279
82.0314
82.2225
59.5101
68.3041
73.2379
76.3832
78.5059
79.9661
80.9655
81.6279
82.0315
82.2225
59.5101
68.3041
73.238
76.3833
78.506
79.9663
80.9656
81.6281
82.0316
82.2226
59.5103
68.3043
73.2381
76.3834
78.5062
79.9665
80.9658
81.6283
82.0318
82.2229
59.5105
68.3045
73.2384
76.3837
78.5064
79.9667
80.9661
81.6286
82.0321
82.2232
59.5107
68.3048
73.2387
76.384
78.5068
79.9671
80.9665
81.6289
82.0325
82.2235
44.066
51.422
56.2868
59.5479
61.7728
63.3021
64.3448
65.0334
65.4517
65.6493
44.0657
51.4217
56.2865
59.5475
61.7725
63.3017
64.3445
65.0331
65.4514
65.649
44.0655
51.4215
56.2863
59.5473
61.7722
63.3015
64.3442
65.0329
65.4511
65.6488
44.0654
51.4213
56.2861
59.5472
61.7721
63.3013
64.3441
65.0327
65.451
65.6487
44.0653
51.4212
56.2861
59.5471
61.772
63.3013
64.344
65.0327
65.451
65.6487
44.0653
51.4213
56.2861
59.5471
61.772
63.3013
64.344
65.0327
65.451
65.6487
44.0654
51.4213
56.2862
59.5472
61.7721
63.3014
64.3442
65.0328
65.4511
65.6488
44.0655
51.4215
56.2863
59.5474
61.7723
63.3016
64.3443
65.033
65.4513
65.649
44.0657
51.4217
56.2865
59.5476
61.7726
63.3018
64.3446
65.0333
65.4516
65.6493
44.0659
51.4219
56.2868
59.5479
61.7729
63.3022
64.345
65.0337
65.452
65.6497
33.519
38.9429
42.9999
45.9246
48.0023
49.4622
50.4699
51.1399
51.5484
51.7418
33.5188
38.9426
42.9997
45.9243
48.002
49.4619
50.4696
51.1396
51.5481
51.7415
33.5186
38.9424
42.9995
45.9241
48.0018
49.4617
50.4694
51.1394
51.5479
51.7414
33.5185
38.9423
42.9993
45.924
48.0017
49.4616
50.4693
51.1393
51.5478
51.7413
33.5185
38.9423
42.9993
45.924
48.0016
49.4615
50.4692
51.1392
51.5478
51.7412
33.5185
38.9423
42.9993
45.924
48.0016
49.4615
50.4692
51.1393
51.5478
51.7413
33.5185
38.9423
42.9994
45.9241
48.0017
49.4616
50.4693
51.1394
51.5479
51.7414
33.5187
38.9425
42.9995
45.9242
48.0019
49.4618
50.4695
51.1396
51.5481
51.7416
33.5188
38.9427
42.9997
45.9244
48.0021
49.462
50.4698
51.1398
51.5484
51.7418
33.519
38.9429
43
45.9247
48.0024
49.4624
50.4701
51.1402
51.5487
51.7422
25.6116
29.5132
32.6676
35.0838
36.8754
38.1715
39.0837
39.6981
40.0756
40.2552
25.6114
29.513
32.6674
35.0836
36.8751
38.1712
39.0835
39.6978
40.0754
40.255
25.6113
29.5128
32.6672
35.0834
36.875
38.1711
39.0833
39.6976
40.0753
40.2549
25.6112
29.5127
32.6671
35.0833
36.8748
38.1709
39.0832
39.6975
40.0752
40.2548
25.6111
29.5127
32.6671
35.0832
36.8748
38.1709
39.0831
39.6975
40.0751
40.2547
25.6111
29.5127
32.6671
35.0833
36.8748
38.1709
39.0831
39.6975
40.0752
40.2548
25.6112
29.5128
32.6672
35.0833
36.8749
38.171
39.0832
39.6976
40.0753
40.2549
25.6113
29.5129
32.6673
35.0835
36.875
38.1712
39.0834
39.6978
40.0754
40.2551
25.6114
29.513
32.6675
35.0837
36.8753
38.1714
39.0836
39.698
40.0757
40.2553
25.6116
29.5133
32.6677
35.0839
36.8755
38.1717
39.0839
39.6983
40.076
40.2556
19.5075
22.2946
24.6609
26.5584
28.0193
29.1073
29.8897
30.4248
30.7571
30.9161
19.5073
22.2944
24.6607
26.5582
28.0191
29.1071
29.8895
30.4246
30.7569
30.9159
19.5072
22.2943
24.6605
26.558
28.0189
29.1069
29.8894
30.4245
30.7568
30.9158
19.5071
22.2942
24.6604
26.5579
28.0188
29.1068
29.8893
30.4244
30.7567
30.9157
19.5071
22.2942
24.6604
26.5579
28.0188
29.1068
29.8892
30.4244
30.7567
30.9157
19.5071
22.2942
24.6604
26.5579
28.0188
29.1068
29.8893
30.4244
30.7567
30.9157
19.5071
22.2942
24.6605
26.558
28.0189
29.1069
29.8894
30.4245
30.7568
30.9158
19.5072
22.2943
24.6606
26.5581
28.019
29.107
29.8895
30.4246
30.757
30.916
19.5074
22.2945
24.6607
26.5583
28.0192
29.1072
29.8897
30.4248
30.7572
30.9162
19.5075
22.2947
24.661
26.5585
28.0195
29.1075
29.89
30.4251
30.7574
30.9165
14.7807
16.7544
18.4851
19.922
21.064
21.9374
22.579
23.0248
23.3048
23.4396
14.7806
16.7542
18.4849
19.9218
21.0638
21.9372
22.5788
23.0247
23.3046
23.4394
14.7805
16.7541
18.4848
19.9217
21.0637
21.9371
22.5787
23.0245
23.3045
23.4393
14.7804
16.754
18.4847
19.9216
21.0636
21.937
22.5786
23.0245
23.3044
23.4393
14.7804
16.754
18.4847
19.9216
21.0636
21.937
22.5786
23.0244
23.3044
23.4393
14.7804
16.754
18.4847
19.9216
21.0636
21.937
22.5786
23.0245
23.3044
23.4393
14.7804
16.7541
18.4848
19.9217
21.0636
21.9371
22.5787
23.0245
23.3045
23.4394
14.7805
16.7542
18.4849
19.9218
21.0638
21.9372
22.5788
23.0247
23.3047
23.4395
14.7806
16.7543
18.485
19.9219
21.0639
21.9374
22.579
23.0249
23.3048
23.4397
14.7808
16.7545
18.4852
19.9221
21.0641
21.9376
22.5792
23.0251
23.3051
23.4399
11.1538
12.5235
13.7555
14.8087
15.6696
16.3445
16.8505
17.2078
17.4347
17.5447
11.1536
12.5234
13.7554
14.8085
15.6694
16.3444
16.8504
17.2077
17.4346
17.5446
11.1536
12.5233
13.7553
14.8084
15.6693
16.3443
16.8503
17.2076
17.4345
17.5445
11.1535
12.5233
13.7552
14.8084
15.6693
16.3442
16.8502
17.2075
17.4344
17.5445
11.1535
12.5232
13.7552
14.8084
15.6693
16.3442
16.8502
17.2075
17.4344
17.5445
11.1535
12.5232
13.7552
14.8084
15.6693
16.3442
16.8502
17.2075
17.4344
17.5445
11.1535
12.5233
13.7552
14.8084
15.6693
16.3443
16.8503
17.2076
17.4345
17.5446
11.1536
12.5234
13.7553
14.8085
15.6694
16.3444
16.8504
17.2077
17.4346
17.5447
11.1537
12.5235
13.7554
14.8086
15.6696
16.3445
16.8505
17.2079
17.4348
17.5448
11.1538
12.5236
13.7556
14.8088
15.6697
16.3447
16.8507
17.2081
17.435
17.545
8.41867
9.3245
10.1663
10.9102
11.5365
12.04
12.4253
12.7017
12.8792
12.9659