/*--------------------------------*- C++ -*----------------------------------*\
  =========                 |
  \\      /  F ield         | OpenFOAM: The Open Source CFD Toolbox
   \\    /   O peration     | Website:  https://openfoam.org
    \\  /    A nd           | Version:  6
     \\/     M anipulation  |
\*---------------------------------------------------------------------------*/
FoamFile
{
    version     2.0;
    format      ascii;
    class       surfaceScalarField;
    location    "1800";
    object      phi;
}
// * * * * * * * * * * * * * * * * * * * * * * * * * * * * * * * * * * * * * //

dimensions      [0 3 -1 0 0 0 0];

internalField   nonuniform List<scalar> 
19500
(
1.54289e-07
1.58215e-07
9.96865e-05
1.58231e-08
1.58449e-07
9.99789e-05
9.31396e-09
1.586e-07
9.98468e-05
3.31163e-09
1.5874e-07
9.98462e-05
-3.42645e-09
1.58931e-07
9.98467e-05
-9.86237e-09
1.59138e-07
9.98462e-05
-1.48696e-08
1.59344e-07
9.98445e-05
-1.96147e-08
1.5954e-07
9.9844e-05
-1.61841e-07
1.59652e-07
9.99815e-05
1.59724e-07
9.96775e-05
1.54523e-07
1.8083e-08
9.99845e-05
1.5842e-08
1.80927e-08
0.000100278
9.44304e-09
1.81467e-08
0.000100146
3.47269e-09
1.82282e-08
0.000100145
-3.24673e-09
1.83344e-08
0.000100146
-9.68103e-09
1.84596e-08
0.000100146
-1.47101e-08
1.85919e-08
0.000100145
-1.94358e-08
1.87136e-08
0.000100144
-1.61756e-07
1.88292e-08
0.000100282
1.89977e-08
9.9978e-05
1.54665e-07
1.28112e-08
9.98495e-05
1.58966e-08
1.29233e-08
0.000100143
9.53502e-09
1.30104e-08
0.00010001
3.6023e-09
1.31328e-08
0.00010001
-3.10054e-09
1.32931e-08
0.000100011
-9.53032e-09
1.34796e-08
0.00010001
-1.45635e-08
1.36745e-08
0.000100009
-1.93247e-08
1.38544e-08
0.000100008
-1.61633e-07
1.4015e-08
0.000100146
1.41812e-08
9.98422e-05
1.54787e-07
7.6455e-09
9.98493e-05
1.59745e-08
7.77796e-09
0.000100143
9.65745e-09
7.89633e-09
0.00010001
3.76501e-09
8.0509e-09
0.00010001
-2.91269e-09
8.2494e-09
0.000100011
-9.33355e-09
8.4771e-09
0.00010001
-1.43823e-08
8.7128e-09
0.000100009
-1.91929e-08
8.92912e-09
0.000100008
-1.61397e-07
9.11401e-09
0.000100146
9.33198e-09
9.98425e-05
1.54951e-07
1.30967e-09
9.98503e-05
1.60708e-08
1.44829e-09
0.000100144
9.80953e-09
1.57405e-09
0.000100011
3.96372e-09
1.74204e-09
0.000100011
-2.6843e-09
1.95655e-09
0.000100012
-9.09532e-09
2.20151e-09
0.000100011
-1.41649e-08
2.45466e-09
0.00010001
-1.90341e-08
2.68654e-09
0.00010001
-1.61114e-07
2.88915e-09
0.000100147
3.13532e-09
9.98441e-05
1.55118e-07
-5.16006e-09
9.98502e-05
1.61776e-08
-5.02855e-09
0.000100144
9.97626e-09
-4.90844e-09
0.000100011
4.17838e-09
-4.74414e-09
0.000100011
-2.43872e-09
-4.53539e-09
0.000100012
-8.83977e-09
-4.29775e-09
0.000100012
-1.39339e-08
-4.05285e-09
0.00010001
-1.8865e-08
-3.82879e-09
0.00010001
-1.60792e-07
-3.62699e-09
0.000100147
-3.37999e-09
9.98448e-05
1.55272e-07
-1.07482e-08
9.98492e-05
1.62836e-08
-1.06398e-08
0.000100143
1.01398e-08
-1.05286e-08
0.000100011
4.38592e-09
-1.03857e-08
0.00010001
-2.20212e-09
-1.0207e-08
0.000100011
-8.59467e-09
-1.00063e-08
0.000100011
-1.37147e-08
-9.80196e-09
0.00010001
-1.8704e-08
-9.61706e-09
0.000100009
-1.60465e-07
-9.4558e-09
0.000100146
-9.25808e-09
9.98445e-05
1.55413e-07
-1.66927e-08
9.98494e-05
1.63747e-08
-1.65541e-08
0.000100144
1.02815e-08
-1.64735e-08
0.000100011
4.56309e-09
-1.63762e-08
0.00010001
-2.00111e-09
-1.62539e-08
0.000100011
-8.38805e-09
-1.61175e-08
0.000100011
-1.35322e-08
-1.5981e-08
0.00010001
-1.85703e-08
-1.58602e-08
0.00010001
-1.60196e-07
-1.57813e-08
0.000100147
-1.57082e-08
9.98454e-05
1.55476e-07
-1.56066e-07
9.99828e-05
1.64553e-08
-1.56059e-07
0.000100277
1.03984e-08
-1.55993e-07
0.000100144
4.70122e-09
-1.55836e-07
0.000100144
-1.84195e-09
-1.55651e-07
0.000100145
-8.22305e-09
-1.55436e-07
0.000100144
-1.33958e-08
-1.55217e-07
0.000100143
-1.84941e-08
-1.55031e-07
0.000100143
-1.59919e-07
-1.54795e-07
0.000100279
-1.54304e-07
9.99781e-05
1.55475e-07
9.96875e-05
1.6581e-08
9.99818e-05
1.0502e-08
9.98491e-05
4.83921e-09
9.98488e-05
-1.68547e-09
9.98498e-05
-8.06633e-09
9.98499e-05
-1.32711e-08
9.98489e-05
-1.8457e-08
9.9849e-05
-1.59427e-07
9.99854e-05
9.96857e-05
2.17041e-07
2.27001e-07
9.92381e-05
6.46938e-08
2.27493e-07
9.98994e-05
3.48355e-08
2.27461e-07
9.96447e-05
7.78554e-09
2.27758e-07
9.96409e-05
-1.29057e-08
2.2806e-07
9.96348e-05
-3.25337e-08
2.28362e-07
9.96329e-05
-5.64905e-08
2.28636e-07
9.96352e-05
-8.13927e-08
2.28803e-07
9.96355e-05
-2.39139e-07
2.291e-07
9.99054e-05
2.29211e-07
9.92062e-05
2.17525e-07
7.27841e-08
9.99168e-05
6.4943e-08
7.30181e-08
0.00010058
3.51275e-08
7.305e-08
0.000100325
8.09246e-09
7.3119e-08
0.000100322
-1.25809e-08
7.32363e-08
0.000100317
-3.22304e-08
7.33649e-08
0.000100316
-5.62884e-08
7.34821e-08
0.000100319
-8.13509e-08
7.35668e-08
0.00010032
-2.391e-07
7.35831e-08
0.00010059
7.3692e-08
9.98914e-05
2.17473e-07
4.61687e-08
9.96541e-05
6.49741e-08
4.64309e-08
0.000100317
3.52282e-08
4.65312e-08
0.000100062
8.20553e-09
4.66529e-08
0.000100059
-1.24765e-08
4.6821e-08
0.000100053
-3.21502e-08
4.70022e-08
0.000100051
-5.62534e-08
4.71666e-08
0.000100054
-8.13486e-08
4.72649e-08
0.000100055
-2.38813e-07
4.72482e-08
0.000100325
4.74962e-08
9.96265e-05
2.17741e-07
2.14981e-08
9.96516e-05
6.50426e-08
2.17587e-08
0.000100315
3.53501e-08
2.1878e-08
0.00010006
8.36609e-09
2.20397e-08
0.000100057
-1.23046e-08
2.22462e-08
0.000100051
-3.19974e-08
2.24649e-08
0.00010005
-5.61559e-08
2.26601e-08
0.000100052
-8.13361e-08
2.27654e-08
0.000100053
-2.38689e-07
2.27614e-08
0.000100323
2.31552e-08
9.96251e-05
2.18008e-07
2.07566e-09
9.96471e-05
6.51598e-08
2.3434e-09
0.000100312
3.55216e-08
2.46367e-09
0.000100056
8.57441e-09
2.6478e-09
0.000100052
-1.20858e-08
2.87886e-09
0.000100047
-3.1804e-08
3.12478e-09
0.000100046
-5.60398e-08
3.34591e-09
0.000100048
-8.13253e-08
3.46862e-09
0.000100049
-2.38427e-07
3.49991e-09
0.000100318
3.9884e-09
9.96219e-05
2.18268e-07
-1.75636e-08
9.96469e-05
6.52943e-08
-1.73133e-08
0.000100312
3.57165e-08
-1.72033e-08
0.000100056
8.80811e-09
-1.70124e-08
0.000100053
-1.18389e-08
-1.67753e-08
0.000100047
-3.15838e-08
-1.65198e-08
0.000100046
-5.59036e-08
-1.62876e-08
0.000100049
-8.12926e-08
-1.61491e-08
0.00010005
-2.38063e-07
-1.60736e-08
0.000100319
-1.55517e-08
9.96234e-05
2.18498e-07
-4.28947e-08
9.96513e-05
6.54345e-08
-4.27199e-08
0.000100317
3.59178e-08
-4.26247e-08
0.000100061
9.04826e-09
-4.24433e-08
0.000100058
-1.15817e-08
-4.22281e-08
0.000100052
-3.13514e-08
-4.19983e-08
0.000100051
-5.57499e-08
-4.17922e-08
0.000100054
-8.12314e-08
-4.16777e-08
0.000100055
-2.3764e-07
-4.16239e-08
0.000100323
-4.10763e-08
9.96296e-05
2.18645e-07
-7.06307e-08
9.96538e-05
6.55762e-08
-7.05657e-08
0.00010032
3.61015e-08
-7.04689e-08
0.000100063
9.25737e-09
-7.03301e-08
0.00010006
-1.13614e-08
-7.01802e-08
0.000100055
-3.11559e-08
-7.00251e-08
0.000100054
-5.56329e-08
-6.98958e-08
0.000100057
-8.12237e-08
-6.98737e-08
0.000100058
-2.37193e-07
-6.98787e-08
0.000100326
-6.91809e-08
9.96339e-05
2.1897e-07
-2.23963e-07
9.99125e-05
6.56837e-08
-2.23989e-07
0.000100579
3.62082e-08
-2.23665e-07
0.000100322
9.39576e-09
-2.23512e-07
0.000100319
-1.12022e-08
-2.2325e-07
0.000100313
-3.10101e-08
-2.22947e-07
0.000100312
-5.55623e-08
-2.22654e-07
0.000100315
-8.12252e-08
-2.22358e-07
0.000100316
-2.3685e-07
-2.22059e-07
0.000100583
-2.20913e-07
9.98904e-05
2.18996e-07
9.92414e-05
6.58061e-08
9.99078e-05
3.64601e-08
9.96515e-05
9.75861e-09
9.96487e-05
-1.0803e-08
9.96439e-05
-3.06324e-08
9.96434e-05
-5.51624e-08
9.96472e-05
-8.05522e-08
9.9649e-05
-2.3567e-07
9.99156e-05
9.92281e-05
2.41692e-07
2.5803e-07
9.87339e-05
8.11189e-08
2.58989e-07
9.97962e-05
4.43969e-08
2.58609e-07
9.9418e-05
7.51718e-09
2.59268e-07
9.94137e-05
-2.2687e-08
2.59836e-07
9.94003e-05
-5.10971e-08
2.60453e-07
9.9396e-05
-8.26382e-08
2.61064e-07
9.94006e-05
-1.10832e-07
2.61369e-07
9.93969e-05
-2.77765e-07
2.62376e-07
9.98049e-05
2.62588e-07
9.86623e-05
2.42666e-07
9.57257e-08
9.98317e-05
8.18545e-08
9.64377e-08
0.000100899
4.50485e-08
9.64708e-08
0.000100519
8.22053e-09
9.66895e-08
0.000100517
-2.19666e-08
9.70305e-08
0.000100505
-5.04389e-08
9.73942e-08
0.000100502
-8.21672e-08
9.77348e-08
0.000100509
-1.10775e-07
9.80402e-08
0.000100506
-2.77621e-07
9.82532e-08
0.000100916
9.83934e-08
9.97744e-05
2.42235e-07
6.47569e-08
9.94381e-05
8.18808e-08
6.53608e-08
0.000100504
4.52845e-08
6.56001e-08
0.000100124
8.48299e-09
6.59503e-08
0.000100121
-2.16982e-08
6.6417e-08
0.000100109
-5.01976e-08
6.69189e-08
0.000100105
-8.20112e-08
6.7397e-08
0.000100111
-1.10582e-07
6.77822e-08
0.000100108
-2.7666e-07
6.78828e-08
0.000100516
6.85465e-08
9.93761e-05
2.42835e-07
3.21871e-08
9.94365e-05
8.20956e-08
3.28086e-08
0.000100504
4.56346e-08
3.3083e-08
0.000100124
8.93423e-09
3.35279e-08
0.000100121
-2.12026e-08
3.40916e-08
0.000100108
-4.97258e-08
3.47006e-08
0.000100105
-8.16318e-08
3.52854e-08
0.000100111
-1.10353e-07
3.57394e-08
0.000100108
-2.76315e-07
3.58995e-08
0.000100515
3.68855e-08
9.93769e-05
2.43325e-07
4.39304e-09
9.94266e-05
8.24269e-08
5.00277e-09
0.000100495
4.61009e-08
5.2958e-09
0.000100115
9.49958e-09
5.7927e-09
0.000100112
-2.05931e-08
6.4117e-09
0.000100099
-4.91476e-08
7.08923e-09
0.000100096
-8.11815e-08
7.74692e-09
0.000100102
-1.10108e-07
8.26168e-09
0.000100099
-2.75563e-07
8.47967e-09
0.000100506
9.71688e-09
9.93702e-05
2.43843e-07
-2.38453e-08
9.94264e-05
8.27842e-08
-2.33045e-08
0.000100496
4.66102e-08
-2.30217e-08
0.000100115
1.01205e-08
-2.25176e-08
0.000100112
-1.99146e-08
-2.18983e-08
0.0001001
-4.84959e-08
-2.12119e-08
0.000100097
-8.06594e-08
-2.05348e-08
0.000100104
-1.09797e-07
-1.99976e-08
0.000100101
-2.74633e-07
-1.97132e-08
0.000100506
-1.83368e-08
9.93737e-05
2.44344e-07
-5.77297e-08
9.94359e-05
8.31381e-08
-5.73415e-08
0.000100507
4.71196e-08
-5.7105e-08
0.000100125
1.07476e-08
-5.66389e-08
0.000100123
-1.92205e-08
-5.60861e-08
0.000100111
-4.78171e-08
-5.547e-08
0.000100108
-8.00955e-08
-5.48563e-08
0.000100115
-1.0942e-07
-5.4384e-08
0.000100112
-2.73596e-07
-5.40767e-08
0.000100516
-5.26737e-08
9.93874e-05
2.4458e-07
-9.08554e-08
9.94374e-05
8.34995e-08
-9.0845e-08
0.000100509
4.7592e-08
-9.05369e-08
0.000100127
1.13061e-08
-9.01654e-08
0.000100125
-1.86112e-08
-8.97657e-08
0.000100113
-4.72239e-08
-8.93195e-08
0.000100111
-7.96153e-08
-8.88803e-08
0.000100117
-1.0911e-07
-8.85885e-08
0.000100115
-2.72381e-07
-8.84599e-08
0.000100518
-8.70734e-08
9.93929e-05
2.45532e-07
-2.51777e-07
9.98228e-05
8.3824e-08
-2.51818e-07
0.000100897
4.78591e-08
-2.50881e-07
0.000100513
1.16577e-08
-2.50609e-07
0.00010051
-1.82124e-08
-2.50016e-07
0.000100498
-4.68366e-08
-2.49355e-07
0.000100495
-7.92925e-08
-2.487e-07
0.000100501
-1.08962e-07
-2.47827e-07
0.000100498
-2.72354e-07
-2.47987e-07
0.0001009
-2.45472e-07
9.97747e-05
2.45544e-07
9.87406e-05
8.39048e-08
9.98141e-05
4.83889e-08
9.94325e-05
1.24187e-08
9.94304e-05
-1.73149e-08
9.94199e-05
-4.58882e-08
9.94187e-05
-7.82404e-08
9.94268e-05
-1.07728e-07
9.94265e-05
-2.6984e-07
9.98276e-05
9.87118e-05
2.54421e-07
2.77972e-07
9.81964e-05
8.67921e-08
2.79542e-07
9.96791e-05
4.36924e-08
2.78809e-07
9.91769e-05
1.85377e-09
2.79949e-07
9.91701e-05
-3.38404e-08
2.80806e-07
9.91497e-05
-6.69285e-08
2.81832e-07
9.91416e-05
-1.01039e-07
2.82938e-07
9.91458e-05
-1.31701e-07
2.83439e-07
9.9138e-05
-3.08237e-07
2.85177e-07
9.96899e-05
2.85573e-07
9.80645e-05
2.56065e-07
1.08653e-07
9.97397e-05
8.8138e-08
1.09946e-07
0.000101231
4.48398e-08
1.09958e-07
0.000100726
3.14453e-09
1.10391e-07
0.000100722
-3.25579e-08
1.11036e-07
0.000100705
-6.57897e-08
1.11722e-07
0.0001007
-1.00145e-07
1.12367e-07
0.000100707
-1.31628e-07
1.12971e-07
0.000100701
-3.07864e-07
1.13419e-07
0.000101258
1.13706e-07
9.96343e-05
2.55233e-07
7.41084e-08
9.9212e-05
8.81308e-08
7.51579e-08
0.0001007
4.52158e-08
7.5547e-08
0.000100196
3.56958e-09
7.62133e-08
0.000100191
-3.20809e-08
7.70848e-08
0.000100172
-6.53215e-08
7.80254e-08
0.000100166
-9.98241e-08
7.89382e-08
0.000100172
-1.31212e-07
7.97098e-08
0.000100166
-3.06112e-07
7.99716e-08
0.000100718
8.12693e-08
9.90984e-05
2.56273e-07
3.89192e-08
9.921e-05
8.85561e-08
4.00485e-08
0.000100701
4.58838e-08
4.04978e-08
0.000100196
4.42563e-09
4.13335e-08
0.000100191
-3.11296e-08
4.23875e-08
0.000100172
-6.43944e-08
4.35435e-08
0.000100166
-9.90654e-08
4.468e-08
0.000100173
-1.30689e-07
4.56244e-08
0.000100166
-3.05439e-07
4.60267e-08
0.000100717
4.79129e-08
9.9101e-05
2.56995e-07
7.15836e-09
9.91959e-05
8.91784e-08
8.22303e-09
0.000100689
4.67496e-08
8.74082e-09
0.000100183
5.48169e-09
9.67327e-09
0.000100178
-2.99715e-08
1.0833e-08
0.00010016
-6.32703e-08
1.21252e-08
0.000100155
-9.81566e-08
1.34202e-08
0.000100161
-1.30108e-07
1.4503e-08
0.000100155
-3.03892e-07
1.50284e-08
0.000100704
1.74705e-08
9.90932e-05
2.57846e-07
-2.53132e-08
9.91955e-05
8.98396e-08
-2.4414e-08
0.000100691
4.76883e-08
-2.38789e-08
0.000100184
6.64344e-09
-2.29352e-08
0.00010018
-2.86759e-08
-2.17775e-08
0.000100162
-6.19855e-08
-2.04671e-08
0.000100157
-9.70866e-08
-1.91255e-08
0.000100164
-1.29336e-07
-1.79738e-08
0.000100159
-3.02054e-07
-1.7326e-08
0.000100705
-1.45769e-08
9.91005e-05
2.5875e-07
-6.25834e-08
9.92088e-05
9.04861e-08
-6.19003e-08
0.000100707
4.86215e-08
-6.14495e-08
0.000100199
7.81629e-09
-6.05896e-08
0.000100195
-2.73467e-08
-5.95657e-08
0.000100178
-6.06378e-08
-5.83903e-08
0.000100173
-9.59046e-08
-5.71656e-08
0.000100181
-1.28394e-07
-5.6103e-08
0.000100176
-3.00102e-07
-5.54279e-08
0.00010072
-5.27068e-08
9.91227e-05
2.59105e-07
-1.00407e-07
9.92105e-05
9.11462e-08
-1.0043e-07
0.00010071
4.94939e-08
-9.98346e-08
0.000100201
8.87438e-09
-9.9149e-08
0.000100198
-2.6161e-08
-9.83962e-08
0.000100181
-5.94337e-08
-9.75214e-08
0.000100177
-9.48328e-08
-9.65963e-08
0.000100185
-1.27575e-07
-9.58489e-08
0.000100181
-2.97766e-07
-9.5574e-08
0.000100723
-9.23839e-08
9.91331e-05
2.60741e-07
-2.67861e-07
9.9724e-05
9.1761e-08
-2.67908e-07
0.000101227
4.99923e-08
-2.66265e-07
0.000100716
9.53373e-09
-2.65827e-07
0.000100711
-2.54291e-08
-2.64721e-07
0.000100693
-5.87066e-08
-2.63541e-07
0.000100688
-9.41599e-08
-2.62373e-07
0.000100696
-1.27253e-07
-2.60763e-07
0.00010069
-2.97081e-07
-2.6045e-07
0.000101232
-2.56737e-07
9.96394e-05
2.60746e-07
9.82082e-05
9.1856e-08
9.97112e-05
5.09034e-08
9.92033e-05
1.08185e-08
9.92007e-05
-2.38157e-08
9.91857e-05
-5.68819e-08
9.91839e-05
-9.22333e-08
9.91952e-05
-1.24393e-07
9.91947e-05
-2.93463e-07
9.97327e-05
9.81609e-05
2.62019e-07
2.93989e-07
9.76352e-05
8.93671e-08
2.96265e-07
9.955e-05
3.93283e-08
2.95243e-07
9.89262e-05
-7.25622e-09
2.96972e-07
9.89141e-05
-4.78571e-08
2.98168e-07
9.88864e-05
-8.50012e-08
2.99717e-07
9.88731e-05
-1.21062e-07
3.01478e-07
9.88741e-05
-1.54379e-07
3.02235e-07
9.88622e-05
-3.40035e-07
3.0484e-07
9.95639e-05
3.05471e-07
9.74142e-05
2.64477e-07
1.19839e-07
9.96439e-05
9.1421e-08
1.21775e-07
0.000101573
4.1119e-08
1.21794e-07
0.000100944
-5.16426e-09
1.22517e-07
0.000100937
-4.58015e-08
1.23541e-07
0.000100914
-8.31928e-08
1.24639e-07
0.000100906
-1.19563e-07
1.25681e-07
0.000100913
-1.54003e-07
1.26675e-07
0.000100904
-3.39305e-07
1.27407e-07
0.000101613
1.28015e-07
9.94675e-05
2.6328e-07
8.17079e-08
9.89814e-05
9.1399e-08
8.33044e-08
0.000100905
4.16551e-08
8.38778e-08
0.000100278
-4.55897e-09
8.49567e-08
0.000100269
-4.5084e-08
8.63467e-08
0.000100244
-8.24575e-08
8.7863e-08
0.000100234
-1.19052e-07
8.93451e-08
0.000100238
-1.53324e-07
9.06677e-08
0.000100228
-3.36772e-07
9.11294e-08
0.00010093
9.33437e-08
9.87915e-05
2.64861e-07
4.47825e-08
9.89765e-05
9.21094e-08
4.65699e-08
0.000100905
4.27408e-08
4.72311e-08
0.000100276
-3.17276e-09
4.85797e-08
0.000100267
-4.35283e-08
5.02797e-08
0.000100243
-8.09248e-08
5.21747e-08
0.000100233
-1.17761e-07
5.40715e-08
0.000100238
-1.52403e-07
5.5765e-08
0.000100228
-3.35655e-07
5.64506e-08
0.000100928
5.97245e-08
9.87946e-05
2.65853e-07
1.0292e-08
9.89588e-05
9.30984e-08
1.19442e-08
0.000100891
4.4121e-08
1.27466e-08
0.00010026
-1.46979e-09
1.42588e-08
0.000100252
-4.16319e-08
1.6147e-08
0.000100228
-7.90419e-08
1.82934e-08
0.000100219
-1.16167e-07
2.04993e-08
0.000100225
-1.51364e-07
2.24846e-08
0.000100216
-3.32918e-07
2.3377e-08
0.000100912
2.77314e-08
9.87886e-05
2.6713e-07
-2.52004e-08
9.89581e-05
9.41573e-08
-2.38409e-08
0.000100894
4.56271e-08
-2.29768e-08
0.000100262
4.2472e-10
-2.14407e-08
0.000100254
-3.94755e-08
-1.95443e-08
0.000100231
-7.68421e-08
-1.73453e-08
0.000100223
-1.14248e-07
-1.50224e-08
0.00010023
-1.49967e-07
-1.28676e-08
0.000100222
-3.29687e-07
-1.17684e-08
0.000100913
-6.59447e-09
9.88026e-05
2.68575e-07
-6.5036e-08
9.89743e-05
9.51969e-08
-6.3946e-08
0.000100915
4.71299e-08
-6.3213e-08
0.000100281
2.34765e-09
-6.18141e-08
0.000100274
-3.72427e-08
-6.01192e-08
0.000100251
-7.45025e-08
-5.81165e-08
0.000100244
-1.12093e-07
-5.59458e-08
0.000100252
-1.48257e-07
-5.38851e-08
0.000100245
-3.26072e-07
-5.25292e-08
0.000100933
-4.74069e-08
9.88355e-05
2.69113e-07
-1.07664e-07
9.89782e-05
9.62499e-08
-1.076e-07
0.000100921
4.85527e-08
-1.06649e-07
0.000100286
4.12347e-09
-1.05525e-07
0.00010028
-3.51944e-08
-1.04242e-07
0.000100258
-7.23353e-08
-1.02709e-07
0.000100251
-1.10031e-07
-1.01017e-07
0.00010026
-1.46505e-07
-9.94186e-08
0.000100255
-3.21617e-07
-9.84879e-08
0.000100939
-9.37383e-08
9.88555e-05
2.71477e-07
-2.79373e-07
9.96184e-05
9.72248e-08
-2.79375e-07
0.000101567
4.93849e-08
-2.76996e-07
0.000100927
5.24477e-09
-2.76292e-07
0.00010092
-3.39378e-08
-2.74464e-07
0.000100896
-7.1036e-08
-2.72553e-07
0.000100888
-1.08668e-07
-2.70658e-07
0.000100895
-1.45466e-07
-2.67722e-07
0.000100887
-3.20727e-07
-2.67745e-07
0.00010157
-2.60968e-07
9.94857e-05
2.71526e-07
9.76533e-05
9.74427e-08
9.96017e-05
5.08318e-08
9.89685e-05
7.23975e-09
9.89635e-05
-3.13357e-08
9.89452e-05
-6.79675e-08
9.89431e-05
-1.05315e-07
9.89569e-05
-1.41625e-07
9.89575e-05
-3.14243e-07
9.96363e-05
9.75853e-05
2.6363e-07
3.0555e-07
9.70604e-05
8.82526e-08
3.08635e-07
9.9411e-05
3.19569e-08
3.07381e-07
9.86691e-05
-1.97448e-08
3.09809e-07
9.86498e-05
-6.59835e-08
3.11447e-07
9.86148e-05
-1.07902e-07
3.13673e-07
9.85946e-05
-1.46278e-07
3.16294e-07
9.85887e-05
-1.80945e-07
3.17476e-07
9.85713e-05
-3.76566e-07
3.20863e-07
9.94302e-05
3.21674e-07
9.67098e-05
2.67072e-07
1.291e-07
9.95475e-05
9.11583e-08
1.31778e-07
0.00010192
3.45978e-08
1.31858e-07
0.00010117
-1.65758e-08
1.32983e-07
0.000101159
-6.28557e-08
1.34503e-07
0.000101131
-1.0511e-07
1.36158e-07
0.000101119
-1.43829e-07
1.37752e-07
0.000101122
-1.80234e-07
1.39221e-07
0.00010111
-3.7533e-07
1.40149e-07
0.00010198
1.41147e-07
9.92667e-05
2.65541e-07
8.88745e-08
9.87501e-05
9.11598e-08
9.11536e-08
0.000101114
3.53427e-08
9.19792e-08
0.000100367
-1.57336e-08
9.36183e-08
0.000100353
-6.18326e-08
9.5705e-08
0.000100322
-1.04049e-07
9.80176e-08
0.000100307
-1.43153e-07
1.00305e-07
0.000100307
-1.79423e-07
1.02348e-07
0.000100293
-3.72122e-07
1.02899e-07
0.000101151
1.06465e-07
9.84481e-05
2.67764e-07
5.08046e-08
9.87407e-05
9.22673e-08
5.3427e-08
0.000101112
3.69985e-08
5.43833e-08
0.000100362
-1.36222e-08
5.64313e-08
0.000100348
-5.94393e-08
5.90225e-08
0.000100318
-1.01666e-07
6.19683e-08
0.000100303
-1.41166e-07
6.49843e-08
0.000100304
-1.78117e-07
6.76404e-08
0.000100291
-3.70311e-07
6.87231e-08
0.000101146
7.41713e-08
9.84515e-05
2.69113e-07
1.38706e-08
9.87205e-05
9.37375e-08
1.62857e-08
0.000101097
3.90695e-08
1.74703e-08
0.000100345
-1.10245e-08
1.97799e-08
0.000100332
-5.64921e-08
2.26883e-08
0.000100302
-9.86725e-08
2.60796e-08
0.000100289
-1.3869e-07
2.96419e-08
0.000100291
-1.76403e-07
3.29017e-08
0.000100279
-3.65806e-07
3.45011e-08
0.000101128
4.22234e-08
9.8451e-05
2.70944e-07
-2.43954e-08
9.87191e-05
9.53334e-08
-2.24203e-08
0.000101102
4.13566e-08
-2.11241e-08
0.000100348
-8.09624e-09
-1.8772e-08
0.000100335
-5.30778e-08
-1.58287e-08
0.000100307
-9.51111e-08
-1.23192e-08
0.000100295
-1.35554e-07
-8.50798e-09
0.000100299
-1.73919e-07
-4.84639e-09
0.000100289
-3.59985e-07
-2.55956e-09
0.00010113
6.64782e-09
9.84758e-05
2.73088e-07
-6.633e-08
9.87368e-05
9.69145e-08
-6.46901e-08
0.000101126
4.3649e-08
-6.35906e-08
0.00010037
-5.10604e-09
-6.14668e-08
0.000100358
-4.95128e-08
-5.88318e-08
0.000100331
-9.12661e-08
-5.5632e-08
0.000100321
-1.31912e-07
-5.20367e-08
0.000100327
-1.70605e-07
-4.8363e-08
0.000100319
-3.53416e-07
-4.56365e-08
0.000101153
-3.6547e-08
9.85249e-05
2.7393e-07
-1.12424e-07
9.87439e-05
9.84826e-08
-1.12175e-07
0.000101137
4.58181e-08
-1.10827e-07
0.000100379
-2.31908e-09
-1.09143e-07
0.000100368
-4.62052e-08
-1.07135e-07
0.000100342
-8.76223e-08
-1.04677e-07
0.000100333
-1.28225e-07
-1.01846e-07
0.000100341
-1.67092e-07
-9.88703e-08
0.000100336
-3.45634e-07
-9.70381e-08
0.000101163
-8.77643e-08
9.8563e-05
2.77072e-07
-2.8584e-07
9.95083e-05
9.98634e-08
-2.85706e-07
0.000101912
4.70756e-08
-2.82523e-07
0.000101145
-5.85181e-10
-2.81405e-07
0.000101133
-4.42057e-08
-2.78626e-07
0.000101104
-8.54237e-08
-2.75699e-07
0.000101092
-1.25754e-07
-2.72713e-07
0.000101097
-1.65053e-07
-2.68229e-07
0.000101088
-3.41822e-07
-2.6634e-07
0.000101914
-2.56673e-07
9.9312e-05
2.77256e-07
9.70858e-05
1.00325e-07
9.94884e-05
4.92348e-08
9.87324e-05
2.36275e-09
9.87241e-05
-4.0256e-08
9.87041e-05
-8.06378e-08
9.87023e-05
-1.20581e-07
9.87179e-05
-1.57812e-07
9.87234e-05
-3.32837e-07
9.95412e-05
9.69954e-05
2.59448e-07
3.13064e-07
9.64823e-05
8.27458e-08
3.17035e-07
9.92648e-05
2.04497e-08
3.15612e-07
9.84097e-05
-3.68592e-08
3.18837e-07
9.8382e-05
-8.95179e-08
3.21046e-07
9.834e-05
-1.37269e-07
3.24131e-07
9.83112e-05
-1.78602e-07
3.27832e-07
9.82945e-05
-2.14309e-07
3.29643e-07
9.82688e-05
-4.24603e-07
3.33993e-07
9.92964e-05
3.34985e-07
9.59424e-05
2.64042e-07
1.36064e-07
9.94547e-05
8.66775e-08
1.39591e-07
0.000102269
2.42001e-08
1.39774e-07
0.000101402
-3.22774e-08
1.41424e-07
0.000101386
-8.49224e-08
1.43579e-07
0.000101354
-1.33051e-07
1.45969e-07
0.000101338
-1.7479e-07
1.48296e-07
0.000101336
-2.12665e-07
1.50452e-07
0.000101319
-4.2246e-07
1.5168e-07
0.000102362
1.53269e-07
9.90173e-05
2.622e-07
9.50045e-08
9.8523e-05
8.67248e-08
9.81342e-08
0.000101324
2.5191e-08
9.92804e-08
0.000100463
-3.1141e-08
1.01655e-07
0.000100442
-8.35279e-08
1.04666e-07
0.000100406
-1.3162e-07
1.08068e-07
0.000100385
-1.73898e-07
1.11478e-07
0.000100377
-2.11648e-07
1.14608e-07
0.000100357
-4.18916e-07
1.15261e-07
0.000101384
1.20838e-07
9.80535e-05
2.65162e-07
5.65957e-08
9.85079e-05
8.83555e-08
6.02586e-08
0.00010132
2.75982e-08
6.16113e-08
0.000100454
-2.80549e-08
6.45989e-08
0.000100434
-7.99903e-08
6.84087e-08
0.000100399
-1.28048e-07
7.28484e-08
0.000100379
-1.70881e-07
7.74871e-08
0.000100373
-2.09776e-07
8.1794e-08
0.000100353
-4.16207e-07
8.33687e-08
0.000101374
9.23056e-08
9.80566e-05
2.66991e-07
1.79258e-08
9.84859e-05
9.04493e-08
2.13189e-08
0.000101306
3.05904e-08
2.30125e-08
0.000100437
-2.42288e-08
2.64058e-08
0.000100418
-7.55472e-08
3.07424e-08
0.000100384
-1.2343e-07
3.5946e-08
0.000100366
-1.66892e-07
4.1579e-08
0.000100362
-2.07017e-07
4.71388e-08
0.000100344
-4.09228e-07
4.96695e-08
0.000101354
6.29884e-08
9.80663e-05
2.69538e-07
-2.24447e-08
9.84836e-05
9.27633e-08
-1.96523e-08
0.000101313
3.39429e-08
-1.77877e-08
0.00010044
-1.98413e-08
-1.43205e-08
0.000100422
-7.02932e-08
-9.89314e-09
0.00010039
-1.1776e-07
-4.44854e-09
0.000100375
-1.61574e-07
1.69729e-09
0.000100374
-2.02918e-07
8.11658e-09
0.000100359
-3.99451e-07
1.18248e-08
0.000101356
2.91084e-08
9.81103e-05
2.72556e-07
-6.57874e-08
9.85011e-05
9.50789e-08
-6.34239e-08
0.000101341
3.73226e-08
-6.18226e-08
0.000100465
-1.533e-08
-5.86928e-08
0.000100448
-6.47532e-08
-5.47042e-08
0.000100418
-1.11521e-07
-4.96992e-08
0.000100405
-1.55303e-07
-4.3814e-08
0.000100407
-1.97417e-07
-3.72991e-08
0.000100396
-3.86805e-07
-3.23078e-08
0.000101383
-1.48379e-08
9.81851e-05
2.7388e-07
-1.14198e-07
9.8512e-05
9.73427e-08
-1.1361e-07
0.000101357
4.05337e-08
-1.11738e-07
0.000100479
-1.10831e-08
-1.09259e-07
0.000100463
-5.9533e-08
-1.06177e-07
0.000100434
-1.05489e-07
-1.02291e-07
0.000100424
-1.48842e-07
-9.76202e-08
0.000100429
-1.90989e-07
-9.22207e-08
0.000100422
-3.71939e-07
-8.76403e-08
0.000101398
-7.32842e-08
9.82506e-05
2.77896e-07
-2.87517e-07
9.93971e-05
9.92599e-08
-2.87086e-07
0.000102257
4.2418e-08
-2.82978e-07
0.000101366
-8.44194e-09
-2.81205e-07
0.000101348
-5.63498e-08
-2.7716e-07
0.000101315
-1.01771e-07
-2.72829e-07
0.000101299
-1.44297e-07
-2.68248e-07
0.000101301
-1.85974e-07
-2.60976e-07
0.000101288
-3.65276e-07
-2.58646e-07
0.000102258
-2.43036e-07
9.91186e-05
2.78379e-07
9.65153e-05
1.00151e-07
9.93748e-05
4.55437e-08
9.8499e-05
-4.17343e-09
9.84875e-05
-5.05642e-08
9.84678e-05
-9.4578e-08
9.84673e-05
-1.36035e-07
9.84846e-05
-1.76487e-07
9.84941e-05
-3.51032e-07
9.94559e-05
9.64024e-05
2.51036e-07
3.18193e-07
9.59074e-05
7.36528e-08
3.2317e-07
9.91132e-05
4.74358e-09
3.2169e-07
9.81508e-05
-5.92557e-08
3.25837e-07
9.81138e-05
-1.19632e-07
3.28795e-07
9.80646e-05
-1.75054e-07
3.3297e-07
9.8026e-05
-2.22174e-07
3.38057e-07
9.79948e-05
-2.62126e-07
3.40765e-07
9.79571e-05
-4.9503e-07
3.46024e-07
9.91697e-05
3.44437e-07
9.50922e-05
2.57007e-07
1.41735e-07
9.93684e-05
7.88146e-08
1.46236e-07
0.000102618
9.93392e-09
1.46602e-07
0.000101639
-5.28357e-08
1.4895e-07
0.000101619
-1.13037e-07
1.51955e-07
0.000101584
-1.6878e-07
1.55356e-07
0.000101563
-2.16371e-07
1.5872e-07
0.000101553
-2.59289e-07
1.61911e-07
0.000101529
-4.93726e-07
1.62881e-07
0.000102765
1.64666e-07
9.86935e-05
2.54934e-07
1.00402e-07
9.83034e-05
7.89617e-08
1.04587e-07
0.000101536
1.1247e-08
1.0616e-07
0.000100564
-5.12964e-08
1.09521e-07
0.000100537
-1.11142e-07
1.13795e-07
0.000100496
-1.66864e-07
1.18721e-07
0.000100469
-2.15185e-07
1.23816e-07
0.000100451
-2.58822e-07
1.28255e-07
0.000100421
-4.90614e-07
1.28719e-07
0.000101635
1.35246e-07
9.75828e-05
2.58752e-07
6.21545e-08
9.82811e-05
8.12868e-08
6.71094e-08
0.000101528
1.46653e-08
6.90092e-08
0.00010055
-4.6871e-08
7.32766e-08
0.000100524
-1.06003e-07
7.87815e-08
0.000100485
-1.61547e-07
8.53945e-08
0.000100459
-2.10944e-07
9.24613e-08
0.000100442
-2.56486e-07
9.90989e-08
0.000100414
-4.88259e-07
1.00959e-07
0.000101619
1.13931e-07
9.75829e-05
2.61232e-07
2.25191e-08
9.82578e-05
8.42094e-08
2.71605e-08
0.000101516
1.89111e-08
2.95444e-08
0.000100534
-4.13247e-08
3.44202e-08
0.000100509
-9.93714e-08
4.07745e-08
0.000100472
-1.54507e-07
4.8641e-08
0.000100448
-2.04801e-07
5.75334e-08
0.000100435
-2.5255e-07
6.63248e-08
0.00010041
-4.78679e-07
7.08909e-08
0.000101598
9.41121e-08
9.76042e-05
2.64701e-07
-1.92386e-08
9.82539e-05
8.74927e-08
-1.537e-08
0.000101526
2.37311e-08
-1.27501e-08
0.000100539
-3.48572e-08
-7.76125e-09
0.000100515
-9.13878e-08
-1.23571e-09
0.00010048
-1.45529e-07
7.0789e-09
0.00010046
-1.96373e-07
1.68566e-08
0.000100452
-2.45283e-07
2.73467e-08
0.000100433
-4.61189e-07
3.57973e-08
0.000101601
6.68736e-08
9.7674e-05
2.68801e-07
-6.36283e-08
9.82699e-05
9.07997e-08
-6.03304e-08
0.000101557
2.86087e-08
-5.80688e-08
0.000100564
-2.81807e-08
-5.3593e-08
0.000100542
-8.29019e-08
-4.7734e-08
0.00010051
-1.35595e-07
-4.01155e-08
0.000100494
-1.86056e-07
-3.07669e-08
0.000100491
-2.33918e-07
-1.966e-08
0.000100479
-4.37208e-07
-8.74318e-09
0.000101627
2.32512e-08
9.77893e-05
2.70824e-07
-1.14011e-07
9.82847e-05
9.39846e-08
-1.12898e-07
0.000101579
3.32271e-08
-1.10406e-07
0.000100584
-2.19022e-08
-1.06911e-07
0.000100563
-7.49001e-08
-1.02417e-07
0.000100533
-1.25924e-07
-9.65905e-08
0.00010052
-1.74916e-07
-8.92275e-08
0.000100523
-2.20584e-07
-7.97206e-08
0.000100518
-4.0953e-07
-7.14724e-08
0.000101645
-4.36213e-08
9.79068e-05
2.75774e-07
-2.8612e-07
9.92865e-05
9.65357e-08
-2.85297e-07
0.000102601
3.59059e-08
-2.80226e-07
0.000101589
-1.80829e-08
-2.77588e-07
0.000101565
-7.01048e-08
-2.7204e-07
0.000101528
-1.19882e-07
-2.65955e-07
0.000101508
-1.66834e-07
-2.59257e-07
0.000101504
-2.11777e-07
-2.4903e-07
0.000101491
-3.92297e-07
-2.42739e-07
0.000102608
-2.20523e-07
9.88988e-05
2.76662e-07
9.59476e-05
9.8024e-08
9.92631e-05
4.02238e-08
9.82714e-05
-1.21685e-08
9.82568e-05
-6.20113e-08
9.82396e-05
-1.0965e-07
9.82419e-05
-1.55146e-07
9.82615e-05
-1.95985e-07
9.82812e-05
-3.72487e-07
9.93858e-05
9.58007e-05
2.39784e-07
3.22227e-07
9.53399e-05
6.18703e-08
3.28265e-07
9.89571e-05
-1.46695e-08
3.26842e-07
9.78944e-05
-8.70161e-08
3.31999e-07
9.78477e-05
-1.57309e-07
3.35869e-07
9.77921e-05
-2.23759e-07
3.41328e-07
9.77432e-05
-2.82079e-07
3.47954e-07
9.76957e-05
-3.34508e-07
3.52042e-07
9.76444e-05
-6.09156e-07
3.58891e-07
9.90705e-05
3.53601e-07
9.41305e-05
2.47308e-07
1.47023e-07
9.92906e-05
6.84516e-08
1.52603e-07
0.000102966
-7.7214e-09
1.53226e-07
0.000101883
-7.83199e-08
1.56435e-07
0.000101859
-1.48133e-07
1.60497e-07
0.000101822
-2.14842e-07
1.65167e-07
0.000101798
-2.73418e-07
1.69882e-07
0.00010178
-3.2856e-07
1.7425e-07
0.000101749
-6.07835e-07
1.75604e-07
0.000103213
1.77946e-07
9.82599e-05
2.45081e-07
1.05639e-07
9.80938e-05
6.8744e-08
1.11083e-07
0.000101747
-6.03064e-09
1.13189e-07
0.000100672
-7.62953e-08
1.17799e-07
0.000100639
-1.45664e-07
1.23689e-07
0.000100595
-2.1243e-07
1.3064e-07
0.000100562
-2.72383e-07
1.37851e-07
0.000100532
-3.28534e-07
1.44424e-07
0.000100494
-6.06826e-07
1.43743e-07
0.00010193
1.51024e-07
9.70006e-05
2.49869e-07
6.77371e-08
9.8063e-05
7.19359e-08
7.42463e-08
0.000101737
-1.32939e-09
7.68527e-08
0.000100653
-7.01464e-08
8.27796e-08
0.000100621
-1.38391e-07
9.05384e-08
0.000100578
-2.04912e-07
1.00085e-07
0.000100547
-2.66227e-07
1.10623e-07
0.00010052
-3.25587e-07
1.21098e-07
0.000100482
-6.07018e-07
1.2375e-07
0.000101906
1.44047e-07
9.69756e-05
2.53192e-07
2.75926e-08
9.80384e-05
7.59151e-08
3.37838e-08
0.000101727
4.545e-09
3.7055e-08
0.000100638
-6.22979e-08
4.3881e-08
0.000100607
-1.28789e-07
5.29595e-08
0.000100568
-1.94395e-07
6.45953e-08
0.00010054
-2.56524e-07
7.82642e-08
0.000100517
-3.18525e-07
9.32164e-08
0.000100484
-5.96546e-07
1.01487e-07
0.000101883
1.41496e-07
9.69946e-05
2.57805e-07
-1.51373e-08
9.80323e-05
8.04535e-08
-9.89301e-09
0.00010174
1.13139e-08
-6.31357e-09
0.000100644
-5.29901e-08
6.80923e-10
0.000100615
-1.16904e-07
1.00642e-08