/*--------------------------------*- C++ -*----------------------------------*\
  =========                 |
  \\      /  F ield         | OpenFOAM: The Open Source CFD Toolbox
   \\    /   O peration     | Website:  https://openfoam.org
    \\  /    A nd           | Version:  6
     \\/     M anipulation  |
\*---------------------------------------------------------------------------*/
FoamFile
{
    version     2.0;
    format      ascii;
    class       volScalarField;
    location    "0.06";
    object      X;
}
// * * * * * * * * * * * * * * * * * * * * * * * * * * * * * * * * * * * * * //

dimensions      [0 1 0 0 0 0 0];

internalField   nonuniform List<scalar> 
56000
(
-0.00457383
-0.00558403
-0.00725945
-0.00923739
-0.0111778
-0.0127854
-0.0138217
-0.0141124
-0.0135497
-0.0120934
-0.00976834
-0.00666025
-0.00290927
0.00129766
0.00573527
0.0101484
0.0142597
0.0177776
0.020404
0.0218476
-0.00592117
-0.00712291
-0.00905361
-0.0112922
-0.0134691
-0.0152731
-0.016457
-0.0168417
-0.0163183
-0.0148478
-0.0124584
-0.00924076
-0.00534142
-0.000954401
0.00368767
0.00832212
0.0126635
0.0164092
0.0192426
0.0208338
-0.00827031
-0.00973015
-0.0120329
-0.0146706
-0.0172217
-0.0193435
-0.0207701
-0.0213122
-0.0208566
-0.019365
-0.0168706
-0.0134723
-0.00932774
-0.00464363
0.000333702
0.00532707
0.0100347
0.0141324
0.0172707
0.0190633
-0.0112538
-0.0129828
-0.0156929
-0.0187834
-0.0217703
-0.0242696
-0.025989
-0.0267234
-0.0263523
-0.0248367
-0.0222151
-0.0185966
-0.0141529
-0.00910762
-0.00372562
0.00169604
0.0068332
0.0113337
0.0148086
0.0168126
-0.0145193
-0.0165013
-0.0196064
-0.0231476
-0.0265771
-0.029466
-0.0314914
-0.0324291
-0.0321484
-0.0306084
-0.0278521
-0.0239999
-0.019239
-0.0138121
-0.0080055
-0.00213922
0.00343718
0.0083413
0.0121447
0.0143484
-0.0177487
-0.0199534
-0.0234133
-0.0273666
-0.0312071
-0.0344624
-0.0367787
-0.0379112
-0.0377181
-0.0361549
-0.0332689
-0.0291908
-0.0241237
-0.01833
-0.0121177
-0.00583057
0.000156404
0.00543179
0.00953146
0.0119114
-0.0206689
-0.0230577
-0.0268152
-0.0311186
-0.0353123
-0.0388856
-0.0414564
-0.0427606
-0.042645
-0.0410615
-0.0380603
-0.0337816
-0.0284429
-0.0223246
-0.0157555
-0.00910099
-0.00275913
0.00283321
0.00718225
0.00970812
-0.0230569
-0.0255869
-0.0295744
-0.0341508
-0.0386223
-0.0424475
-0.0452212
-0.0466629
-0.0466097
-0.0450098
-0.0419158
-0.0374752
-0.0319174
-0.0255381
-0.0186832
-0.0117361
-0.00511384
0.000726699
0.00526901
0.00790674
-0.0247436
-0.0273689
-0.0315127
-0.0362757
-0.0409381
-0.0449372
-0.0478515
-0.0493889
-0.0493793
-0.047768
-0.044609
-0.0400551
-0.0343441
-0.0277826
-0.0207287
-0.0135788
-0.00676316
-0.000752528
0.00392131
0.00663461
-0.0256155
-0.0282888
-0.0325115
-0.0373691
-0.0421285
-0.0462163
-0.0492025
-0.050789
-0.0508018
-0.0491846
-0.0459922
-0.04138
-0.0355903
-0.0289353
-0.0217794
-0.0145258
-0.00761158
-0.00151458
0.00322577
0.00597713
-0.0256155
-0.0282888
-0.0325115
-0.0373691
-0.0421285
-0.0462163
-0.0492025
-0.050789
-0.0508018
-0.0491846
-0.0459922
-0.04138
-0.0355903
-0.0289353
-0.0217794
-0.0145258
-0.00761159
-0.00151458
0.00322577
0.00597713
-0.0247436
-0.0273689
-0.0315127
-0.0362758
-0.0409381
-0.0449372
-0.0478515
-0.0493889
-0.0493793
-0.047768
-0.044609
-0.0400551
-0.0343441
-0.0277826
-0.0207287
-0.0135788
-0.00676316
-0.000752529
0.0039213
0.00663461
-0.0230569
-0.0255869
-0.0295744
-0.0341508
-0.0386223
-0.0424475
-0.0452212
-0.0466629
-0.0466097
-0.0450098
-0.0419158
-0.0374752
-0.0319174
-0.0255381
-0.0186832
-0.0117361
-0.00511384
0.000726697
0.00526901
0.00790674
-0.0206689
-0.0230577
-0.0268152
-0.0311186
-0.0353123
-0.0388856
-0.0414564
-0.0427606
-0.042645
-0.0410615
-0.0380603
-0.0337816
-0.0284429
-0.0223246
-0.0157555
-0.00910099
-0.00275914
0.0028332
0.00718225
0.00970812
-0.0177487
-0.0199534
-0.0234133
-0.0273666
-0.0312071
-0.0344624
-0.0367787
-0.0379113
-0.0377181
-0.0361549
-0.0332689
-0.0291908
-0.0241237
-0.01833
-0.0121177
-0.00583057
0.0001564
0.00543178
0.00953145
0.0119114
-0.0145193
-0.0165013
-0.0196064
-0.0231476
-0.0265771
-0.029466
-0.0314914
-0.0324291
-0.0321484
-0.0306084
-0.0278521
-0.0239999
-0.019239
-0.0138121
-0.0080055
-0.00213922
0.00343717
0.0083413
0.0121447
0.0143484
-0.0112538
-0.0129828
-0.0156929
-0.0187834
-0.0217703
-0.0242696
-0.025989
-0.0267234
-0.0263523
-0.0248367
-0.0222151
-0.0185966
-0.0141529
-0.00910763
-0.00372562
0.00169604
0.00683319
0.0113337
0.0148086
0.0168126
-0.00827032
-0.00973016
-0.0120329
-0.0146706
-0.0172217
-0.0193435
-0.0207701
-0.0213122
-0.0208566
-0.019365
-0.0168706
-0.0134723
-0.00932774
-0.00464363
0.000333698
0.00532706
0.0100347
0.0141324
0.0172707
0.0190633
-0.00592117
-0.00712291
-0.00905361
-0.0112922
-0.0134691
-0.0152731
-0.016457
-0.0168417
-0.0163183
-0.0148478
-0.0124584
-0.00924076
-0.00534143
-0.000954406
0.00368767
0.00832212
0.0126635
0.0164092
0.0192426
0.0208338
-0.00457383
-0.00558403
-0.00725946
-0.00923739
-0.0111778
-0.0127854
-0.0138218
-0.0141124
-0.0135497
-0.0120934
-0.00976834
-0.00666025
-0.00290927
0.00129766
0.00573527
0.0101484
0.0142597
0.0177776
0.020404
0.0218476
-0.00474103
-0.00575796
-0.00744819
-0.00945057
-0.0114268
-0.0130829
-0.0141819
-0.0145498
-0.0140785
-0.0127263
-0.0105153
-0.00752713
-0.00389703
0.000193529
0.00452467
0.00884591
0.0128834
0.0163473
0.0189395
0.0203673
-0.00608296
-0.00729067
-0.00923505
-0.0114968
-0.0137084
-0.0155601
-0.0168062
-0.0172684
-0.0168376
-0.0154732
-0.0132007
-0.0101064
-0.00633172
-0.0020647
0.00246787
0.00700838
0.0112751
0.014967
0.0177673
0.0193439
-0.00842255
-0.00988724
-0.012202
-0.0148609
-0.0174446
-0.0196126
-0.0211006
-0.0217205
-0.0213591
-0.0199768
-0.0176038
-0.0143346
-0.0103209
-0.00576284
-0.000900103
0.00399578
0.00862701
0.0126711
0.0157777
0.0175572
-0.0113937
-0.0131263
-0.0158463
-0.0189557
-0.0219728
-0.0245162
-0.0262958
-0.0271081
-0.026833
-0.0254303
-0.0229355
-0.019453
-0.0151478
-0.010236
-0.004975
0.000344641
0.00540308
0.00984976
0.0132941
0.0152865
-0.0146456
-0.01663
-0.019743
-0.0233004
-0.0267573
-0.0296879
-0.031772
-0.0327873
-0.0326042
-0.0311807
-0.028557
-0.0248479
-0.0202337
-0.0149484
-0.00926978
-0.00351063
0.00198426
0.00683392
0.0106076
0.0128009
-0.0178615
-0.0200674
-0.0235332
-0.0275001
-0.0313653
-0.0346599
-0.037033
-0.0382427
-0.0381482
-0.0367047
-0.0339565
-0.0300287
-0.0251162
-0.0194721
-0.0133948
-0.00722004
-0.00131759
0.00390238
0.00797288
0.0103432
-0.0207693
-0.0231584
-0.02692
-0.0312347
-0.0354507
-0.0390608
-0.0416867
-0.0430672
-0.0430511
-0.0415899
-0.0387311
-0.0346087
-0.0294318
-0.0234704
-0.0170427
-0.0105054
-0.00425105
0.00128477
0.00560484
0.00812167
-0.0231471
-0.0256766
-0.0296669
-0.0342528
-0.0387444
-0.0426044
-0.0454314
-0.0469487
-0.0469954
-0.0455198
-0.0425717
-0.0382923
-0.0329021
-0.0266857
-0.0199776
-0.0131519
-0.00661967
-0.000836717
0.0036766
0.00630568
-0.0248267
-0.0274509
-0.0315965
-0.0363677
-0.0410487
-0.0450811
-0.0480475
-0.0496599
-0.0497503
-0.0482646
-0.0452539
-0.0408647
-0.0353253
-0.0289309
-0.0220276
-0.0150021
-0.00827841
-0.00232622
0.00231854
0.00502341
-0.0256948
-0.0283668
-0.0325908
-0.0374559
-0.0422332
-0.0463534
-0.0493911
-0.0510522
-0.0511651
-0.0496741
-0.0466312
-0.0421854
-0.0365695
-0.0300836
-0.0230804
-0.0159528
-0.00913157
-0.00309348
0.00161772
0.00436074
-0.0256948
-0.0283668
-0.0325908
-0.0374559
-0.0422332
-0.0463534
-0.0493911
-0.0510522
-0.0511651
-0.0496741
-0.0466312
-0.0421854
-0.0365695
-0.0300836
-0.0230804
-0.0159528
-0.00913157
-0.00309349
0.00161772
0.00436074
-0.0248267
-0.0274509
-0.0315965
-0.0363677
-0.0410487
-0.0450811
-0.0480475
-0.0496599
-0.0497503
-0.0482646
-0.0452539
-0.0408647
-0.0353253
-0.0289309
-0.0220276
-0.0150021
-0.00827841
-0.00232622
0.00231854
0.0050234
-0.0231471
-0.0256766
-0.0296669
-0.0342528
-0.0387444
-0.0426044
-0.0454314
-0.0469487
-0.0469954
-0.0455198
-0.0425717
-0.0382923
-0.0329021
-0.0266857
-0.0199776
-0.0131519
-0.00661967
-0.00083672
0.0036766
0.00630568
-0.0207693
-0.0231584
-0.02692
-0.0312347
-0.0354507
-0.0390608
-0.0416867
-0.0430672
-0.0430511
-0.0415899
-0.0387311
-0.0346087
-0.0294318
-0.0234704
-0.0170427
-0.0105054
-0.00425106
0.00128477
0.00560483
0.00812167
-0.0178615
-0.0200674
-0.0235332
-0.0275001
-0.0313653
-0.0346599
-0.037033
-0.0382427
-0.0381482
-0.0367047
-0.0339565
-0.0300287
-0.0251162
-0.0194721
-0.0133948
-0.00722004
-0.00131759
0.00390238
0.00797288
0.0103432
-0.0146456
-0.01663
-0.019743
-0.0233004
-0.0267574
-0.029688
-0.031772
-0.0327873
-0.0326042
-0.0311807
-0.028557
-0.024848
-0.0202337
-0.0149484
-0.00926979
-0.00351064
0.00198426
0.00683391
0.0106076
0.0128009
-0.0113937
-0.0131263
-0.0158463
-0.0189557
-0.0219728
-0.0245162
-0.0262958
-0.0271081
-0.026833
-0.0254303
-0.0229355
-0.019453
-0.0151478
-0.010236
-0.00497501
0.000344637
0.00540308
0.00984976
0.0132941
0.0152865
-0.00842255
-0.00988724
-0.012202
-0.0148609
-0.0174446
-0.0196126
-0.0211006
-0.0217205
-0.0213591
-0.0199768
-0.0176038
-0.0143346
-0.0103209
-0.00576284
-0.000900107
0.00399578
0.008627
0.0126711
0.0157777
0.0175572
-0.00608296
-0.00729067
-0.00923505
-0.0114968
-0.0137084
-0.0155601
-0.0168062
-0.0172684
-0.0168376
-0.0154732
-0.0132007
-0.0101064
-0.00633173
-0.00206471
0.00246786
0.00700838
0.0112751
0.014967
0.0177673
0.0193439
-0.00474103
-0.00575797
-0.00744819
-0.00945058
-0.0114268
-0.0130829
-0.0141819
-0.0145498
-0.0140785
-0.0127263
-0.0105153
-0.00752713
-0.00389703
0.000193525
0.00452467
0.0088459
0.0128834
0.0163473
0.0189395
0.0203673
-0.0049231
-0.00594696
-0.0076523
-0.00967948
-0.0116916
-0.0133964
-0.0145574
-0.0150011
-0.0146189
-0.0133673
-0.0112655
-0.00839147
-0.00487558
-0.000894283
0.00333745
0.00757332
0.0115425
0.0149565
0.0175172
0.0189303
-0.00625972
-0.00747361
-0.00943204
-0.0117175
-0.013964
-0.0158635
-0.0171714
-0.0177099
-0.0173693
-0.0161075
-0.0139469
-0.0109701
-0.00731309
-0.00315863
0.00127182
0.00572514
0.00992273
0.0135651
0.0163349
0.0178981
-0.00858989
-0.0100597
-0.0123868
-0.0150675
-0.0176845
-0.0198989
-0.0214482
-0.0221448
-0.0218755
-0.020599
-0.0183425
-0.015196
-0.0113058
-0.00686574
-0.0021097
0.00269589
0.00725663
0.0112514
0.0143288
0.0160962
-0.0115489
-0.0132854
-0.0160159
-0.0191448
-0.0221929
-0.024781
-0.026621
-0.0275104
-0.0273293
-0.0260362
-0.0236632
-0.0203099
-0.0161353
-0.0113484
-0.00619981
-0.00097447
0.00401152
0.00840877
0.0118251
0.0138067
-0.0147873
-0.0167744
-0.0198959
-0.0234704
-0.0269559
-0.0299292
-0.0320724
-0.0331651
-0.0330778
-0.0317675
-0.0292711
-0.0256983
-0.0212222
-0.0160692
-0.0105093
-0.00484899
0.00057107
0.00537087
0.00911743
0.011301
-0.0179897
-0.0201972
-0.0236696
-0.0276512
-0.0315426
-0.0348776
-0.0373086
-0.0385954
-0.0385983
-0.0372714
-0.0346557
-0.0308707
-0.0261039
-0.0205994
-0.0146472
-0.00857589
-0.00275087
0.00241854
0.00646246
0.00882395
-0.0208852
-0.023275
-0.0270415
-0.0313689
-0.0356086
-0.0392572
-0.0419393
-0.0433967
-0.043479
-0.0421372
-0.0394154
-0.0354419
-0.0304172
-0.0246021
-0.0183054
-0.0118759
-0.0057015
-0.000217115
0.00407663
0.00658525
-0.023253
-0.0257824
-0.0297762
-0.034373
-0.0388865
-0.042783
-0.0456651
-0.0472587
-0.0474046
-0.0460505
-0.043243
-0.0391172
-0.0338847
-0.0278201
-0.0212478
-0.0145335
-0.00808348
-0.00235285
0.00213422
0.00475546
-0.0249253
-0.027549
-0.0316972
-0.036478
-0.0411794
-0.0452471
-0.0482676
-0.0499559
-0.0501459
-0.0487832
-0.0459155
-0.041683
-0.0363053
-0.0300666
-0.0233026
-0.0163912
-0.00975132
-0.00385215
0.00076633
0.00346358
-0.0257898
-0.0284609
-0.032687
-0.0375611
-0.0423581
-0.046513
-0.0496042
-0.0513408
-0.0515536
-0.0501862
-0.0472876
-0.0430003
-0.0375479
-0.0312199
-0.0243577
-0.0173456
-0.0106091
-0.00462439
6.04926e-05
0.002796
-0.0257898
-0.0284609
-0.032687
-0.0375611
-0.0423581
-0.046513
-0.0496042
-0.0513408
-0.0515536
-0.0501862
-0.0472876
-0.0430003
-0.0375479
-0.0312199
-0.0243577
-0.0173456
-0.0106091
-0.00462439
6.04921e-05
0.002796
-0.0249253
-0.027549
-0.0316972
-0.036478
-0.0411794
-0.0452471
-0.0482676
-0.0499559
-0.0501459
-0.0487832
-0.0459155
-0.041683
-0.0363053
-0.0300666
-0.0233026
-0.0163912
-0.00975132
-0.00385215
0.000766328
0.00346358
-0.023253
-0.0257824
-0.0297762
-0.034373
-0.0388865
-0.042783
-0.0456651
-0.0472587
-0.0474046
-0.0460505
-0.043243
-0.0391172
-0.0338847
-0.0278201
-0.0212478
-0.0145335
-0.00808349
-0.00235286
0.00213421
0.00475546
-0.0208852
-0.023275
-0.0270415
-0.0313689
-0.0356086
-0.0392572
-0.0419393
-0.0433967
-0.043479
-0.0421372
-0.0394154
-0.0354419
-0.0304172
-0.0246021
-0.0183054
-0.0118759
-0.00570151
-0.000217122
0.00407662
0.00658524
-0.0179897
-0.0201972
-0.0236696
-0.0276512
-0.0315426
-0.0348776
-0.0373086
-0.0385954
-0.0385983
-0.0372714
-0.0346557
-0.0308707
-0.0261039
-0.0205994
-0.0146472
-0.0085759
-0.00275087
0.00241853
0.00646245
0.00882394
-0.0147873
-0.0167744
-0.0198959
-0.0234704
-0.0269559
-0.0299292
-0.0320724
-0.0331651
-0.0330778
-0.0317675
-0.0292711
-0.0256983
-0.0212222
-0.0160692
-0.0105093
-0.00484899
0.000571066
0.00537087
0.00911743
0.011301
-0.0115489
-0.0132854
-0.0160159
-0.0191448
-0.0221929
-0.024781
-0.026621
-0.0275104
-0.0273293
-0.0260362
-0.0236632
-0.0203099
-0.0161353
-0.0113484
-0.00619982
-0.000974474
0.00401152
0.00840876
0.0118251
0.0138067
-0.00858989
-0.0100597
-0.0123868
-0.0150675
-0.0176845
-0.0198989
-0.0214482
-0.0221448
-0.0218755
-0.020599
-0.0183425
-0.015196
-0.0113058
-0.00686575
-0.0021097
0.00269589
0.00725662
0.0112514
0.0143288
0.0160962
-0.00625972
-0.00747361
-0.00943204
-0.0117175
-0.013964
-0.0158635
-0.0171714
-0.0177099
-0.0173693
-0.0161075
-0.0139469
-0.0109701
-0.00731309
-0.00315863
0.00127181
0.00572514
0.00992273
0.0135651
0.0163349
0.0178981
-0.0049231
-0.00594697
-0.0076523
-0.00967948
-0.0116916
-0.0133964
-0.0145574
-0.0150011
-0.0146189
-0.0133673
-0.0112655
-0.00839147
-0.00487558
-0.000894287
0.00333745
0.00757331
0.0115425
0.0149565
0.0175172
0.0189303
-0.00511884
-0.0061498
-0.00787051
-0.00992275
-0.011971
-0.0137242
-0.0149466
-0.0154648
-0.0151695
-0.0140152
-0.0120185
-0.00925329
-0.00584567
-0.00196733
0.00217124
0.00632748
0.0102332
0.0136009
0.0161325
0.0175321
-0.00645027
-0.00767054
-0.00964334
-0.0119528
-0.0142345
-0.0161818
-0.017551
-0.0181644
-0.0179119
-0.0167495
-0.0146966
-0.0118317
-0.00828622
-0.00423774
9.71055e-05
0.00446921
0.00860269
0.0121992
0.0149408
0.0164916
-0.00877121
-0.0102464
-0.0125863
-0.0152893
-0.0179399
-0.020201
-0.0218112
-0.0225836
-0.0224043
-0.0212303
-0.0190857
-0.0160563
-0.0122829
-0.00795386
-0.00329754
0.00142409
0.00591955
0.00986874
0.0129192
0.0146755
-0.0117183
-0.013459
-0.0162005
-0.0193495
-0.0224293
-0.0250626
-0.0269629
-0.0279287
-0.0278398
-0.0266529
-0.024397
-0.021167
-0.0171159
-0.0124462
-0.00740252
-0.00226467
0.00265438
0.00700608
0.0103966
0.0123684
-0.0149435
-0.0169336
-0.0200642
-0.0236566
-0.0271715
-0.0301882
-0.032391
-0.0335604
-0.0335674
-0.0323671
-0.0299932
-0.0265503
-0.0222048
-0.0171759
-0.0117266
-0.00615772
-0.000806628
0.00394736
0.00766901
0.00984373
-0.0181326
-0.0203421
-0.0238217
-0.0278191
-0.0317376
-0.0351142
-0.0376036
-0.0389674
-0.0390663
-0.0378529
-0.0353649
-0.0317161
-0.0270868
-0.0217131
-0.0158773
-0.00990157
-0.00414773
0.000975328
0.00499491
0.0073483
-0.021016
-0.0234068
-0.027179
-0.03152
-0.0357848
-0.0394731
-0.0422126
-0.0437469
-0.0439266
-0.0427013
-0.0401117
-0.03628
-0.0313991
-0.025721
-0.0195459
-0.0132158
-0.00711481
-0.00167745
0.00259227
0.00509334
-0.0233737
-0.0259035
-0.0299016
-0.0345104
-0.0390473
-0.0429821
-0.0459204
-0.0475908
-0.047835
-0.0465997
-0.0439278
-0.0399484
-0.0348649
-0.0289423
-0.0224959
-0.0158844
-0.00950964
-0.00382674
0.000636426
0.0032505
-0.025039
-0.0276625
-0.0318141
-0.0366058
-0.0413293
-0.0454341
-0.04851
-0.0502748
-0.0505638
-0.0493213
-0.0465917
-0.0425089
-0.0372837
-0.0311906
-0.0245557
-0.0177494
-0.0111862
-0.00533537
-0.000740774
0.00194953
-0.0258998
-0.0285704
-0.0327996
-0.0376839
-0.0425023
-0.0466936
-0.0498399
-0.0516529
-0.0519648
-0.0507186
-0.0479593
-0.0438233
-0.0385253
-0.0323447
-0.0256133
-0.0187075
-0.0120484
-0.00611236
-0.00145137
0.00127728
-0.0258998
-0.0285704
-0.0327996
-0.0376839
-0.0425023
-0.0466936
-0.0498399
-0.0516529
-0.0519648
-0.0507186
-0.0479593
-0.0438233
-0.0385253
-0.0323447
-0.0256133
-0.0187075
-0.0120484
-0.00611236
-0.00145137
0.00127728
-0.025039
-0.0276625
-0.0318141
-0.0366058
-0.0413293
-0.0454341
-0.04851
-0.0502748
-0.0505638
-0.0493213
-0.0465917
-0.0425089
-0.0372837
-0.0311906
-0.0245557
-0.0177494
-0.0111862
-0.00533537
-0.000740776
0.00194953
-0.0233737
-0.0259035
-0.0299016
-0.0345105
-0.0390473
-0.0429821
-0.0459204
-0.0475908
-0.047835
-0.0465997
-0.0439278
-0.0399484
-0.0348649
-0.0289423
-0.0224959
-0.0158844
-0.00950965
-0.00382674
0.000636423
0.0032505
-0.021016
-0.0234068
-0.027179
-0.03152
-0.0357849
-0.0394731
-0.0422126
-0.0437469
-0.0439267
-0.0427013
-0.0401117
-0.03628
-0.0313992
-0.025721
-0.0195459
-0.0132158
-0.00711481
-0.00167745
0.00259226
0.00509334
-0.0181326
-0.0203421
-0.0238217
-0.0278191
-0.0317376
-0.0351142
-0.0376036
-0.0389674
-0.0390663
-0.0378529
-0.0353649
-0.0317161
-0.0270869
-0.0217131
-0.0158773
-0.00990157
-0.00414774
0.000975324
0.00499491
0.00734829
-0.0149435
-0.0169336
-0.0200642
-0.0236566
-0.0271715
-0.0301882
-0.032391
-0.0335604
-0.0335674
-0.0323671
-0.0299933
-0.0265503
-0.0222048
-0.0171759
-0.0117266
-0.00615772
-0.000806632
0.00394736
0.00766901
0.00984373
-0.0117183
-0.013459
-0.0162005
-0.0193495
-0.0224293
-0.0250626
-0.0269629
-0.0279287
-0.0278398
-0.0266529
-0.024397
-0.021167
-0.0171159
-0.0124462
-0.00740252
-0.00226468
0.00265438
0.00700608
0.0103966
0.0123684
-0.00877122
-0.0102464
-0.0125863
-0.0152893
-0.0179399
-0.020201
-0.0218112
-0.0225836
-0.0224043
-0.0212303
-0.0190857
-0.0160563
-0.0122829
-0.00795387
-0.00329754
0.00142409
0.00591955
0.00986873
0.0129192
0.0146755
-0.00645027
-0.00767054
-0.00964335
-0.0119528
-0.0142345
-0.0161818
-0.017551
-0.0181644
-0.017912
-0.0167495
-0.0146966
-0.0118317
-0.00828623
-0.00423774
9.71012e-05
0.00446921
0.00860269
0.0121992
0.0149408
0.0164916
-0.00511884
-0.0061498
-0.00787051
-0.00992275
-0.0119711
-0.0137242
-0.0149466
-0.0154648
-0.0151695
-0.0140152
-0.0120185
-0.00925329
-0.00584568
-0.00196734
0.00217124
0.00632748
0.0102331
0.0136009
0.0161325
0.0175321
-0.00532672
-0.00636492
-0.00810126
-0.0101788
-0.0122633
-0.0140647
-0.015348
-0.0159395
-0.015729
-0.0146692
-0.0127737
-0.0101128
-0.00680823
-0.00302729
0.00102365
0.00510536
0.00895185
0.0122767
0.0147813
0.0161684
-0.00665311
-0.00787996
-0.00986743
-0.0122012
-0.0145183
-0.0165133
-0.0179432
-0.0186306
-0.0184643
-0.0173983
-0.0154492
-0.0126915
-0.00925206
-0.00530372
-0.00105873
0.00323745
0.00731126
0.0108652
0.0135808
0.0151201
-0.00896508
-0.0104458
-0.012799
-0.0155246
-0.0182092
-0.0205171
-0.0221879
-0.0230351
-0.0229439
-0.0218696
-0.0198329
-0.0169155
-0.0132532
-0.00902893
-0.00446616
0.000177114
0.00461192
0.0085189
0.0115445
0.0132905
-0.0119006
-0.0136458
-0.0163987
-0.0195684
-0.0226803
-0.0253592
-0.0273198
-0.0283612
-0.0283628
-0.0272792
-0.0251363
-0.0220243
-0.0180903
-0.0135312
-0.00858572
-0.00352936
0.00132763
0.00563725
0.00900404
0.0109666
-0.0151128
-0.0171063
-0.0202465
-0.0238575
-0.0274026
-0.0304633
-0.0327258
-0.0339716
-0.0340712
-0.0329782
-0.0307226
-0.0274038
-0.0231821
-0.01827
-0.0129241
-0.00744032
-0.00215302
0.00255875
0.00625747
0.00842397
-0.0182889
-0.0205008
-0.0239883
-0.0280022
-0.0319488
-0.0353678
-0.0379161
-0.0393568
-0.0395503
-0.0384478
-0.036083
-0.0325645
-0.0280656
-0.0228149
-0.0170877
-0.0112006
-0.00551247
-0.000432016
0.00356521
0.0059111
-0.0211604
-0.0235527
-0.0273313
-0.0316869
-0.0359779
-0.0397071
-0.0425047
-0.044116
-0.044392
-0.0432805
-0.0408185
-0.0371225
-0.032378
-0.0268285
-0.0207667
-0.0145288
-0.00849531
-0.0031011
0.00114659
0.0036407
-0.0235084
-0.0260388
-0.0300421
-0.034664
-0.0392254
-0.0431997
-0.0461954
-0.0479429
-0.0482845
-0.0471653
-0.0446247
-0.0407853
-0.0358429
-0.0300536
-0.0237246
-0.017208
-0.0109025
-0.0052633
-0.000822011
0.00178544
-0.0251667
-0.0277904
-0.0319463
-0.0367499
-0.0414969
-0.0456402
-0.0487728
-0.0506147
-0.0510018
-0.0498771
-0.0472811
-0.0433414
-0.0382607
-0.0323042
-0.0257895
-0.0190802
-0.0125876
-0.00678084
-0.00220807
0.000475816
-0.0260238
-0.0286945
-0.0329274
-0.0378232
-0.0426644
-0.0468937
-0.0500963
-0.0519864
-0.0523967
-0.0512691
-0.0486446
-0.0446534
-0.0395016
-0.0334594
-0.0268496
-0.020042
-0.013454
-0.00756237
-0.00292319
-0.000200863
-0.0260238
-0.0286945
-0.0329274
-0.0378232
-0.0426644
-0.0468937
-0.0500963
-0.0519864
-0.0523967
-0.0512691
-0.0486446
-0.0446534
-0.0395016
-0.0334594
-0.0268496
-0.020042
-0.013454
-0.00756237
-0.00292319
-0.000200864
-0.0251667
-0.0277904
-0.0319463
-0.0367499
-0.0414969
-0.0456402
-0.0487728
-0.0506147
-0.0510018
-0.0498771
-0.0472811
-0.0433414
-0.0382607
-0.0323042
-0.0257895
-0.0190802
-0.0125876
-0.00678084
-0.00220807
0.000475814
-0.0235084
-0.0260388
-0.0300421
-0.034664
-0.0392254
-0.0431997
-0.0461954
-0.0479429
-0.0482845
-0.0471654
-0.0446247
-0.0407853
-0.0358429
-0.0300536
-0.0237246
-0.017208
-0.0109025
-0.00526331
-0.000822014
0.00178544
-0.0211604
-0.0235527
-0.0273313
-0.0316869
-0.0359779
-0.0397071
-0.0425047
-0.0441161
-0.044392
-0.0432805
-0.0408185
-0.0371225
-0.032378
-0.0268285
-0.0207667
-0.0145288
-0.00849531
-0.0031011
0.00114659
0.0036407
-0.0182889
-0.0205008
-0.0239883
-0.0280022
-0.0319488
-0.0353678
-0.0379161
-0.0393568
-0.0395503
-0.0384478
-0.036083
-0.0325645
-0.0280656
-0.0228149
-0.0170877
-0.0112006
-0.00551247
-0.00043202
0.0035652
0.0059111
-0.0151128
-0.0171063
-0.0202465
-0.0238575
-0.0274026
-0.0304633
-0.0327258
-0.0339716
-0.0340712
-0.0329782
-0.0307226
-0.0274038
-0.0231821
-0.01827
-0.0129241
-0.00744032
-0.00215302
0.00255874
0.00625746
0.00842397
-0.0119006
-0.0136458
-0.0163987
-0.0195684
-0.0226803
-0.0253592
-0.0273198
-0.0283612
-0.0283628
-0.0272792
-0.0251364
-0.0220243
-0.0180903
-0.0135312
-0.00858573
-0.00352937
0.00132763
0.00563725
0.00900403
0.0109666
-0.00896509
-0.0104458
-0.012799
-0.0155246
-0.0182092
-0.0205171
-0.0221879
-0.0230351
-0.0229439
-0.0218696
-0.0198329
-0.0169155
-0.0132532
-0.00902893
-0.00446616
0.000177109
0.00461192
0.0085189
0.0115445
0.0132905
-0.00665312
-0.00787997
-0.00986743
-0.0122012
-0.0145183
-0.0165133
-0.0179432
-0.0186306
-0.0184643
-0.0173983
-0.0154492
-0.0126915
-0.00925206
-0.00530373
-0.00105873
0.00323745
0.00731125
0.0108652
0.0135808
0.0151201
-0.00532672
-0.00636493
-0.00810126
-0.0101788
-0.0122633
-0.0140647
-0.015348
-0.0159395
-0.015729
-0.0146692
-0.0127737
-0.0101128
-0.00680824
-0.00302729
0.00102365
0.00510536
0.00895185
0.0122767
0.0147813
0.0161684
-0.00554486
-0.00659047
-0.00834265
-0.0104457
-0.0125666
-0.014416
-0.0157596
-0.0164235
-0.0162961
-0.0153284
-0.013531
-0.0109703
-0.00776429
-0.00407589
-0.000107725
0.00390401
0.00769525
0.0109803
0.01346
0.0148355
-0.0068664
-0.00810002
-0.0101024
-0.0124608
-0.0148134
-0.0168561
-0.0183465
-0.0191068
-0.019025
-0.018053
-0.0162044
-0.0135498
-0.0102117
-0.00635841
-0.00219819
0.00202676
0.00604491
0.00955936
0.0122509
0.0137796
-0.00916969
-0.0106563
-0.013023
-0.0157717
-0.0184905
-0.0208453
-0.0225766
-0.0234976
-0.0234931
-0.0225159
-0.0205838
-0.0177741
-0.0142177
-0.0100928
-0.00561822
-0.00104834
0.00332999
0.00719786
0.0102005
0.0119371
-0.0120939
-0.0138439
-0.0166087
-0.0197997
-0.0229442
-0.0256689
-0.0276897
-0.0288062
-0.0288967
-0.0279141
-0.0258806
-0.0228819
-0.0190597
-0.0146053
-0.00975221
-0.00477203
2.72838e-05
0.00429798
0.00764286
0.00959698
-0.0152935
-0.0172908
-0.0204412
-0.0240714
-0.0276473
-0.0307525
-0.0330749
-0.0343967
-0.0345877
-0.0335995
-0.0314584
-0.0282589
-0.0241553
-0.0193537
-0.0141049
-0.00870041
-0.00347228
0.0012005
0.00487812
0.00703705
-0.018457
-0.0206716
-0.0241677
-0.0281988
-0.0321743
-0.0356365
-0.0382443
-0.0397616
-0.0400487
-0.0390545
-0.0368093
-0.0334159
-0.0290412
-0.0239067
-0.0182812
-0.0124767
-0.00684941
-0.00180822
0.00216845
0.00450743
-0.0213169
-0.0237111
-0.0274967
-0.0318678
-0.036186
-0.039957
-0.0428134
-0.0445019
-0.0448732
-0.0438732
-0.0415351
-0.0379694
-0.0333545
-0.0279265
-0.0219708
-0.0158185
-0.00984746
-0.00449293
-0.000265465
0.0022222
-0.0236553
-0.026187
-0.0301961
-0.034832
-0.0394191
-0.0434341
-0.046488
-0.0483128
-0.0487511
-0.0477459
-0.0453325
-0.0416277
-0.0368194
-0.0311559
-0.0249366
-0.0185082
-0.0122666
-0.00666751
-0.00224628
0.000355026
-0.0253068
-0.0279313
-0.0320921
-0.0369088
-0.0416804
-0.0458634
-0.0490538
-0.0509732
-0.0514578
-0.0504487
-0.0479824
-0.0441802
-0.0392368
-0.0334091
-0.0270068
-0.0203875
-0.0139598
-0.00819357
-0.00364081
-0.000962896
-0.0261604
-0.0288316
-0.033069
-0.0379772
-0.0428425
-0.0471112
-0.0503713
-0.0523389
-0.0528472
-0.051836
-0.0493424
-0.0454901
-0.0404774
-0.0345655
-0.0280694
-0.0213528
-0.0148304
-0.00897944
-0.00436026
-0.00164382
-0.0261604
-0.0288316
-0.033069
-0.0379772
-0.0428425
-0.0471112
-0.0503713
-0.0523389
-0.0528472
-0.051836
-0.0493424
-0.0454901
-0.0404774
-0.0345655
-0.0280694
-0.0213528
-0.0148304
-0.00897944
-0.00436026
-0.00164382
-0.0253068
-0.0279313
-0.0320921
-0.0369088
-0.0416804
-0.0458634
-0.0490538
-0.0509732
-0.0514578
-0.0504487
-0.0479824
-0.0441802
-0.0392368
-0.0334091
-0.0270068
-0.0203875
-0.0139598
-0.00819357
-0.00364081
-0.000962898
-0.0236553
-0.026187
-0.0301961
-0.034832
-0.0394191
-0.0434341
-0.046488
-0.0483128
-0.0487511
-0.0477459
-0.0453325
-0.0416277
-0.0368194
-0.0311559
-0.0249366
-0.0185082
-0.0122666
-0.00666751
-0.00224628
0.000355024
-0.0213169
-0.0237111
-0.0274967
-0.0318678
-0.036186
-0.039957
-0.0428134
-0.0445019
-0.0448732
-0.0438732
-0.0415351
-0.0379694
-0.0333545
-0.0279265
-0.0219708
-0.0158185
-0.00984746
-0.00449293
-0.000265468
0.00222219
-0.018457
-0.0206716
-0.0241677
-0.0281988
-0.0321743
-0.0356365
-0.0382443
-0.0397616
-0.0400487
-0.0390545
-0.0368093
-0.0334159
-0.0290412
-0.0239067
-0.0182812
-0.0124767
-0.00684942
-0.00180823
0.00216844
0.00450743
-0.0152935
-0.0172908
-0.0204412
-0.0240714
-0.0276473
-0.0307526
-0.0330749
-0.0343967
-0.0345877
-0.0335995
-0.0314584
-0.028259
-0.0241553
-0.0193537
-0.0141049
-0.00870041
-0.00347229
0.00120049
0.00487811
0.00703705
-0.0120939
-0.0138439
-0.0166087
-0.0197997
-0.0229442
-0.0256689
-0.0276897
-0.0288062
-0.0288967
-0.0279141
-0.0258806
-0.0228819
-0.0190597
-0.0146053
-0.00975221
-0.00477203
2.72793e-05
0.00429797
0.00764286
0.00959697
-0.0091697
-0.0106563
-0.013023
-0.0157717
-0.0184905
-0.0208453
-0.0225766
-0.0234976
-0.0234931
-0.0225159
-0.0205838
-0.0177741
-0.0142177
-0.0100928
-0.00561823
-0.00104834
0.00332998
0.00719786
0.0102005
0.0119371
-0.00686641
-0.00810003
-0.0101024
-0.0124608
-0.0148135
-0.0168561
-0.0183465
-0.0191068
-0.019025
-0.018053
-0.0162044
-0.0135498
-0.0102117
-0.00635842
-0.00219819
0.00202676
0.0060449
0.00955936
0.0122509
0.0137796
-0.00554487
-0.00659048
-0.00834266
-0.0104457
-0.0125666
-0.014416
-0.0157596
-0.0164235
-0.0162961
-0.0153284
-0.013531
-0.0109703
-0.0077643
-0.0040759
-0.00010773
0.003904
0.00769525
0.0109803
0.0134599
0.0148355
-0.00577104
-0.00682421
-0.00859248
-0.0107213
-0.0128786
-0.0147762
-0.0161797
-0.0169151
-0.0168696
-0.015992
-0.0142899
-0.0118263
-0.00871496
-0.00511492
-0.00122524
0.00272063
0.00646028
0.00970842
0.0121652
0.0135303
-0.00708792
-0.0083285
-0.0103462
-0.0127293
-0.0151178
-0.0172082
-0.0187587
-0.0195912
-0.0195926
-0.0187127
-0.0169618
-0.0144069
-0.0111662
-0.00740371
-0.00332381
0.00083415
0.00480035
0.00827828
0.0109478
0.0124668
-0.00938285
-0.0108755
-0.0132561
-0.0160283
-0.0187817
-0.0211836
-0.0229751
-0.0239695
-0.0240503
-0.0231683
-0.0213379
-0.0186324
-0.0151778
-0.0111477
-0.00675649
-0.00225556
0.00207012
0.00590184
0.00888353
0.0106115
-0.0122962
-0.0140513
-0.0168284
-0.0200411
-0.0232187
-0.0259895
-0.0280706
-0.0292617
-0.0294401
-0.0285565
-0.0266295
-0.0237403
-0.0200254
-0.0156706
-0.010905
-0.00599625
-0.00125064
0.00298412
0.00630897
0.00825546
-0.0154836
-0.017485
-0.020646
-0.0242961
-0.0279034
-0.0310537
-0.0334363
-0.0348337
-0.0351152
-0.0342298
-0.0322003
-0.0291161
-0.0251257
-0.0204291
-0.015272
-0.00994181
-0.0047687
-0.00013187
0.00352645
0.00567852
-0.0186348
-0.0208526
-0.0243577
-0.0284068
-0.032412
-0.0359181
-0.0385858
-0.0401797
-0.0405595
-0.0396719
-0.0375431
-0.0342706
-0.0300148
-0.0249907
-0.0194612
-0.0137339
-0.00816307
-0.00315805
0.000799814
0.00313249
-0.0214835
-0.02388
-0.0276732
-0.0320606
-0.0364069
-0.0402207
-0.0431366
-0.0449024
-0.0453682
-0.044478
-0.0422605
-0.0388207
-0.03433
-0.0290172
-0.0231614
-0.017089
-0.0111759
-0.0058579
-0.00164896
0.000832771
-0.0238126
-0.0263459
-0.0303615
-0.0350124
-0.0396262
-0.0436829
-0.0467959
-0.0486985
-0.0492327
-0.0483398
-0.0460505
-0.0424756
-0.0377957
-0.0322514
-0.0261353
-0.0197891
-0.0136066
-0.00804445
-0.00364162
-0.001046
-0.0254575
-0.0280831
-0.0322497
-0.0370802
-0.0418776
-0.0461016
-0.0493507
-0.0513481
-0.0519297
-0.0510345
-0.0486947
-0.0450253
-0.0402133
-0.0345076
-0.0282108
-0.0216755
-0.0153078
-0.00957876
-0.00504434
-0.00237199
-0.0263076
-0.0289798
-0.0332225
-0.0381441
-0.0430347
-0.0473439
-0.0506625
-0.0527082
-0.053314
-0.0524175
-0.0500517
-0.0463336
-0.0414538
-0.0356654
-0.0292761
-0.0226442
-0.0161824
-0.0103688
-0.00576797
-0.00305704
-0.0263076
-0.0289798
-0.0332225
-0.0381441
-0.0430347
-0.0473439
-0.0506625
-0.0527082
-0.053314
-0.0524175
-0.0500517
-0.0463336
-0.0414538
-0.0356654
-0.0292761
-0.0226442
-0.0161824
-0.0103688
-0.00576797
-0.00305704
-0.0254575
-0.0280831
-0.0322497
-0.0370802
-0.0418776
-0.0461016
-0.0493507
-0.0513481
-0.0519297
-0.0510345
-0.0486947
-0.0450253
-0.0402133
-0.0345076
-0.0282108
-0.0216755
-0.0153078
-0.00957876
-0.00504434
-0.00237199
-0.0238126
-0.0263459
-0.0303615
-0.0350124
-0.0396262
-0.0436829
-0.0467959
-0.0486985
-0.0492327
-0.0483398
-0.0460505
-0.0424756
-0.0377957
-0.0322514
-0.0261353
-0.0197891
-0.0136066
-0.00804446
-0.00364162
-0.00104601
-0.0214835
-0.02388