/*--------------------------------*- C++ -*----------------------------------*\
  =========                 |
  \\      /  F ield         | OpenFOAM: The Open Source CFD Toolbox
   \\    /   O peration     | Website:  https://openfoam.org
    \\  /    A nd           | Version:  6
     \\/     M anipulation  |
\*---------------------------------------------------------------------------*/
FoamFile
{
    version     2.0;
    format      ascii;
    class       volVectorField;
    location    "0.086";
    object      U;
}
// * * * * * * * * * * * * * * * * * * * * * * * * * * * * * * * * * * * * * //

dimensions      [0 1 -1 0 0 0 0];

internalField   nonuniform List<vector> 
70400
(
(3.1394e-06 3.01975e-05 0.0562138)
(0.000152269 3.22882e-05 0.12393)
(0.000443237 2.09862e-05 0.171688)
(0.00086216 1.15212e-05 0.208117)
(0.00138882 4.40795e-06 0.237066)
(0.00201543 -2.28666e-07 0.260644)
(0.00274216 -2.64341e-06 0.280162)
(0.00357653 -3.01699e-06 0.296501)
(0.00453307 -1.30158e-06 0.310269)
(0.00563315 2.79026e-06 0.321873)
(0.00690451 9.77499e-06 0.331559)
(0.00837968 2.03187e-05 0.339408)
(0.0100911 3.49286e-05 0.345308)
(0.0120575 5.30292e-05 0.348863)
(0.0142503 7.04989e-05 0.349211)
(0.0165172 7.32867e-05 0.344644)
(0.0184082 2.46058e-05 0.33181)
(0.0187923 -0.000139088 0.303982)
(0.015426 -0.000363236 0.247013)
(0.00651006 0.000334937 0.129848)
(3.94829e-05 0.000123774 0.1242)
(0.000485459 0.000162867 0.303295)
(0.00128491 0.000125526 0.438534)
(0.0023904 7.75747e-05 0.544322)
(0.00375708 3.64007e-05 0.629095)
(0.00537037 7.84453e-06 0.698151)
(0.00723281 -6.00751e-06 0.755002)
(0.00936315 -3.81059e-06 0.802055)
(0.0117959 1.6457e-05 0.840959)
(0.0145806 5.81818e-05 0.872784)
(0.0177802 0.000126521 0.898091)
(0.0214665 0.000228561 0.916925)
(0.0257064 0.000372819 0.928694)
(0.0305271 0.00056681 0.931919)
(0.0358319 0.000809491 0.923704)
(0.0412096 0.00107246 0.89872)
(0.0454929 0.00126134 0.847239)
(0.0458217 0.00113515 0.751291)
(0.036927 0.000250556 0.577616)
(0.0152245 -0.000697054 0.269805)
(6.73226e-05 0.000180357 0.17226)
(0.000771409 0.000261253 0.438784)
(0.0019961 0.000218168 0.648295)
(0.0036573 0.000144021 0.815755)
(0.00568858 7.41726e-05 0.951409)
(0.00807112 2.43944e-05 1.06236)
(0.0108101 2.46762e-06 1.15363)
(0.0139332 1.3709e-05 1.22873)
(0.0174892 6.39511e-05 1.29011)
(0.0215472 0.000161196 1.33934)
(0.0261937 0.00031663 1.37714)
(0.0315242 0.000545102 1.40341)
(0.0376227 0.00086452 1.41699)
(0.0445088 0.00129241 1.41527)
(0.0520144 0.00183535 1.39347)
(0.0595079 0.00246302 1.34311)
(0.0652674 0.00305424 1.24954)
(0.0651857 0.00329079 1.08721)
(0.0519308 0.00254621 0.812512)
(0.0208807 0.000798594 0.360693)
(8.7144e-05 0.000200836 0.208667)
(0.000992854 0.000310063 0.543868)
(0.00255416 0.000273145 0.814447)
(0.00465335 0.000188821 1.03448)
(0.00720281 0.000103799 1.21457)
(0.0101785 4.26483e-05 1.36263)
(0.0135873 1.94109e-05 1.48451)
(0.0174635 4.41788e-05 1.58448)
(0.0218672 0.000127073 1.66551)
(0.0268823 0.000280659 1.72948)
(0.032612 0.000521438 1.7772)
(0.0391686 0.000870516 1.80836)
(0.0466453 0.0013528 1.82124)
(0.0550504 0.00199272 1.81227)
(0.0641529 0.00280183 1.77508)
(0.0731458 0.0037488 1.69884)
(0.0798909 0.0046961 1.56546)
(0.0793889 0.00527354 1.34476)
(0.0628713 0.00470218 0.987722)
(0.0250412 0.00227864 0.426776)
(0.000100152 0.000192682 0.23692)
(0.00115479 0.000311302 0.626127)
(0.00297171 0.000284933 0.94597)
(0.00540594 0.000203939 1.20948)
(0.00835093 0.000118017 1.42706)
(0.0117767 5.65991e-05 1.60683)
(0.0156906 3.82738e-05 1.75505)
(0.0201319 7.69984e-05 1.8764)
(0.0251699 0.000186271 1.97416)
(0.0309003 0.000381839 2.05039)
(0.03744 0.000683366 2.1059)
(0.0449139 0.00111507 2.14018)
(0.0534224 0.00170457 2.15104)
(0.0629638 0.00247801 2.13413)
(0.0732582 0.00344657 2.08189)
(0.0833648 0.00457496 1.98183)
(0.0908353 0.00571449 1.81363)
(0.0900157 0.00646739 1.54431)
(0.0710782 0.00597254 1.12179)
(0.0282041 0.00312489 0.477135)
(0.000108379 0.000167202 0.258822)
(0.0012685 0.000279346 0.690108)
(0.00327241 0.000263021 1.04889)
(0.00595493 0.000193377 1.34735)
(0.0091941 0.000116687 1.59549)
(0.0129543 6.29215e-05 1.8014)
(0.0172423 5.24414e-05 1.97148)
(0.0221016 0.000101095 2.11056)
(0.0276085 0.000223966 2.22212)
(0.0338688 0.00043793 2.30828)
(0.0410107 0.000763228 2.36984)
(0.04917 0.0012239 2.40605)
(0.0584532 0.00184636 2.4144)
(0.0688521 0.00265424 2.38993)
(0.0800502 0.003655 2.32426)
(0.0910073 0.00480954 2.20378)
(0.0990437 0.00596813 2.00673)
(0.0980155 0.0067402 1.69841)
(0.0772899 0.00627811 1.22481)
(0.0306174 0.00335531 0.515922)
(0.000113373 0.00013294 0.275431)
(0.00134537 0.000227667 0.738693)
(0.00348084 0.000218878 1.12731)
(0.0063407 0.00016426 1.45283)
(0.00979151 0.00010253 1.72488)
(0.0137928 6.05031e-05 1.95142)
(0.0183508 5.74072e-05 2.13882)
(0.0235117 0.000108633 2.292)
(0.0293581 0.000228722 2.41447)
(0.0360035 0.00043349 2.50839)
(0.0435856 0.000741305 2.57448)
(0.0522493 0.0011733 2.61188)
(0.0621069 0.00175188 2.61777)
(0.0731462 0.0024958 2.58679)
(0.0850248 0.00340819 2.50999)
(0.0966294 0.00444998 2.37304)
(0.105109 0.00548441 2.15329)
(0.103956 0.00616493 1.8149)
(0.0819288 0.00574502 1.30257)
(0.0324302 0.00308846 0.545311)
(0.000116254 9.52477e-05 0.287413)
(0.00139488 0.000166023 0.773761)
(0.00361824 0.000161995 1.18402)
(0.00659832 0.000123417 1.5293)
(0.0101938 7.90717e-05 1.81894)
(0.0143607 4.98838e-05 2.06074)
(0.0191045 5.14436e-05 2.26101)
(0.0244738 9.64879e-05 2.42467)
(0.0305553 0.000197011 2.55524)
(0.037469 0.000365815 2.65486)
(0.0453598 0.000617413 2.72421)
(0.0543798 0.000968084 2.7623)
(0.0646462 0.00143454 2.76612)
(0.0761445 0.0020299 2.73005)
(0.0885147 0.00275426 2.64477)
(0.100592 0.00357411 2.4955)
(0.109404 0.00437997 2.25902)
(0.108182 0.00490093 1.89878)
(0.0852434 0.00455882 1.35854)
(0.033731 0.00245276 0.566539)
(0.000117789 5.69108e-05 0.295192)
(0.00142408 0.00010034 0.796532)
(0.00370084 9.88464e-05 1.22088)
(0.0067549 7.60617e-05 1.57909)
(0.0104402 4.9612e-05 1.88028)
(0.0147102 3.27238e-05 2.13214)
(0.0195702 3.54967e-05 2.34092)
(0.0250702 6.6293e-05 2.51151)
(0.0312997 0.000132977 2.64743)
(0.0383833 0.000243843 2.7508)
(0.0464707 0.000408146 2.82225)
(0.055719 0.000636082 2.86071)
(0.0662487 0.000937871 2.86307)
(0.0780447 0.00132113 2.82352)
(0.0907353 0.00178485 2.73256)
(0.103123 0.00230645 2.57512)
(0.112157 0.00281526 2.32765)
(0.1109 0.00313943 1.95317)
(0.0873828 0.00291471 1.39485)
(0.0345729 0.00156727 0.580345)
(0.000118445 1.88955e-05 0.299021)
(0.00143755 3.35033e-05 0.807743)
(0.00373946 3.31596e-05 1.23904)
(0.00682864 2.56433e-05 1.60363)
(0.0105568 1.68796e-05 1.91054)
(0.0148763 1.13849e-05 2.16739)
(0.0197921 1.26499e-05 2.38041)
(0.025355 2.35838e-05 2.55445)
(0.0316561 4.69214e-05 2.69303)
(0.038822 8.55307e-05 2.79826)
(0.0470051 0.000142586 2.87074)
(0.056365 0.000221553 2.90936)
(0.067024 0.00032586 2.91097)
(0.0789665 0.000457989 2.86967)
(0.0918156 0.000617406 2.77585)
(0.104357 0.000796145 2.61434)
(0.113503 0.000969808 2.36143)
(0.112232 0.00107956 1.97994)
(0.0884329 0.00100117 1.41272)
(0.0349867 0.000538045 0.587151)
(0.000118445 -1.88964e-05 0.299021)
(0.00143755 -3.35055e-05 0.807743)
(0.00373946 -3.31625e-05 1.23904)
(0.00682864 -2.56464e-05 1.60363)
(0.0105568 -1.68826e-05 1.91054)
(0.0148763 -1.13877e-05 2.16739)
(0.0197921 -1.26524e-05 2.38041)
(0.025355 -2.35857e-05 2.55445)
(0.0316561 -4.69227e-05 2.69303)
(0.038822 -8.55312e-05 2.79826)
(0.0470051 -0.000142586 2.87074)
(0.056365 -0.000221552 2.90936)
(0.067024 -0.000325858 2.91097)
(0.0789665 -0.000457986 2.86967)
(0.0918156 -0.000617402 2.77585)
(0.104357 -0.000796141 2.61434)
(0.113503 -0.000969804 2.36143)
(0.112232 -0.00107955 1.97994)
(0.0884329 -0.00100117 1.41272)
(0.0349867 -0.000538045 0.587151)
(0.000117789 -5.69118e-05 0.295192)
(0.00142408 -0.000100343 0.796532)
(0.00370084 -9.88492e-05 1.22088)
(0.0067549 -7.60647e-05 1.57909)
(0.0104402 -4.96149e-05 1.88028)
(0.0147102 -3.27266e-05 2.13214)
(0.0195702 -3.54991e-05 2.34092)
(0.0250701 -6.62949e-05 2.51151)
(0.0312997 -0.000132978 2.64743)
(0.0383833 -0.000243844 2.7508)
(0.0464707 -0.000408146 2.82225)
(0.055719 -0.000636081 2.86071)
(0.0662487 -0.000937868 2.86307)
(0.0780447 -0.00132113 2.82352)
(0.0907353 -0.00178485 2.73256)
(0.103123 -0.00230644 2.57512)
(0.112157 -0.00281526 2.32765)
(0.1109 -0.00313943 1.95317)
(0.0873828 -0.00291471 1.39485)
(0.0345729 -0.00156727 0.580345)
(0.000116254 -9.52487e-05 0.287413)
(0.00139488 -0.000166025 0.773761)
(0.00361824 -0.000161998 1.18402)
(0.00659832 -0.00012342 1.5293)
(0.0101938 -7.90745e-05 1.81894)
(0.0143607 -4.98864e-05 2.06074)
(0.0191045 -5.14458e-05 2.26101)
(0.0244738 -9.64897e-05 2.42467)
(0.0305553 -0.000197013 2.55524)
(0.037469 -0.000365816 2.65486)
(0.0453598 -0.000617413 2.72421)
(0.0543798 -0.000968083 2.7623)
(0.0646462 -0.00143454 2.76612)
(0.0761445 -0.0020299 2.73005)
(0.0885147 -0.00275425 2.64477)
(0.100592 -0.00357411 2.4955)
(0.109404 -0.00437996 2.25902)
(0.108182 -0.00490093 1.89878)
(0.0852434 -0.00455882 1.35854)
(0.033731 -0.00245276 0.566539)
(0.000113373 -0.000132941 0.275431)
(0.00134538 -0.00022767 0.738693)
(0.00348084 -0.000218881 1.12731)
(0.0063407 -0.000164263 1.45283)
(0.0097915 -0.000102533 1.72488)
(0.0137928 -6.05054e-05 1.95142)
(0.0183508 -5.74092e-05 2.13882)
(0.0235117 -0.000108635 2.292)
(0.029358 -0.000228723 2.41447)
(0.0360035 -0.000433491 2.50839)
(0.0435856 -0.000741305 2.57448)
(0.0522493 -0.0011733 2.61188)
(0.0621069 -0.00175188 2.61777)
(0.0731462 -0.0024958 2.58679)
(0.0850248 -0.00340819 2.50999)
(0.0966294 -0.00444997 2.37304)
(0.105109 -0.00548441 2.15329)
(0.103956 -0.00616493 1.8149)
(0.0819288 -0.00574502 1.30257)
(0.0324302 -0.00308846 0.545311)
(0.000108379 -0.000167204 0.258822)
(0.00126851 -0.000279349 0.690108)
(0.00327241 -0.000263025 1.04889)
(0.00595493 -0.00019338 1.34735)
(0.0091941 -0.00011669 1.59549)
(0.0129543 -6.29235e-05 1.8014)
(0.0172423 -5.24431e-05 1.97148)
(0.0221016 -0.000101097 2.11056)
(0.0276085 -0.000223967 2.22212)
(0.0338688 -0.000437931 2.30828)
(0.0410107 -0.000763228 2.36984)
(0.04917 -0.0012239 2.40605)
(0.0584532 -0.00184636 2.4144)
(0.0688521 -0.00265424 2.38993)
(0.0800502 -0.003655 2.32426)
(0.0910073 -0.00480954 2.20378)
(0.0990437 -0.00596813 2.00673)
(0.0980155 -0.0067402 1.69841)
(0.0772899 -0.00627811 1.22481)
(0.0306174 -0.00335531 0.515922)
(0.000100153 -0.000192685 0.23692)
(0.00115479 -0.000311307 0.626127)
(0.00297171 -0.000284937 0.94597)
(0.00540595 -0.000203942 1.20948)
(0.00835093 -0.000118019 1.42706)
(0.0117767 -5.66009e-05 1.60683)
(0.0156906 -3.82753e-05 1.75505)
(0.0201319 -7.69996e-05 1.8764)
(0.0251699 -0.000186272 1.97416)
(0.0309003 -0.00038184 2.05039)
(0.03744 -0.000683367 2.1059)
(0.0449139 -0.00111507 2.14018)
(0.0534224 -0.00170457 2.15104)
(0.0629638 -0.00247801 2.13413)
(0.0732582 -0.00344657 2.08189)
(0.0833648 -0.00457496 1.98183)
(0.0908353 -0.00571449 1.81363)
(0.0900157 -0.00646739 1.54431)
(0.0710782 -0.00597254 1.12179)
(0.0282041 -0.00312489 0.477135)
(8.7145e-05 -0.000200842 0.208667)
(0.000992858 -0.000310073 0.543868)
(0.00255417 -0.000273152 0.814447)
(0.00465335 -0.000188825 1.03448)
(0.00720281 -0.000103801 1.21457)
(0.0101785 -4.26498e-05 1.36263)
(0.0135873 -1.9412e-05 1.48451)
(0.0174635 -4.41797e-05 1.58448)
(0.0218672 -0.000127074 1.66551)
(0.0268823 -0.00028066 1.72948)
(0.032612 -0.000521438 1.7772)
(0.0391686 -0.000870516 1.80836)
(0.0466453 -0.0013528 1.82124)
(0.0550504 -0.00199272 1.81227)
(0.0641529 -0.00280183 1.77508)
(0.0731458 -0.0037488 1.69884)
(0.0798909 -0.0046961 1.56546)
(0.0793889 -0.00527354 1.34476)
(0.0628713 -0.00470218 0.987722)
(0.0250412 -0.00227864 0.426776)
(6.73246e-05 -0.000180373 0.17226)
(0.000771422 -0.000261272 0.438784)
(0.00199611 -0.000218177 0.648295)
(0.0036573 -0.000144025 0.815755)
(0.00568859 -7.41747e-05 0.951409)
(0.00807112 -2.43957e-05 1.06236)
(0.0108101 -2.4686e-06 1.15363)
(0.0139332 -1.37098e-05 1.22873)
(0.0174892 -6.39518e-05 1.29011)
(0.0215472 -0.000161197 1.33934)
(0.0261937 -0.00031663 1.37714)
(0.0315242 -0.000545102 1.40341)
(0.0376227 -0.000864521 1.41699)
(0.0445088 -0.00129241 1.41527)
(0.0520144 -0.00183535 1.39347)
(0.0595079 -0.00246302 1.34311)
(0.0652674 -0.00305424 1.24954)
(0.0651857 -0.00329079 1.08721)
(0.0519308 -0.00254621 0.812512)
(0.0208807 -0.000798595 0.360693)
(3.9498e-05 -0.000123845 0.1242)
(0.000485505 -0.000162913 0.303295)
(0.00128493 -0.000125539 0.438534)
(0.00239041 -7.75777e-05 0.544322)
(0.00375709 -3.64019e-05 0.629095)
(0.00537037 -7.84516e-06 0.698151)
(0.00723281 6.00706e-06 0.755002)
(0.00936315 3.81021e-06 0.802055)
(0.0117959 -1.64573e-05 0.840959)
(0.0145806 -5.81822e-05 0.872784)
(0.0177802 -0.000126521 0.898091)
(0.0214665 -0.000228561 0.916925)
(0.0257064 -0.000372819 0.928694)
(0.0305271 -0.000566811 0.931919)
(0.0358319 -0.000809492 0.923704)
(0.0412096 -0.00107246 0.89872)
(0.0454929 -0.00126134 0.847239)
(0.0458217 -0.00113515 0.751291)
(0.036927 -0.000250557 0.577616)
(0.0152245 0.000697054 0.269805)
(3.18427e-06 -3.02425e-05 0.0562138)
(0.00015234 -3.23034e-05 0.12393)
(0.000443253 -2.09879e-05 0.171688)
(0.000862165 -1.15222e-05 0.208117)
(0.00138882 -4.40846e-06 0.237066)
(0.00201543 2.28496e-07 0.260644)
(0.00274217 2.64337e-06 0.280162)
(0.00357653 3.01701e-06 0.296502)
(0.00453307 1.30164e-06 0.310269)
(0.00563315 -2.79018e-06 0.321873)
(0.00690451 -9.7749e-06 0.331559)
(0.00837968 -2.03185e-05 0.339408)
(0.0100911 -3.49285e-05 0.345308)
(0.0120575 -5.3029e-05 0.348863)
(0.0142503 -7.04987e-05 0.349211)
(0.0165173 -7.32864e-05 0.344644)
(0.0184082 -2.46053e-05 0.33181)
(0.0187923 0.000139088 0.303982)
(0.015426 0.000363236 0.247013)
(0.00651006 -0.000334938 0.129848)
(2.48305e-06 9.57374e-05 0.0559092)
(0.000404066 0.000110022 0.123289)
(0.0012074 8.09924e-05 0.170821)
(0.0023837 5.49905e-05 0.207071)
(0.00387985 3.4683e-05 0.235857)
(0.00567401 2.06816e-05 0.259266)
(0.00776597 1.21588e-05 0.278595)
(0.0101764 8.26561e-06 0.29471)
(0.0129465 8.64526e-06 0.308202)
(0.0161385 1.35207e-05 0.319465)
(0.0198352 2.3724e-05 0.328726)
(0.0241387 4.06525e-05 0.336057)
(0.0291635 6.59082e-05 0.341345)
(0.0350142 9.99522e-05 0.344243)
(0.0417275 0.000138024 0.344047)
(0.049137 0.00015777 0.339472)
(0.0565358 9.07509e-05 0.328154)
(0.0617548 -0.000195278 0.305335)
(0.0587136 -0.000257983 0.259568)
(0.0420372 0.00313925 0.155292)
(0.000102625 0.000418064 0.12355)
(0.00135063 0.00060045 0.301773)
(0.00363162 0.000527539 0.43638)
(0.00682559 0.000403871 0.541658)
(0.0108115 0.000287106 0.625974)
(0.0155483 0.000196717 0.694572)
(0.0210415 0.000138256 0.750924)
(0.0273419 0.000113142 0.797402)
(0.0345456 0.000123356 0.835619)
(0.0427931 0.000173774 0.866611)
(0.0522666 0.0002737 0.890909)
(0.0631822 0.000438186 0.908538)
(0.0757642 0.000688925 0.918933)
(0.0901793 0.00105317 0.920751)
(0.106376 0.0015563 0.911503)
(0.123719 0.00219961 0.886878)
(0.140096 0.00291581 0.8394)
(0.149677 0.00346111 0.755395)
(0.13833 0.00335661 0.606896)
(0.0951655 0.00399021 0.32416)
(0.000184721 0.00065276 0.171377)
(0.00221183 0.00103396 0.436627)
(0.00579593 0.000984255 0.645173)
(0.0107099 0.000802203 0.811844)
(0.0167687 0.000603982 0.94679)
(0.023918 0.000439983 1.05705)
(0.0321684 0.000331571 1.14757)
(0.0415925 0.000289021 1.22183)
(0.0523227 0.000321313 1.28223)
(0.0645487 0.0004417 1.33027)
(0.0785111 0.000671515 1.36668)
(0.0944848 0.00104333 1.39132)
(0.112736 0.00160337 1.4031)
(0.133415 0.00241106 1.39964)
(0.156314 0.00352998 1.37676)
(0.180322 0.00499782 1.32748)
(0.202146 0.00675806 1.24029)
(0.213232 0.00849254 1.09545)
(0.193855 0.00930924 0.855925)
(0.130226 0.00822217 0.436548)
(0.000248418 0.000778495 0.207613)
(0.0029248 0.00131431 0.541236)
(0.00760234 0.0013195 0.810589)
(0.0139512 0.00112377 1.02961)
(0.0217203 0.000881698 1.20878)
(0.030837 0.000670899 1.35596)
(0.0413126 0.00053021 1.47691)
(0.0532335 0.000481449 1.57584)
(0.0667563 0.000542658 1.65567)
(0.0821023 0.000736361 1.71824)
(0.0995468 0.00109536 1.76432)
(0.119395 0.00166737 1.79359)
(0.141923 0.00251824 1.80446)
(0.167239 0.00373146 1.79365)
(0.194975 0.00539676 1.75558)
(0.223619 0.00757261 1.68125)
(0.248974 0.0101943 1.55636)
(0.260538 0.0128451 1.35756)
(0.234692 0.0142362 1.04304)
(0.155745 0.011605 0.519275)
(0.000294673 0.000799173 0.235736)
(0.00348687 0.00141185 0.623135)
(0.0090499 0.00147314 0.941552)
(0.016566 0.00129741 1.20388)
(0.0257216 0.0010515 1.42038)
(0.0364224 0.000828206 1.59911)
(0.0486752 0.000679131 1.74626)
(0.0625738 0.000635967 1.86642)
(0.0782909 0.000724695 1.96284)
(0.0960686 0.000975119 2.03751)
(0.116204 0.00142771 2.09124)
(0.139019 0.0021388 2.1235)
(0.164788 0.00318373 2.13227)
(0.193574 0.00465522 2.11354)
(0.224876 0.00664921 2.06069)
(0.256871 0.00922095 1.96333)
(0.284689 0.0122772 1.80537)
(0.296412 0.0153109 1.56135)
(0.265572 0.0167785 1.1868)
(0.175055 0.0130029 0.58259)
(0.000327736 0.000739842 0.257539)
(0.00391558 0.00135126 0.686844)
(0.0101725 0.00145097 1.04405)
(0.0186108 0.00131143 1.34118)
(0.0288632 0.00109051 1.58813)
(0.0408129 0.000882859 1.7929)
(0.0544596 0.000745198 1.96179)
(0.0698998 0.000714498 2.09959)
(0.0873166 0.000821184 2.20971)
(0.106966 0.00109849 2.29422)
(0.129161 0.00158928 2.35389)
(0.154233 0.00235098 2.38803)
(0.182451 0.00345807 2.39426)
(0.213843 0.00499905 2.36805)
(0.247805 0.00706052 2.30205)
(0.28228 0.00968111 2.18491)
(0.311903 0.012741 1.99947)
(0.323705 0.0156971 1.71901)
(0.289079 0.0169635 1.29744)
(0.189771 0.0127032 0.631358)
(0.000350832 0.000623677 0.274075)
(0.00423152 0.00116709 0.735228)
(0.0110117 0.00128004 1.12216)
(0.0201519 0.00117988 1.44625)
(0.0312416 0.00100076 1.71703)
(0.0441443 0.000827652 1.94234)
(0.0588512 0.000714263 2.12848)
(0.0754594 0.000697104 2.28031)
(0.0941581 0.000806422 2.40127)
(0.115214 0.00107427 2.49348)
(0.138949 0.00154045 2.55765)
(0.165703 0.00225669 2.59294)
(0.195741 0.00328812 2.59671)
(0.229066 0.00470963 2.56408)
(0.264996 0.00659006 2.48717)
(0.301305 0.00894958 2.35407)
(0.332265 0.01166 2.14694)
(0.344135 0.0142117 1.83831)
(0.3067 0.0151745 1.38098)
(0.200815 0.0111001 0.668246)
(0.000366318 0.000469095 0.286005)
(0.00445267 0.000892933 0.770154)
(0.011606 0.00099415 1.17865)
(0.0212503 0.00092944 1.52243)
(0.032944 0.00079986 1.81074)
(0.0465345 0.000671943 2.05125)
(0.0620056 0.000589315 2.25022)
(0.0794535 0.000582528 2.41248)
(0.0990715 0.000677037 2.54149)
(0.121133 0.000899317 2.63937)
(0.145967 0.00128139 2.70677)
(0.173919 0.00186385 2.74274)
(0.205252 0.00269666 2.74447)
(0.23995 0.00383562 2.70681)
(0.27728 0.00532909 2.6216)
(0.314897 0.00718378 2.47654)
(0.346817 0.00928662 2.2534)
(0.358748 0.0112252 1.92423)
(0.319321 0.011877 1.4411)
(0.208731 0.00855223 0.69484)
(0.000375817 0.000290261 0.29375)
(0.00459266 0.000558576 0.792834)
(0.0119852 0.000627908 1.21537)
(0.0219548 0.000592472 1.57203)
(0.0340395 0.000514748 1.87185)
(0.0480758 0.0004369 2.12239)
(0.0640419 0.000387232 2.32984)
(0.0820331 0.000385935 2.499)
(0.102245 0.000449907 2.63335)
(0.124954 0.000596527 2.73495)
(0.150497 0.000846463 2.80443)
(0.17922 0.00122548 2.84078)
(0.211386 0.0017648 2.84106)
(0.246968 0.0024985 2.79998)
(0.285201 0.00345481 2.7092)
(0.323663 0.00463404 2.5562)
(0.356207 0.00595908 2.32252)
(0.368186 0.00716302 1.97996)
(0.327481 0.00753338 1.48008)
(0.213851 0.00537192 0.712106)
(0.000380331 9.81573e-05 0.297564)
(0.00466044 0.0001899 0.804)
(0.0121697 0.000214479 1.23346)
(0.0222987 0.000203296 1.59649)
(0.0345753 0.000177461 1.902)
(0.0488306 0.000151393 2.15752)
(0.06504 0.000134882 2.36919)
(0.083298 0.000134974 2.54179)
(0.103801 0.000157581 2.67879)
(0.126828 0.000208751 2.78224)
(0.152718 0.000295615 2.85274)
(0.181819 0.000426993 2.88925)
(0.214394 0.000613476 2.88879)
(0.250409 0.0008665 2.84598)
(0.289085 0.00119529 2.7524)
(0.327963 0.00159928 2.59545)
(0.360815 0.00205115 2.35655)
(0.372819 0.0024587 2.00739)
(0.33149 0.00257811 1.49927)
(0.216366 0.00182985 0.720608)
(0.000380331 -9.81577e-05 0.297564)
(0.00466044 -0.000189902 0.804)
(0.0121697 -0.000214481 1.23346)
(0.0222987 -0.000203298 1.59649)
(0.0345753 -0.000177464 1.902)
(0.0488306 -0.000151397 2.15752)
(0.06504 -0.000134886 2.36919)
(0.083298 -0.000134978 2.54179)
(0.103801 -0.000157585 2.67879)
(0.126828 -0.000208754 2.78224)
(0.152718 -0.000295617 2.85274)
(0.181819 -0.000426994 2.88925)
(0.214394 -0.000613476 2.88879)
(0.250409 -0.0008665 2.84598)
(0.289085 -0.00119529 2.7524)
(0.327963 -0.00159928 2.59545)
(0.360815 -0.00205115 2.35655)
(0.372819 -0.0024587 2.00739)
(0.33149 -0.00257811 1.49927)
(0.216366 -0.00182985 0.720608)
(0.000375818 -0.000290262 0.29375)
(0.00459266 -0.000558578 0.792834)
(0.0119852 -0.00062791 1.21537)
(0.0219548 -0.000592475 1.57203)
(0.0340395 -0.000514751 1.87185)
(0.0480758 -0.000436903 2.12239)
(0.0640419 -0.000387236 2.32984)
(0.0820331 -0.000385938 2.499)
(0.102245 -0.00044991 2.63335)
(0.124954 -0.00059653 2.73495)
(0.150497 -0.000846465 2.80443)
(0.17922 -0.00122548 2.84078)
(0.211386 -0.0017648 2.84106)
(0.246968 -0.0024985 2.79998)
(0.285201 -0.00345481 2.7092)
(0.323663 -0.00463404 2.5562)
(0.356207 -0.00595908 2.32252)
(0.368186 -0.00716302 1.97996)
(0.327481 -0.00753338 1.48008)
(0.213851 -0.00537192 0.712106)
(0.000366318 -0.000469095 0.286005)
(0.00445267 -0.000892935 0.770154)
(0.011606 -0.000994152 1.17865)
(0.0212503 -0.000929443 1.52243)
(0.032944 -0.000799863 1.81074)
(0.0465345 -0.000671946 2.05125)
(0.0620056 -0.000589319 2.25022)
(0.0794535 -0.000582531 2.41248)
(0.0990715 -0.000677041 2.54149)
(0.121133 -0.000899319 2.63937)
(0.145967 -0.00128139 2.70677)
(0.173919 -0.00186385 2.74274)
(0.205252 -0.00269666 2.74447)
(0.23995 -0.00383562 2.70681)
(0.27728 -0.00532909 2.6216)
(0.314897 -0.00718378 2.47654)
(0.346817 -0.00928662 2.2534)
(0.358748 -0.0112252 1.92423)
(0.319321 -0.011877 1.4411)
(0.208731 -0.00855223 0.69484)
(0.000350832 -0.000623678 0.274075)
(0.00423152 -0.00116709 0.735228)
(0.0110117 -0.00128004 1.12216)
(0.0201519 -0.00117988 1.44625)
(0.0312416 -0.00100076 1.71703)
(0.0441443 -0.000827655 1.94234)
(0.0588512 -0.000714266 2.12848)
(0.0754594 -0.000697107 2.28031)
(0.0941582 -0.000806425 2.40127)
(0.115214 -0.00107427 2.49348)
(0.138949 -0.00154046 2.55765)
(0.165703 -0.00225669 2.59294)
(0.195741 -0.00328812 2.59671)
(0.229066 -0.00470963 2.56408)
(0.264996 -0.00659006 2.48717)
(0.301305 -0.00894958 2.35407)
(0.332265 -0.01166 2.14694)
(0.344135 -0.0142117 1.83831)
(0.3067 -0.0151745 1.38098)
(0.200815 -0.0111001 0.668246)
(0.000327736 -0.000739844 0.257539)
(0.00391558 -0.00135126 0.686844)
(0.0101725 -0.00145097 1.04405)
(0.0186108 -0.00131144 1.34118)
(0.0288632 -0.00109051 1.58813)
(0.0408129 -0.000882862 1.7929)
(0.0544596 -0.0007452 1.96179)
(0.0698999 -0.0007145 2.09959)
(0.0873166 -0.000821187 2.20971)
(0.106966 -0.00109849 2.29422)
(0.129161 -0.00158928 2.35389)
(0.154233 -0.00235098 2.38803)
(0.182451 -0.00345807 2.39426)
(0.213843 -0.00499905 2.36805)
(0.247805 -0.00706052 2.30205)
(0.28228 -0.00968111 2.18491)
(0.311903 -0.012741 1.99947)
(0.323705 -0.0156971 1.71901)
(0.289079 -0.0169636 1.29744)
(0.189771 -0.0127032 0.631358)
(0.000294674 -0.000799175 0.235736)
(0.00348688 -0.00141185 0.623135)
(0.00904991 -0.00147314 0.941552)
(0.016566 -0.00129742 1.20388)
(0.0257216 -0.00105151 1.42038)
(0.0364224 -0.000828208 1.59911)
(0.0486752 -0.000679134 1.74626)
(0.0625738 -0.000635969 1.86642)
(0.0782909 -0.000724697 1.96284)
(0.0960686 -0.000975121 2.03751)
(0.116204 -0.00142771 2.09124)
(0.139019 -0.0021388 2.1235)
(0.164788 -0.00318373 2.13227)
(0.193574 -0.00465522 2.11354)
(0.224876 -0.00664921 2.06069)
(0.256871 -0.00922095 1.96333)
(0.284689 -0.0122772 1.80537)
(0.296412 -0.0153109 1.56135)
(0.265572 -0.0167785 1.1868)
(0.175055 -0.0130029 0.58259)
(0.000248419 -0.000778499 0.207613)
(0.0029248 -0.00131432 0.541236)
(0.00760234 -0.00131951 0.810589)
(0.0139512 -0.00112377 1.02961)
(0.0217203 -0.000881701 1.20878)
(0.030837 -0.0006709 1.35596)
(0.0413126 -0.000530211 1.47691)
(0.0532335 -0.00048145 1.57584)
(0.0667563 -0.00054266 1.65567)
(0.0821023 -0.000736362 1.71824)
(0.0995468 -0.00109536 1.76432)
(0.119395 -0.00166737 1.79359)
(0.141923 -0.00251825 1.80446)
(0.167239 -0.00373146 1.79365)
(0.194975 -0.00539676 1.75558)
(0.223619 -0.00757261 1.68125)
(0.248974 -0.0101943 1.55636)
(0.260538 -0.0128451 1.35756)
(0.234692 -0.0142362 1.04304)
(0.155745 -0.011605 0.519275)
(0.000184723 -0.000652767 0.171377)
(0.00221184 -0.00103398 0.436627)
(0.00579594 -0.000984263 0.645173)
(0.0107099 -0.000802207 0.811844)
(0.0167687 -0.000603984 0.94679)
(0.023918 -0.000439984 1.05705)
(0.0321684 -0.000331572 1.14757)
(0.0415925 -0.000289021 1.22183)
(0.0523227 -0.000321314 1.28223)
(0.0645487 -0.000441701 1.33027)
(0.0785111 -0.000671515 1.36668)
(0.0944848 -0.00104334 1.39132)
(0.112736 -0.00160337 1.4031)
(0.133415 -0.00241106 1.39964)
(0.156314 -0.00352998 1.37676)
(0.180322 -0.00499782 1.32748)
(0.202146 -0.00675806 1.24029)
(0.213232 -0.00849254 1.09545)
(0.193855 -0.00930924 0.855925)
(0.130226 -0.00822218 0.436548)
(0.000102633 -0.000418086 0.12355)
(0.00135066 -0.000600476 0.301773)
(0.00363163 -0.000527548 0.43638)
(0.0068256 -0.000403873 0.541658)
(0.0108115 -0.000287107 0.625974)
(0.0155483 -0.000196717 0.694572)
(0.0210415 -0.000138257 0.750924)
(0.0273419 -0.000113142 0.797402)
(0.0345456 -0.000123356 0.835619)
(0.0427931 -0.000173775 0.866611)
(0.0522666 -0.0002737 0.890909)
(0.0631822 -0.000438186 0.908538)
(0.0757642 -0.000688925 0.918933)
(0.0901793 -0.00105317 0.920751)
(0.106376 -0.0015563 0.911503)
(0.123719 -0.00219961 0.886878)
(0.140096 -0.00291581 0.8394)
(0.149677 -0.00346111 0.755395)
(0.13833 -0.00335661 0.606896)
(0.0951655 -0.00399021 0.32416)
(2.49646e-06 -9.57505e-05 0.0559093)
(0.000404089 -0.00011003 0.123289)
(0.00120741 -8.09942e-05 0.170821)
(0.0023837 -5.49914e-05 0.207071)
(0.00387985 -3.46834e-05 0.235857)
(0.00567401 -2.06818e-05 0.259266)
(0.00776598 -1.21589e-05 0.278595)
(0.0101764 -8.26563e-06 0.29471)
(0.0129465 -8.64525e-06 0.308202)
(0.0161385 -1.35207e-05 0.319465)
(0.0198352 -2.37239e-05 0.328726)
(0.0241387 -4.06525e-05 0.336057)
(0.0291636 -6.5908e-05 0.341345)
(0.0350142 -9.9952e-05 0.344243)
(0.0417275 -0.000138023 0.344047)
(0.049137 -0.000157769 0.339472)
(0.0565358 -9.07505e-05 0.328154)
(0.0617548 0.000195278 0.305335)
(0.0587136 0.000257982 0.259568)
(0.0420372 -0.00313926 0.155292)
(1.13517e-06 0.000157913 0.0553115)
(0.000637917 0.000183967 0.122027)
(0.00192103 0.000138262 0.16911)
(0.00380725 9.65733e-05 0.205006)
(0.006211 6.36812e-05 0.233472)
(0.00909462 4.06786e-05 0.256555)
(0.0124538 2.62021e-05 0.275523)
(0.0163165 1.87729e-05 0.291215)
(0.0207428 1.76832e-05 0.304194)
(0.0258251 2.32391e-05 0.314822)
(0.0316893 3.70603e-05 0.323295)
(0.0384971 6.27182e-05 0.329643)
(0.0464474 0.000107107 0.333719)
(0.0557758 0.000183496 0.335153)
(0.0667481 0.000318413 0.333269)
(0.0796476 0.000566228 0.326951)
(0.0947167 0.00104917 0.31436)
(0.111989 0.00206742 0.292348)
(0.131001 0.00431436 0.255076)
(0.155167 0.00463592 0.190596)
(0.00016094 0.000698016 0.122271)
(0.00216038 0.00101803 0.298766)
(0.00583324 0.000912252 0.432115)
(0.0109897 0.000716757 0.536381)
(0.0174329 0.000527677 0.619792)
(0.0250904 0.000377541 0.687495)
(0.0339614 0.00027516 0.742888)
(0.0441146 0.000221847 0.788273)
(0.0556883 0.000219261 0.8252)
(0.0688886 0.000273373 0.854639)
(0.0839887 0.000397405 0.877056)
(0.101324 0.000615281 0.892413)
(0.121281 0.000966867 0.90011)
(0.144263 0.0015166 0.898843)
(0.170623 0.00236846 0.886357)
(0.200524 0.00369443 0.859027)
(0.233611 0.00579469 0.811148)
(0.26835 0.00917503 0.7337)
(0.300566 0.014522 0.612479)
(0.330954 0.0207892 0.426013)
(0.000294105 0.00110351 0.169633)
(0.00356438 0.00177309 0.432351)
(0.00936971 0.00171862 0.638973)
(0.0173454 0.00143405 0.804067)
(0.027189 0.00111264 0.937606)
(0.0388027 0.000837791 1.04649)
(0.0521896 0.000643638 1.13556)
(0.0674469 0.000544715 1.20821)
(0.0847635 0.000552216 1.26675)
(0.104415 0.000683306 1.3126)
(0.126756 0.000967871 1.34639)
(0.15221 0.00145531 1.36795)
(0.181234 0.0022231 1.37619)
(0.214253 0.0033888 1.36887)
(0.251527 0.0051271 1.34227)
(0.292894 0.00769525 1.2906)
(0.337233 0.011473 1.2051)
(0.381432 0.0169708 1.07282)
(0.4181 0.0245711 0.875349)
(0.446733 0.0324449 0.589677)
(0.000399272 0.00133093 0.205524)
(0.00474277 0.00227663 0.536003)
(0.0123587 0.00232385 0.802903)
(0.0227134 0.00202208 1.01988)
(0.0353941 0.00162881 1.19724)
(0.0502705 0.00127216 1.34265)
(0.0673424 0.00101426 1.46178)
(0.0867237 0.000887336 1.5587)
(0.108635 0.000915697 1.63625)
(0.133393 0.00112948 1.69617)
(0.161401 0.00157471 1.73917)
(0.193121 0.00232256 1.76489)
(0.229028 0.00347947 1.77178)
(0.269514 0.00519888 1.75682)
(0.314698 0.00769393 1.71509)
(0.364095 0.0112478 1.63917)
(0.415935 0.0162129 1.51823)
(0.465906 0.0229303 1.33702)
(0.504376 0.0313244 1.07545)
(0.530249 0.0389107 0.711448)
(0.000477042 0.00138022 0.233383)
(0.00568478 0.00246797 0.617169)
(0.0147845 0.00261486 0.932722)
(0.0270966 0.00234878 1.19264)
(0.0421031 0.00194831 1.407)
(0.0596354 0.00156654 1.58367)
(0.079682 0.0012861 1.7287)
(0.102364 0.0011546 1.84656)
(0.12792 0.00120828 1.9404)
(0.156695 0.00148793 2.01213)
(0.189115 0.00205067 2.06247)
(0.225663 0.00298016 2.09091)
(0.26681 0.00439636 2.09551)
(0.312901 0.00646455 2.0726)
(0.363927 0.00940064 2.01638)
(0.419138 0.0134647 1.91829)
(0.476273 0.0189243 1.76623)
(0.530163 0.0259139 1.54373)
(0.569602 0.0339776 1.23012)
(0.593109 0.0403241 0.804699)
(0.000533704 0.00128924 0.254984)
(0.00641323 0.00238107 0.680319)
(0.0166893 0.00259343 1.03435)
(0.0305648 0.00238704 1.3288)
(0.0474303 0.00202627 1.57334)
(0.0670782 0.00166732 1.77581)
(0.089481 0.00140103 1.94236)
(0.11476 0.00128346 2.07765)
(0.143165 0.00135789 2.18498)
(0.175054 0.00167054 2.26636)
(0.210873 0.0022823 2.32247)
(0.251109 0.00327854 2.35265)
(0.296228 0.00477718 2.35464)
(0.346531 0.00693423 2.32433)
(0.401909 0.00994233 2.25529)
(0.461411 0.0140122 2.13821)
(0.522417 0.0193158 1.96021)