/*--------------------------------*- C++ -*----------------------------------*\
  =========                 |
  \\      /  F ield         | OpenFOAM: The Open Source CFD Toolbox
   \\    /   O peration     | Website:  https://openfoam.org
    \\  /    A nd           | Version:  6
     \\/     M anipulation  |
\*---------------------------------------------------------------------------*/
FoamFile
{
    version     2.0;
    format      ascii;
    class       volScalarField;
    location    "0.92";
    object      T;
}
// * * * * * * * * * * * * * * * * * * * * * * * * * * * * * * * * * * * * * //

dimensions      [0 0 0 1 0 0 0];

internalField   nonuniform List<scalar> 
7000
(
106.66
106.659
106.657
106.654
106.65
106.646
106.642
106.639
106.636
106.635
106.66
106.659
106.657
106.654
106.65
106.646
106.642
106.639
106.636
106.635
106.66
106.659
106.657
106.654
106.65
106.646
106.642
106.639
106.636
106.635
106.66
106.659
106.657
106.654
106.65
106.646
106.642
106.639
106.636
106.635
106.66
106.659
106.657
106.654
106.65
106.646
106.642
106.639
106.636
106.635
106.66
106.659
106.657
106.654
106.65
106.646
106.642
106.639
106.636
106.635
106.66
106.659
106.657
106.654
106.65
106.646
106.642
106.639
106.636
106.635
106.66
106.659
106.657
106.654
106.65
106.646
106.642
106.639
106.636
106.635
106.66
106.659
106.657
106.654
106.65
106.646
106.642
106.639
106.636
106.635
106.66
106.659
106.657
106.654
106.65
106.646
106.642
106.639
106.636
106.635
99.9998
99.9965
99.9901
99.9811
99.97
99.9579
99.9459
99.9352
99.9271
99.9227
99.9998
99.9965
99.9901
99.9811
99.97
99.9579
99.9459
99.9352
99.9271
99.9227
99.9998
99.9965
99.9901
99.9811
99.97
99.9579
99.9459
99.9351
99.9271
99.9227
99.9998
99.9965
99.9901
99.9811
99.97
99.9579
99.9458
99.9351
99.9271
99.9227
99.9998
99.9965
99.9901
99.9811
99.97
99.9579
99.9458
99.9351
99.9271
99.9227
99.9998
99.9965
99.9901
99.9811
99.97
99.9579
99.9458
99.9351
99.9271
99.9227
99.9998
99.9965
99.9901
99.9811
99.97
99.9579
99.9458
99.9351
99.9271
99.9227
99.9998
99.9965
99.9901
99.9811
99.97
99.9579
99.9459
99.9351
99.9271
99.9227
99.9998
99.9965
99.9901
99.9811
99.97
99.9579
99.9459
99.9351
99.9271
99.9227
99.9998
99.9965
99.9901
99.9811
99.97
99.9579
99.9459
99.9352
99.9271
99.9227
93.3985
93.3929
93.3821
93.3668
93.348
93.3272
93.3063
93.2875
93.2733
93.2656
93.3985
93.3929
93.3821
93.3668
93.348
93.3272
93.3063
93.2875
93.2733
93.2656
93.3985
93.3929
93.3821
93.3668
93.348
93.3271
93.3063
93.2875
93.2733
93.2656
93.3985
93.3929
93.3821
93.3668
93.3479
93.3271
93.3062
93.2875
93.2733
93.2656
93.3985
93.3929
93.3821
93.3668
93.3479
93.3271
93.3062
93.2875
93.2733
93.2656
93.3985
93.3929
93.3821
93.3668
93.3479
93.3271
93.3062
93.2875
93.2733
93.2656
93.3985
93.3929
93.3821
93.3668
93.3479
93.3271
93.3062
93.2875
93.2733
93.2656
93.3985
93.3929
93.3821
93.3668
93.3479
93.3271
93.3062
93.2875
93.2733
93.2656
93.3985
93.3929
93.3821
93.3668
93.348
93.3271
93.3063
93.2875
93.2733
93.2656
93.3985
93.3929
93.3821
93.3668
93.348
93.3272
93.3063
93.2875
93.2733
93.2656
86.8946
86.8868
86.8714
86.8495
86.8223
86.7919
86.761
86.7328
86.7111
86.6992
86.8946
86.8867
86.8714
86.8495
86.8223
86.7919
86.761
86.7328
86.7111
86.6991
86.8946
86.8867
86.8714
86.8495
86.8223
86.7919
86.761
86.7328
86.711
86.6991
86.8946
86.8867
86.8714
86.8494
86.8223
86.7919
86.7609
86.7328
86.711
86.6991
86.8946
86.8867
86.8714
86.8494
86.8223
86.7919
86.7609
86.7328
86.711
86.6991
86.8946
86.8867
86.8714
86.8494
86.8223
86.7919
86.7609
86.7328
86.711
86.6991
86.8946
86.8867
86.8714
86.8494
86.8223
86.7919
86.7609
86.7328
86.711
86.6991
86.8946
86.8867
86.8714
86.8494
86.8223
86.7919
86.7609
86.7328
86.711
86.6991
86.8946
86.8867
86.8714
86.8495
86.8223
86.7919
86.761
86.7328
86.711
86.6991
86.8946
86.8867
86.8714
86.8495
86.8223
86.7919
86.761
86.7328
86.7111
86.6992
80.5257
80.5155
80.4956
80.4669
80.4308
80.3897
80.347
80.3071
80.2756
80.258
80.5257
80.5155
80.4956
80.4669
80.4308
80.3897
80.347
80.3071
80.2756
80.2579
80.5257
80.5155
80.4956
80.4669
80.4308
80.3897
80.3469
80.3071
80.2755
80.2579
80.5257
80.5155
80.4956
80.4668
80.4308
80.3897
80.3469
80.307
80.2755
80.2579
80.5257
80.5155
80.4956
80.4668
80.4308
80.3897
80.3469
80.307
80.2755
80.2579
80.5256
80.5155
80.4956
80.4668
80.4308
80.3897
80.3469
80.307
80.2755
80.2579
80.5257
80.5155
80.4956
80.4668
80.4308
80.3897
80.3469
80.307
80.2755
80.2579
80.5257
80.5155
80.4956
80.4668
80.4308
80.3897
80.3469
80.307
80.2755
80.2579
80.5257
80.5155
80.4956
80.4669
80.4308
80.3897
80.3469
80.3071
80.2755
80.2579
80.5257
80.5155
80.4956
80.4669
80.4308
80.3897
80.347
80.3071
80.2756
80.2579
74.3277
74.3154
74.2911
74.2557
74.2104
74.1576
74.1008
74.0459
74.0006
73.9745
74.3276
74.3153
74.2911
74.2557
74.2104
74.1575
74.1008
74.0458
74.0006
73.9744
74.3276
74.3153
74.2911
74.2557
74.2104
74.1575
74.1008
74.0458
74.0006
73.9744
74.3276
74.3153
74.2911
74.2556
74.2104
74.1575
74.1007
74.0458
74.0006
73.9744
74.3276
74.3153
74.2911
74.2556
74.2104
74.1575
74.1007
74.0458
74.0006
73.9744
74.3276
74.3153
74.2911
74.2556
74.2104
74.1575
74.1007
74.0458
74.0006
73.9744
74.3276
74.3153
74.2911
74.2556
74.2104
74.1575
74.1007
74.0458
74.0006
73.9744
74.3276
74.3153
74.2911
74.2556
74.2104
74.1575
74.1007
74.0458
74.0006
73.9744
74.3276
74.3153
74.2911
74.2557
74.2104
74.1575
74.1008
74.0458
74.0006
73.9744
74.3276
74.3153
74.2911
74.2557
74.2104
74.1576
74.1008
74.0458
74.0006
73.9745
68.3343
68.3203
68.2925
68.2513
68.1973
68.1322
68.059
67.9841
67.9185
67.8779
68.3342
68.3203
68.2925
68.2513
68.1973
68.1321
68.059
67.9841
67.9184
67.8779
68.3342
68.3202
68.2925
68.2512
68.1973
68.1321
68.059
67.9841
67.9184
67.8779
68.3342
68.3202
68.2925
68.2512
68.1972
68.1321
68.0589
67.984
67.9184
67.8779
68.3342
68.3202
68.2924
68.2512
68.1972
68.1321
68.0589
67.984
67.9184
67.8778
68.3342
68.3202
68.2924
68.2512
68.1972
68.1321
68.0589
67.984
67.9184
67.8778
68.3342
68.3202
68.2924
68.2512
68.1972
68.1321
68.0589
67.984
67.9184
67.8779
68.3342
68.3202
68.2925
68.2512
68.1973
68.1321
68.0589
67.9841
67.9184
67.8779
68.3342
68.3202
68.2925
68.2512
68.1973
68.1321
68.059
67.9841
67.9184
67.8779
68.3342
68.3203
68.2925
68.2513
68.1973
68.1321
68.059
67.9841
67.9184
67.8779
62.5765
62.5617
62.5321
62.4872
62.4268
62.3504
62.2593
62.1581
62.0597
61.9917
62.5764
62.5617
62.532
62.4872
62.4267
62.3504
62.2593
62.158
62.0597
61.9916
62.5764
62.5617
62.532
62.4872
62.4267
62.3504
62.2592
62.158
62.0596
61.9916
62.5764
62.5616
62.532
62.4871
62.4267
62.3503
62.2592
62.158
62.0596
61.9916
62.5764
62.5616
62.532
62.4871
62.4266
62.3503
62.2592
62.1579
62.0596
61.9916
62.5764
62.5616
62.532
62.4871
62.4266
62.3503
62.2592
62.1579
62.0596
61.9916
62.5764
62.5616
62.532
62.4871
62.4267
62.3503
62.2592
62.158
62.0596
61.9916
62.5764
62.5616
62.532
62.4872
62.4267
62.3503
62.2592
62.158
62.0596
61.9916
62.5764
62.5617
62.532
62.4872
62.4267
62.3504
62.2593
62.158
62.0597
61.9916
62.5764
62.5617
62.5321
62.4872
62.4267
62.3504
62.2593
62.158
62.0597
61.9917
57.0816
57.0675
57.0389
56.9946
56.9327
56.85
56.7427
56.6086
56.456
56.3263
57.0816
57.0675
57.0389
56.9946
56.9326
56.8499
56.7426
56.6086
56.4559
56.3263
57.0816
57.0675
57.0388
56.9945
56.9326
56.8499
56.7426
56.6085
56.4559
56.3263
57.0815
57.0674
57.0388
56.9945
56.9326
56.8499
56.7426
56.6085
56.4558
56.3262
57.0815
57.0674
57.0388
56.9945
56.9326
56.8498
56.7425
56.6085
56.4558
56.3262
57.0815
57.0674
57.0388
56.9945
56.9326
56.8498
56.7425
56.6085
56.4558
56.3262
57.0815
57.0674
57.0388
56.9945
56.9326
56.8499
56.7426
56.6085
56.4558
56.3262
57.0815
57.0674
57.0388
56.9945
56.9326
56.8499
56.7426
56.6085
56.4559
56.3262
57.0816
57.0675
57.0388
56.9946
56.9326
56.8499
56.7426
56.6085
56.4559
56.3263
57.0816
57.0675
57.0389
56.9946
56.9326
56.8499
56.7426
56.6086
56.4559
56.3263
51.8726
51.8612
51.8378
51.8007
51.7466
51.669
51.5564
51.3909
51.1516
50.8604
51.8725
51.8611
51.8378
51.8007
51.7466
51.6689
51.5564
51.3908
51.1515
50.8603
51.8725
51.8611
51.8377
51.8007
51.7465
51.6689
51.5563
51.3908
51.1515
50.8603
51.8725
51.8611
51.8377
51.8006
51.7465
51.6688
51.5563
51.3908
51.1515
50.8603
51.8724
51.8611
51.8377
51.8006
51.7465
51.6688
51.5563
51.3908
51.1515
50.8602
51.8724
51.8611
51.8377
51.8006
51.7465
51.6688
51.5563
51.3908
51.1514
50.8602
51.8725
51.8611
51.8377
51.8006
51.7465
51.6688
51.5563
51.3908
51.1515
50.8602
51.8725
51.8611
51.8377
51.8007
51.7465
51.6689
51.5563
51.3908
51.1515
50.8603
51.8725
51.8611
51.8377
51.8007
51.7465
51.6689
51.5564
51.3908
51.1515
50.8603
51.8725
51.8611
51.8378
51.8007
51.7466
51.6689
51.5564
51.3909
51.1516
50.8604
46.9667
46.9605
46.9478
46.927
46.8947
46.8431
46.755
46.5923
46.2594
45.4771
46.9666
46.9605
46.9478
46.927
46.8947
46.843
46.755
46.5922
46.2593
45.477
46.9666
46.9604
46.9477
46.927
46.8946
46.843
46.7549
46.5922
46.2593
45.477
46.9665
46.9604
46.9477
46.9269
46.8946
46.8429
46.7549
46.5921
46.2592
45.4769
46.9665
46.9604
46.9477
46.9269
46.8946
46.8429
46.7549
46.5921
46.2592
45.4769
46.9665
46.9604
46.9477
46.9269
46.8946
46.8429
46.7549
46.5921
46.2592
45.4769
46.9665
46.9604
46.9477
46.9269
46.8946
46.8429
46.7549
46.5921
46.2592
45.4769
46.9666
46.9604
46.9477
46.9269
46.8946
46.843
46.7549
46.5922
46.2592
45.477
46.9666
46.9604
46.9477
46.927
46.8947
46.843
46.7549
46.5922
46.2593
45.477
46.9666
46.9605
46.9478
46.927
46.8947
46.843
46.755
46.5922
46.2593
45.4771
42.3751
42.3769
42.3806
42.3863
42.3925
42.3954
42.3846
42.3381
42.2139
41.9527
42.3751
42.3769
42.3806
42.3862
42.3925
42.3953
42.3845
42.3381
42.2139
41.9526
42.3751
42.3768
42.3806
42.3862
42.3925
42.3953
42.3845
42.338
42.2138
41.9525
42.375
42.3768
42.3805
42.3861
42.3924
42.3953
42.3845
42.338
42.2138
41.9525
42.375
42.3768
42.3805
42.3861
42.3924
42.3953
42.3844
42.338
42.2138
41.9525
42.375
42.3768
42.3805
42.3861
42.3924
42.3953
42.3844
42.338
42.2138
41.9525
42.375
42.3768
42.3805
42.3861
42.3924
42.3953
42.3845
42.338
42.2138
41.9525
42.375
42.3768
42.3805
42.3862
42.3924
42.3953
42.3845
42.338
42.2138
41.9525
42.3751
42.3768
42.3806
42.3862
42.3925
42.3953
42.3845
42.338
42.2139
41.9526
42.3751
42.3769
42.3806
42.3862
42.3925
42.3954
42.3846
42.3381
42.2139
41.9526
38.1028
38.1147
38.1399
38.1805
38.2396
38.3203
38.4254
38.558
38.7284
38.9799
38.1028
38.1147
38.1398
38.1804
38.2395
38.3203
38.4253
38.558
38.7283
38.9798
38.1027
38.1146
38.1398
38.1804
38.2395
38.3202
38.4253
38.5579
38.7283
38.9797
38.1027
38.1146
38.1397
38.1804
38.2395
38.3202
38.4253
38.5579
38.7283
38.9797
38.1027
38.1146
38.1397
38.1803
38.2395
38.3202
38.4252
38.5579
38.7282
38.9797
38.1027
38.1146
38.1397
38.1803
38.2395
38.3202
38.4252
38.5579
38.7282
38.9797
38.1027
38.1146
38.1397
38.1803
38.2395
38.3202
38.4252
38.5579
38.7282
38.9797
38.1027
38.1146
38.1397
38.1804
38.2395
38.3202
38.4253
38.5579
38.7283
38.9797
38.1027
38.1147
38.1398
38.1804
38.2395
38.3202
38.4253
38.5579
38.7283
38.9798
38.1028
38.1147
38.1398
38.1805
38.2396
38.3203
38.4254
38.558
38.7284
38.9798
34.1484
34.1718
34.2212
34.3019
34.4218
34.5919
34.8276
35.1514
35.6003
36.2426
34.1483
34.1717
34.2212
34.3019
34.4217
34.5919
34.8276
35.1514
35.6002
36.2425
34.1483
34.1717
34.2211
34.3018
34.4217
34.5918
34.8275
35.1513
35.6002
36.2425
34.1483
34.1717
34.2211
34.3018
34.4217
34.5918
34.8275
35.1513
35.6001
36.2424
34.1482
34.1717
34.2211
34.3018
34.4216
34.5918
34.8275
35.1513
35.6001
36.2424
34.1482
34.1717
34.2211
34.3018
34.4216
34.5918
34.8275
35.1513
35.6001
36.2424
34.1483
34.1717
34.2211
34.3018
34.4216
34.5918
34.8275
35.1513
35.6001
36.2424
34.1483
34.1717
34.2211
34.3018
34.4217
34.5918
34.8275
35.1513
35.6002
36.2424
34.1483
34.1717
34.2212
34.3018
34.4217
34.5918
34.8276
35.1513
35.6002
36.2425
34.1483
34.1718
34.2212
34.3019
34.4218
34.5919
34.8276
35.1514
35.6003
36.2426
30.5053
30.5403
30.6145
30.7357
30.9168
31.1761
31.5387
32.0394
32.7257
33.6632
30.5052
30.5403
30.6144
30.7357
30.9168
31.176
31.5387
32.0394
32.7256
33.6631
30.5052
30.5403
30.6144
30.7356
30.9167
31.176
31.5386
32.0393
32.7256
33.6631
30.5051
30.5402
30.6144
30.7356
30.9167
31.1759
31.5386
32.0393
32.7256
33.663
30.5051
30.5402
30.6143
30.7356
30.9167
31.1759
31.5386
32.0393
32.7255
33.663
30.5051
30.5402
30.6143
30.7356
30.9167
31.1759
31.5386
32.0393
32.7255
33.663
30.5051
30.5402
30.6144
30.7356
30.9167
31.1759
31.5386
32.0393
32.7256
33.663
30.5052
30.5402
30.6144
30.7356
30.9167
31.176
31.5386
32.0393
32.7256
33.6631
30.5052
30.5403
30.6144
30.7357
30.9168
31.176
31.5387
32.0394
32.7256
33.6631
30.5052
30.5403
30.6145
30.7357
30.9168
31.176
31.5387
32.0394
32.7257
33.6632
27.163
27.2087
27.3051
27.4629
27.6988
28.0372
28.5113
29.1644
30.0496
31.2252
27.163
27.2086
27.3051
27.4629
27.6988
28.0371
28.5112
29.1644
30.0496
31.2251
27.163
27.2086
27.305
27.4628
27.6987
28.0371
28.5112
29.1643
30.0495
31.2251
27.1629
27.2086
27.305
27.4628
27.6987
28.0371
28.5112
29.1643
30.0495
31.225
27.1629
27.2086
27.305
27.4628
27.6987
28.0371
28.5111
29.1643
30.0495
31.225
27.1629
27.2086
27.305
27.4628
27.6987
28.0371
28.5111
29.1643
30.0495
31.225
27.1629
27.2086
27.305
27.4628
27.6987
28.0371
28.5112
29.1643
30.0495
31.225
27.1629
27.2086
27.305
27.4628
27.6987
28.0371
28.5112
29.1643
30.0495
31.2251
27.163
27.2086
27.3051
27.4628
27.6988
28.0371
28.5112
29.1644
30.0495
31.2251
27.163
27.2087
27.3051
27.4629
27.6988
28.0372
28.5113
29.1644
30.0496
31.2252
24.1089
24.1629
24.2767
24.4629
24.7412
25.1409
25.7021
26.4777
27.5306
28.921
24.1088
24.1628
24.2767
24.4629
24.7412
25.1408
25.702
26.4777
27.5305
28.9209
24.1088
24.1628
24.2767
24.4628
24.7411
25.1408
25.702
26.4776
27.5304
28.9209
24.1088
24.1627
24.2766
24.4628
24.7411
25.1407
25.702
26.4776
27.5304
28.9208
24.1088
24.1627
24.2766
24.4628
24.7411
25.1407
25.7019
26.4776
27.5304
28.9208
24.1088
24.1627
24.2766
24.4628
24.7411
25.1407
25.7019
26.4776
27.5304
28.9208
24.1088
24.1627
24.2766
24.4628
24.7411
25.1407
25.702
26.4776
27.5304
28.9208
24.1088
24.1628
24.2767
24.4628
24.7411
25.1408
25.702
26.4776
27.5304
28.9209
24.1088
24.1628
24.2767
24.4629
24.7412
25.1408
25.702
26.4777
27.5305
28.9209
24.1089
24.1628
24.2767
24.4629
24.7412
25.1409
25.7021
26.4777
27.5306
28.921
21.329
21.3881
21.5127
21.7159
22.0191
22.4547
23.069
23.9271
25.1144
26.7228
21.329
21.3881
21.5127
21.7158
22.0191
22.4546
23.069
23.927
25.1143
26.7227
21.3289
21.3881
21.5126
21.7158
22.019
22.4546
23.0689
23.927
25.1142
26.7227
21.3289
21.388
21.5126
21.7158
22.019
22.4546
23.0689
23.927
25.1142
26.7227
21.3289
21.388
21.5126
21.7157
22.019
22.4545
23.0689
23.927
25.1142
26.7226
21.3289
21.388
21.5126
21.7157
22.019
22.4545
23.0689
23.927
25.1142
26.7226
21.3289
21.388
21.5126
21.7158
22.019
22.4546
23.0689
23.927
25.1142
26.7227
21.3289
21.388
21.5126
21.7158
22.019
22.4546
23.0689
23.927
25.1143
26.7227
21.3289
21.3881
21.5126
21.7158
22.0191
22.4546
23.069
23.927
25.1143
26.7227
21.329
21.3881
21.5127
21.7159
22.0191
22.4547
23.069
23.9271
25.1144
26.7228
18.81
18.8706
18.998
19.2048
19.5118
19.9512
20.5716
21.449
22.7056
24.5335
18.8099
18.8706
18.998
19.2047
19.5118
19.9512
20.5716
21.4489
22.7056
24.5335
18.8099
18.8706
18.9979
19.2047
19.5118
19.9511
20.5715
21.4489
22.7055
24.5334
18.8099
18.8705
18.9979
19.2047
19.5117
19.9511
20.5715
21.4488
22.7055
24.5334
18.8099
18.8705
18.9979
19.2047
19.5117
19.9511
20.5715
21.4488
22.7055
24.5334
18.8099
18.8705
18.9979
19.2047
19.5117
19.9511
20.5715
21.4488
22.7055
24.5334
18.8099
18.8705
18.9979
19.2047
19.5117
19.9511
20.5715
21.4488
22.7055
24.5334
18.8099
18.8705
18.9979
19.2047
19.5118
19.9511
20.5715
21.4489
22.7055
24.5334
18.8099
18.8706
18.998
19.2047
19.5118
19.9512
20.5716
21.4489
22.7056
24.5335
18.8099
18.8706
18.998
19.2048
19.5118
19.9512
20.5716
21.449
22.7056
24.5336
16.5397
16.5983
16.7207
16.9177
17.2067
17.6144
18.1817
18.9766
20.1368
22.0245
16.5396
16.5982
16.7206
16.9176
17.2067
17.6144
18.1816
18.9765
20.1367
22.0244
16.5396
16.5982
16.7206
16.9176
17.2066
17.6144
18.1816
18.9765
20.1367
22.0244
16.5396
16.5982
16.7206
16.9176
17.2066
17.6143
18.1815
18.9765
20.1366
22.0244
16.5396
16.5982
16.7206
16.9176
17.2066
17.6143
18.1815
18.9765
20.1366
22.0243
16.5396
16.5982
16.7206
16.9175
17.2066
17.6143
18.1815
18.9765
20.1366
22.0243
16.5396
16.5982
16.7206
16.9176
17.2066
17.6143
18.1815
18.9765
20.1366
22.0244
16.5396
16.5982
16.7206
16.9176
17.2066
17.6144
18.1816
18.9765
20.1367
22.0244
16.5396
16.5982
16.7206
16.9176
17.2067
17.6144
18.1816
18.9766
20.1367
22.0244
16.5396
16.5983
16.7207
16.9177
17.2067
17.6145
18.1817
18.9766
20.1368
22.0245
43.2666
43.218
44.7268
47.6028
51.8437
57.5739
65.0519
74.736
87.4595
104.897
43.2665
43.2179
44.7267
47.6027
51.8436
57.5738
65.0518
74.7359
87.4594
104.897
43.2665
43.2178
44.7266
47.6027
51.8435
57.5737
65.0517
74.7358
87.4593
104.897
43.2664
43.2178
44.7266
47.6026
51.8435
57.5737
65.0516
74.7357
87.4592
104.897
43.2664
43.2178
44.7266
47.6026
51.8435
57.5736
65.0516
74.7357
87.4592
104.897
43.2664
43.2178
44.7266
47.6026
51.8435
57.5736
65.0516
74.7357
87.4592
104.897
43.2664
43.2178
44.7266
47.6026
51.8435
57.5736
65.0516
74.7357
87.4592
104.897
43.2664
43.2178
44.7266
47.6026
51.8435
57.5737
65.0517
74.7358
87.4593
104.897
43.2665
43.2179
44.7267
47.6027
51.8436
57.5737
65.0517
74.7358
87.4593
104.897
43.2665
43.2179
44.7267
47.6028
51.8436
57.5738
65.0518
74.7359
87.4594
104.897
41.5969
42.2027
43.9458
46.8643
51.0174
56.5225
63.5718
72.4478
83.5163
97.0737
41.5968
42.2026
43.9457
46.8642
51.0173
56.5224
63.5717
72.4477
83.5162
97.0736
41.5967
42.2026
43.9456
46.8641
51.0172
56.5223
63.5716
72.4476
83.5161
97.0735
41.5967
42.2025
43.9456
46.8641
51.0172
56.5222
63.5715
72.4475
83.5161
97.0734
41.5967
42.2025
43.9455
46.864
51.0172
56.5222
63.5715
72.4475
83.516
97.0734
41.5967
42.2025
43.9455
46.864
51.0172
56.5222
63.5715
72.4475
83.516
97.0734
41.5967
42.2025
43.9456
46.864
51.0172
56.5222
63.5715
72.4475
83.5161
97.0734
41.5967
42.2025
43.9456
46.8641
51.0172
56.5223
63.5715
72.4476
83.5161
97.0735
41.5968
42.2026
43.9456
46.8641
51.0173
56.5223
63.5716
72.4476
83.5162
97.0736
41.5968
42.2027
43.9457
46.8642
51.0174
56.5224
63.5717
72.4477
83.5163
97.0737
39.4672
40.5961
42.5768
45.5176
49.502
54.6227
60.9905
68.7182
77.8563
88.2099
39.4671
40.596
42.5767
45.5175
49.5019
54.6226
60.9904
68.7181
77.8561
88.2098
39.4671
40.5959
42.5766
45.5174
49.5018
54.6225
60.9903
68.718
77.856
88.2097
39.467
40.5959
42.5766
45.5174
49.5018
54.6225
60.9902
68.718
77.856
88.2096
39.467
40.5958
42.5765
45.5174
49.5017
54.6224
60.9902
68.7179
77.856
88.2096
39.467
40.5958
42.5765
45.5174
49.5017
54.6224
60.9902
68.7179
77.856
88.2096
39.467
40.5959
42.5765
45.5174
49.5017
54.6224
60.9902
68.718
77.856
88.2096
39.4671
40.5959
42.5766
45.5174
49.5018
54.6225
60.9903
68.718
77.856
88.2096
39.4671
40.5959
42.5766
45.5175
49.5018
54.6226
60.9903
68.7181
77.8561
88.2097
39.4672
40.596
42.5767
45.5176
49.5019
54.6227
60.9905
68.7182
77.8562
88.2098
37.2057
38.6869
40.8362
43.7537
47.512
52.1704
57.7735
64.3285
71.7527
79.775
37.2056
38.6868
40.8361
43.7536
47.5119
52.1703
57.7734
64.3284
71.7526
79.7749
37.2055
38.6868
40.8361
43.7535
47.5118
52.1703
57.7733
64.3283
71.7525
79.7748
37.2055
38.6867
40.836
43.7535
47.5117
52.1702
57.7732
64.3283
71.7524
79.7747
37.2055
38.6867
40.836
43.7534
47.5117
52.1702
57.7732
64.3283
71.7524
79.7747
37.2055
38.6867
40.836
43.7534
47.5117
52.1702
57.7732
64.3283
71.7524
79.7747
37.2055
38.6867
40.836
43.7535
47.5117
52.1702
57.7732
64.3283
71.7524
79.7747
37.2055
38.6867
40.8361
43.7535
47.5118
52.1702
57.7733
64.3283
71.7525
79.7748
37.2056
38.6868
40.8361
43.7536
47.5118
52.1703
57.7734
64.3284
71.7525
79.7748
37.2057
38.6869
40.8362
43.7536
47.5119
52.1704
57.7735
64.3285
71.7527
79.775
34.9401
36.6609
38.9163
41.7741
45.2817
49.4659
54.3263
59.8177
65.8214
72.1085
34.94
36.6609
38.9162
41.774
45.2816
49.4658
54.3262
59.8176
65.8213
72.1083
34.9399
36.6608
38.9161
41.774
45.2816
49.4658
54.3261
59.8175
65.8212
72.1083
34.9399
36.6608
38.9161
41.7739
45.2815
49.4657
54.326
59.8174
65.8212
72.1082
34.9399
36.6607
38.9161
41.7739
45.2815
49.4657
54.326
59.8174
65.8212
72.1082
34.9399
36.6607
38.9161
41.7739
45.2815
49.4657
54.326
59.8174
65.8212
72.1082
34.9399
36.6607
38.9161
41.7739
45.2815
49.4657
54.326
59.8174
65.8212
72.1082
34.9399
36.6608
38.9161
41.774
45.2815
49.4658
54.3261
59.8175
65.8212
72.1082
34.94
36.6608
38.9162
41.774
45.2816
49.4658
54.3261
59.8176
65.8213
72.1083
34.9401
36.6609
38.9163
41.7741
45.2817
49.4659
54.3262
59.8177
65.8214
72.1084
32.7454
34.6514
36.9812
39.7679
43.0321
46.7745
50.9662
55.5387
60.3737
65.3001
32.7453
34.6513
36.9812
39.7678
43.032
46.7744
50.9661
55.5386
60.3736
65.3
32.7452
34.6513
36.9811
39.7677
43.032
46.7743
50.966
55.5385
60.3735
65.2999
32.7452
34.6512
36.9811
39.7677
43.0319
46.7743
50.966
55.5385
60.3735
65.2998
32.7452
34.6512
36.981
39.7677
43.0319
46.7743
50.966
55.5385
60.3735
65.2998
32.7452
34.6512
36.981
39.7677
43.0319
46.7743
50.966
55.5385
60.3735
65.2998
32.7452
34.6512
36.981
39.7677
43.0319
46.7743
50.966
55.5385
60.3735
65.2998
32.7452
34.6512
36.9811
39.7677
43.032
46.7743
50.966
55.5385
60.3735
65.2999
32.7453
34.6513
36.9812
39.7678
43.032
46.7744
50.9661
55.5386
60.3736
65.3
32.7454
34.6514
36.9812
39.7679
43.0321
46.7745
50.9662
55.5387
60.3737
65.3001
30.6773
32.7663
35.1739
37.904
40.9582
44.319
47.9393
51.7365
55.596
59.3888
30.6772
32.7662
35.1738
37.9039
40.9581
44.3189
47.9392
51.7364
55.5959
59.3887
30.6772
32.7661
35.1737
37.9038
40.958
44.3188
47.9391
51.7364
55.5958
59.3887
30.6771
32.7661
35.1737
37.9038
40.958
44.3188
47.9391
51.7363
55.5958
59.3886
30.6771
32.7661
35.1737
37.9038
40.9579
44.3188
47.939
51.7363
55.5957
59.3886
30.6771
32.7661
35.1737
37.9038
40.9579
44.3188
47.939
51.7363
55.5957
59.3886
30.6771
32.7661
35.1737
37.9038
40.958
44.3188
47.9391
51.7363
55.5958
59.3886
30.6772
32.7661
35.1737
37.9038
40.958
44.3188
47.9391
51.7364
55.5958
59.3887
30.6772
32.7662
35.1738
37.9039
40.9581
44.3189
47.9392
51.7364
55.5959
59.3887
30.6773
32.7663
35.1739
37.904
40.9582
44.319
47.9393
51.7365
55.596
59.3889
28.7834
31.1061
33.6244
36.3321
39.2274
42.2851
45.4445
48.6058
51.6394
54.4209
28.7833
31.1061
33.6243
36.332
39.2273
42.285
45.4444
48.6057
51.6393
54.4208
28.7833
31.106
33.6243
36.332
39.2272
42.2849
45.4443
48.6056
51.6392
54.4207
28.7833
31.106
33.6242
36.3319
39.2272
42.2849
45.4442
48.6055
51.6391
54.4206
28.7832
31.106
33.6242
36.3319
39.2272
42.2849
45.4442
48.6055
51.6391
54.4206
28.7832
31.106
33.6242
36.3319
39.2272
42.2849
45.4442
48.6055
51.6391
54.4206
28.7833
31.106
33.6242
36.3319
39.2272
42.2849
45.4442
48.6055
51.6391
54.4206
28.7833
31.106
33.6243
36.332
39.2273
42.285
45.4443
48.6056
51.6392
54.4207
28.7834
31.1061
33.6243
36.332
39.2273
42.285
45.4444
48.6057
51.6393
54.4208
28.7834
31.1061
33.6244
36.3321
39.2274
42.2851
45.4445
48.6058
51.6394
54.4209
27.1261
29.788
32.4612
35.1847
37.9802
40.8265
43.652
46.3305
48.6821
50.5002
27.126
29.7879
32.4611
35.1847
37.9802
40.8264
43.6519
46.3304
48.682
50.5001
27.1259
29.7878
32.461
35.1846
37.9801
40.8264
43.6519
46.3304
48.6819
50.5001
27.1259
29.7878
32.461
35.1846
37.9801
40.8263
43.6518
46.3303
48.6818
50.5
27.1259
29.7878
32.461
35.1845
37.98
40.8263
43.6518
46.3303
48.6818
50.5
27.1259
29.7878
32.461
35.1845
37.98
40.8263
43.6518
46.3303
48.6818
50.5
27.1259
29.7878
32.461
35.1846
37.9801
40.8263
43.6518
46.3303
48.6818
50.5
27.1259
29.7879
32.461
35.1846
37.9801
40.8264
43.6519
46.3304
48.6819
50.5001
27.126
29.7879
32.4611
35.1847
37.9802
40.8265
43.652
46.3305
48.682
50.5002
27.1261
29.788
32.4612
35.1848
37.9803
40.8265
43.6521
46.3306
48.6821
50.5003
25.8874
28.9894
31.8188
34.5741
37.3252
40.0624
42.7072
45.1054
46.9986
47.9443
25.8874
28.9894
31.8187
34.574
37.3251
40.0623
42.7071
45.1053
46.9985
47.9442
25.8873
28.9893
31.8187
34.574
37.3251
40.0622
42.707
45.1053
46.9984
47.9441
25.8873
28.9893
31.8187
34.5739
37.325
40.0622
42.707
45.1052
46.9984
47.9441
25.8873
28.9893
31.8186
34.5739
37.325
40.0622
42.707
45.1052
46.9984
47.944
25.8873
28.9893
31.8186
34.5739
37.325
40.0622
42.707
45.1052
46.9984
47.944
25.8873
28.9893
31.8187
34.5739
37.3251
40.0622
42.707
45.1052
46.9984
47.9441
25.8873
28.9894
31.8187
34.574
37.3251
40.0623
42.707
45.1053
46.9984
47.9441
25.8874
28.9894
31.8188
34.574
37.3252
40.0623
42.7071
45.1054
46.9985
47.9442
25.8875
28.9895
31.8189
34.5741
37.3253
40.0624
42.7072
45.1055
46.9986
47.9443
130.94
143.422
151.144
156.597
160.664
163.738
166.03
167.664
168.716
169.232
130.94
143.422
151.144
156.597
160.664
163.738
166.03
167.664
168.716
169.232
130.94
143.422
151.144
156.597
160.664
163.738
166.03
167.663
168.716
169.232
130.94
143.422
151.144
156.597
160.664
163.738
166.029
167.663
168.716
169.232
130.94
143.422
151.144
156.597
160.664
163.738
166.029
167.663
168.716
169.232
130.94
143.422
151.144
156.597
160.664
163.738
166.029
167.663
168.716
169.232
130.94
143.422
151.144
156.597
160.664
163.738
166.029
167.663
168.716
169.232
130.94
143.422
151.144
156.597
160.664
163.738
166.03
167.663
168.716
169.232
130.94
143.422
151.144
156.597
160.664
163.738
166.03
167.664
168.716
169.232
130.94
143.422
151.144
156.597
160.664
163.738
166.03
167.664
168.716
169.232
112.459
123.694
131.687
137.529
141.895
145.178
147.612
149.338
150.447
150.989
112.459
123.694
131.687
137.529
141.895
145.178
147.611
149.338
150.447
150.989
112.459
123.694
131.687
137.529
141.895
145.178
147.611
149.338
150.447
150.989
112.459
123.694
131.687
137.529
141.895
145.178
147.611
149.338
150.447
150.989
112.459
123.694
131.687
137.529
141.895
145.178
147.611
149.338
150.447
150.989
112.459
123.694
131.687
137.529
141.895
145.178
147.611
149.338
150.447
150.989
112.459
123.694
131.687
137.529
141.895
145.178
147.611
149.338
150.447
150.989
112.459
123.694
131.687
137.529
141.895
145.178
147.611
149.338
150.447
150.989
112.459
123.694
131.687
137.529
141.895
145.178
147.611
149.338
150.447
150.989
112.459
123.694
131.687
137.529
141.895
145.178
147.612
149.338
150.447
150.99
98.9243
108.014
115.196
120.758
125.038
128.304
130.74
132.475
133.591
134.137
98.9242
108.014
115.196
120.758
125.038
128.303
130.74
132.475
133.591
134.137
98.9241
108.014
115.196
120.758
125.038
128.303
130.74
132.475
133.591
134.137
98.924
108.014
115.196
120.758
125.038
128.303
130.74
132.475
133.591
134.137
98.924
108.013
115.196
120.758
125.038
128.303
130.74
132.475
133.591
134.137
98.924
108.013
115.196
120.758
125.038
128.303
130.74
132.475
133.591
134.137
98.924
108.013
115.196
120.758
125.038
128.303
130.74
132.475
133.591
134.137
98.9241
108.014
115.196
120.758
125.038
128.303
130.74
132.475
133.591
134.137
98.9242
108.014
115.196
120.758
125.038
128.303
130.74
132.475
133.591
134.137
98.9243
108.014
115.196
120.758
125.038
128.304
130.74
132.475
133.591
134.138
87.8184
95.056
101.15
106.103
110.04
113.107
115.426
117.091
118.167
118.696
87.8182
95.0558
101.15
106.103
110.04
113.107
115.426
117.091
118.167
118.695
87.8181
95.0557
101.15
106.103
110.04
113.107
115.426
117.091
118.167
118.695
87.8181
95.0557
101.15
106.103
110.04
113.107
115.426
117.091
118.167
118.695
87.8181
95.0556
101.15
106.102
110.04
113.106
115.426
117.091
118.167
118.695
87.818
95.0556
101.15
106.102
110.04
113.106
115.426
117.091
118.167
118.695
87.8181
95.0557
101.15
106.103
110.04
113.107
115.426
117.091
118.167
118.695
87.8181
95.0557
101.15
106.103
110.04
113.107
115.426
117.091
118.167
118.695
87.8182
95.0558
101.15
106.103
110.04
113.107
115.426
117.091
118.167
118.696
87.8183
95.0559
101.15
106.103
110.04
113.107
115.426
117.091
118.167
118.696
78.3234
84.0597
89.077
93.3026
96.7606
99.5131
101.627
103.162
104.16
104.652
78.3232
84.0596
89.0769
93.3025
96.7605
99.513
101.627
103.161
104.16
104.652
78.3232
84.0595
89.0768
93.3024
96.7604
99.5129
101.627
103.161
104.16
104.652
78.3231
84.0595
89.0767
93.3023
96.7604
99.5128
101.627
103.161
104.16
104.652
78.3231
84.0594
89.0767
93.3023
96.7603
99.5128
101.627
103.161
104.16
104.652
78.3231
84.0594
89.0767
93.3023
96.7603
99.5128
101.627
103.161
104.16
104.652
78.3231
84.0595
89.0768
93.3023
96.7604
99.5128
101.627
103.161
104.16
104.652
78.3231
84.0595
89.0768
93.3024
96.7604
99.5129
101.627
103.161
104.16
104.652
78.3232
84.0596
89.0769
93.3025
96.7605
99.513
101.627
103.161
104.16
104.652
78.3234
84.0597
89.077
93.3026
96.7607
99.5131
101.627
103.162
104.16
104.652
70.1092
74.5986
78.6231
82.1079
85.0333
87.4114
89.2682
90.6318
91.5265
91.9694
70.109
74.5985
78.623
82.1078
85.0332
87.4113
89.2681
90.6317
91.5263
91.9693
70.109
74.5984
78.6229
82.1077
85.0331
87.4112
89.268
90.6316
91.5263
91.9693
70.1089
74.5983
78.6228
82.1076
85.033
87.4112
89.2679
90.6315
91.5262
91.9692
70.1089
74.5983
78.6228
82.1076
85.033
87.4111
89.2679
90.6315
91.5262
91.9692
70.1089
74.5983
78.6228
82.1076
85.033
87.4111
89.2679
90.6315
91.5262
91.9692
70.1089
74.5983
78.6228
82.1077
85.033
87.4112
89.2679
90.6315
91.5262
91.9693
70.109
74.5984
78.6229
82.1077
85.0331
87.4112
89.268
90.6316
91.5263
91.9693
70.109
74.5985
78.623
82.1078
85.0332
87.4113
89.2681
90.6317
91.5264
91.9694
70.1092
74.5986
78.6231
82.1079
85.0333
87.4115
89.2682
90.6318
91.5265
91.9696
63.0102
66.4113
69.5289
72.3024
74.6913
76.6761
78.2528
79.4258
80.2023
80.5887
63.01
66.4112
69.5287
72.3023
74.6912
76.676
78.2527
79.4257
80.2021
80.5886
63.01
66.4111
69.5286
72.3022
74.6911
76.6759
78.2526
79.4256
80.2021
80.5885
63.0099
66.411
69.5286
72.3022
74.6911
76.6759
78.2526
79.4256
80.202
80.5885
63.0099
66.411
69.5286
72.3022
74.691
76.6758
78.2526
79.4255
80.202
80.5885
63.0099
66.411
69.5286
72.3022
74.691
76.6759
78.2526
79.4255
80.202
80.5885
63.0099
66.411
69.5286
72.3022
74.6911
76.6759
78.2526
79.4256
80.202
80.5885
63.01
66.4111
69.5287
72.3023
74.6911
76.676
78.2527
79.4256
80.2021
80.5886
63.0101
66.4112
69.5288
72.3023
74.6912
76.676
78.2528
79.4257
80.2022
80.5887
63.0102
66.4113
69.5289
72.3025
74.6914
76.6762
78.2529
79.4259
80.2023
80.5888
56.9172
59.3051
61.5863
63.6981
65.5775
67.1794
68.4769
69.4559
70.1103
70.4378
56.9171
59.305
61.5862
63.698
65.5773
67.1792
68.4768