/*--------------------------------*- C++ -*----------------------------------*\
  =========                 |
  \\      /  F ield         | OpenFOAM: The Open Source CFD Toolbox
   \\    /   O peration     | Website:  https://openfoam.org
    \\  /    A nd           | Version:  6
     \\/     M anipulation  |
\*---------------------------------------------------------------------------*/
FoamFile
{
    version     2.0;
    format      ascii;
    class       volScalarField;
    location    "0.11";
    object      T;
}
// * * * * * * * * * * * * * * * * * * * * * * * * * * * * * * * * * * * * * //

dimensions      [0 0 0 1 0 0 0];

internalField   nonuniform List<scalar> 
7000
(
100.586
100.586
100.586
100.586
100.586
100.586
100.586
100.586
100.586
100.586
100.586
100.586
100.586
100.586
100.586
100.586
100.586
100.586
100.586
100.586
100.586
100.586
100.586
100.586
100.586
100.586
100.586
100.586
100.586
100.586
100.586
100.586
100.586
100.586
100.586
100.586
100.586
100.586
100.586
100.586
100.586
100.586
100.586
100.586
100.586
100.586
100.586
100.586
100.586
100.586
100.586
100.586
100.586
100.586
100.586
100.586
100.586
100.586
100.586
100.586
100.586
100.586
100.586
100.586
100.586
100.586
100.586
100.586
100.586
100.586
100.586
100.586
100.586
100.586
100.586
100.586
100.586
100.586
100.586
100.586
100.586
100.586
100.586
100.586
100.586
100.586
100.586
100.586
100.586
100.586
100.586
100.586
100.586
100.586
100.586
100.586
100.586
100.586
100.586
100.586
82.1923
82.1921
82.1919
82.1918
82.1917
82.1917
82.1917
82.1916
82.1917
82.1917
82.1921
82.1919
82.1917
82.1916
82.1915
82.1915
82.1915
82.1914
82.1915
82.1916
82.192
82.1917
82.1916
82.1915
82.1914
82.1913
82.1913
82.1913
82.1914
82.1914
82.1919
82.1916
82.1915
82.1914
82.1913
82.1913
82.1912
82.1912
82.1913
82.1914
82.1918
82.1916
82.1914
82.1913
82.1913
82.1912
82.1912
82.1912
82.1912
82.1914
82.1918
82.1916
82.1914
82.1913
82.1913
82.1912
82.1912
82.1912
82.1913
82.1914
82.1918
82.1916
82.1915
82.1914
82.1913
82.1913
82.1913
82.1913
82.1913
82.1914
82.1919
82.1917
82.1916
82.1915
82.1914
82.1914
82.1913
82.1913
82.1914
82.1915
82.192
82.1918
82.1917
82.1916
82.1915
82.1915
82.1915
82.1915
82.1915
82.1916
82.1921
82.1919
82.1918
82.1917
82.1917
82.1916
82.1916
82.1916
82.1917
82.1918
65.0391
65.0388
65.0385
65.0383
65.0382
65.0381
65.0379
65.0379
65.0378
65.0379
65.0388
65.0385
65.0382
65.038
65.0379
65.0378
65.0377
65.0376
65.0375
65.0376
65.0386
65.0383
65.038
65.0378
65.0377
65.0376
65.0375
65.0374
65.0374
65.0375
65.0384
65.0381
65.0379
65.0377
65.0376
65.0374
65.0373
65.0373
65.0373
65.0374
65.0384
65.0381
65.0378
65.0376
65.0375
65.0374
65.0373
65.0372
65.0372
65.0373
65.0384
65.0381
65.0378
65.0377
65.0375
65.0374
65.0373
65.0372
65.0372
65.0374
65.0384
65.0381
65.0379
65.0377
65.0376
65.0375
65.0374
65.0373
65.0373
65.0374
65.0385
65.0382
65.038
65.0378
65.0377
65.0376
65.0375
65.0375
65.0375
65.0376
65.0387
65.0384
65.0382
65.038
65.0379
65.0378
65.0377
65.0376
65.0377
65.0378
65.0388
65.0386
65.0384
65.0383
65.0381
65.038
65.038
65.0379
65.0379
65.038
49.7676
49.7673
49.767
49.7667
49.7664
49.7662
49.7658
49.7655
49.7652
49.7651
49.7673
49.7669
49.7666
49.7664
49.7661
49.7658
49.7655
49.7651
49.7649
49.7648
49.7671
49.7667
49.7664
49.7661
49.7659
49.7656
49.7653
49.7649
49.7647
49.7647
49.7669
49.7665
49.7662
49.766
49.7657
49.7654
49.7651
49.7648
49.7645
49.7645
49.7668
49.7665
49.7662
49.7659
49.7657
49.7654
49.7651
49.7647
49.7645
49.7645
49.7668
49.7665
49.7662
49.7659
49.7657
49.7654
49.7651
49.7648
49.7645
49.7645
49.7669
49.7665
49.7663
49.766
49.7658
49.7655
49.7652
49.7649
49.7646
49.7646
49.767
49.7667
49.7664
49.7662
49.7659
49.7657
49.7654
49.765
49.7648
49.7648
49.7672
49.7669
49.7666
49.7664
49.7662
49.7659
49.7656
49.7653
49.7651
49.7651
49.7674
49.7672
49.7669
49.7667
49.7665
49.7662
49.7659
49.7656
49.7654
49.7654
36.784
36.7836
36.7832
36.7828
36.7824
36.7817
36.7809
36.7799
36.7789
36.7783
36.7836
36.7832
36.7829
36.7825
36.782
36.7814
36.7805
36.7795
36.7786
36.7781
36.7834
36.783
36.7826
36.7822
36.7818
36.7812
36.7803
36.7793
36.7784
36.7779
36.7832
36.7828
36.7825
36.7821
36.7816
36.781
36.7802
36.7792
36.7782
36.7778
36.7831
36.7827
36.7824
36.782
36.7816
36.7809
36.7801
36.7791
36.7782
36.7778
36.7831
36.7828
36.7824
36.782
36.7816
36.781
36.7801
36.7792
36.7782
36.7778
36.7832
36.7828
36.7825
36.7821
36.7817
36.7811
36.7803
36.7793
36.7783
36.7779
36.7834
36.783
36.7827
36.7823
36.7819
36.7813
36.7804
36.7795
36.7785
36.7781
36.7836
36.7832
36.7829
36.7826
36.7821
36.7815
36.7807
36.7797
36.7788
36.7784
36.7838
36.7836
36.7833
36.7829
36.7825
36.7819
36.7811
36.7801
36.7792
36.7787
26.2385
26.2381
26.2376
26.2371
26.2362
26.2349
26.2329
26.2304
26.2277
26.2259
26.2381
26.2377
26.2373
26.2367
26.2359
26.2346
26.2326
26.2301
26.2274
26.2256
26.2379
26.2375
26.2371
26.2365
26.2357
26.2344
26.2324
26.2299
26.2272
26.2255
26.2378
26.2374
26.2369
26.2364
26.2355
26.2342
26.2323
26.2297
26.2271
26.2254
26.2377
26.2373
26.2369
26.2363
26.2355
26.2342
26.2322
26.2297
26.227
26.2253
26.2377
26.2373
26.2369
26.2363
26.2355
26.2342
26.2323
26.2297
26.2271
26.2254
26.2378
26.2374
26.237
26.2364
26.2356
26.2343
26.2324
26.2298
26.2272
26.2255
26.238
26.2376
26.2372
26.2366
26.2358
26.2345
26.2326
26.23
26.2274
26.2257
26.2382
26.2378
26.2374
26.2369
26.2361
26.2348
26.2328
26.2303
26.2277
26.226
26.2384
26.2381
26.2378
26.2372
26.2364
26.2351
26.2332
26.2307
26.228
26.2263
18.052
18.0516
18.051
18.0501
18.0486
18.0461
18.0419
18.0359
18.029
18.0239
18.0517
18.0513
18.0507
18.0499
18.0484
18.0458
18.0416
18.0357
18.0288
18.0237
18.0515
18.0511
18.0505
18.0497
18.0482
18.0456
18.0414
18.0355
18.0286
18.0236
18.0514
18.051
18.0504
18.0496
18.0481
18.0455
18.0413
18.0354
18.0285
18.0235
18.0513
18.0509
18.0504
18.0495
18.048
18.0454
18.0413
18.0354
18.0285
18.0234
18.0514
18.0509
18.0504
18.0495
18.048
18.0455
18.0413
18.0354
18.0285
18.0235
18.0514
18.051
18.0505
18.0496
18.0481
18.0456
18.0414
18.0355
18.0287
18.0236
18.0516
18.0512
18.0506
18.0498
18.0483
18.0457
18.0416
18.0357
18.0288
18.0238
18.0518
18.0514
18.0509
18.05
18.0486
18.046
18.0419
18.0359
18.0291
18.024
18.052
18.0517
18.0512
18.0504
18.0489
18.0463
18.0422
18.0363
18.0294
18.0244
11.9744
11.974
11.9732
11.9719
11.9693
11.9646
11.9563
11.9434
11.9267
11.9124
11.9742
11.9737
11.973
11.9717
11.9691
11.9644
11.9561
11.9432
11.9265
11.9122
11.974
11.9736
11.9728
11.9715
11.969
11.9642
11.956
11.9431
11.9264
11.9121
11.9739
11.9735
11.9727
11.9714
11.9689
11.9641
11.9559
11.943
11.9263
11.9121
11.9739
11.9734
11.9727
11.9714
11.9688
11.9641
11.9558
11.943
11.9263
11.912
11.9739
11.9734
11.9727
11.9714
11.9689
11.9641
11.9559
11.943
11.9263
11.9121
11.974
11.9735
11.9728
11.9715
11.9689
11.9642
11.956
11.9431
11.9264
11.9122
11.9741
11.9737
11.9729
11.9716
11.9691
11.9644
11.9561
11.9432
11.9266
11.9123
11.9743
11.9739
11.9732
11.9718
11.9693
11.9646
11.9563
11.9435
11.9268
11.9126
11.9745
11.9741
11.9734
11.9721
11.9696
11.9649
11.9566
11.9438
11.9271
11.9129
7.65671
7.65622
7.65528
7.65335
7.64938
7.64146
7.62647
7.60041
7.56149
7.52078
7.65653
7.65605
7.65511
7.65317
7.64921
7.64129
7.62631
7.60026
7.56134
7.52068
7.65641
7.65593
7.65498
7.65305
7.64909
7.64118
7.62619
7.60015
7.56125
7.5206
7.65633
7.65585
7.65491
7.65298
7.64902
7.64111
7.62613
7.60009
7.56119
7.52055
7.6563
7.65582
7.65488
7.65295
7.649
7.64109
7.62611
7.60007
7.56118
7.52054
7.65632
7.65584
7.6549
7.65298
7.64902
7.64111
7.62614
7.6001
7.56121
7.52057
7.65638
7.65591
7.65497
7.65305
7.64909
7.64119
7.62621
7.60018
7.56129
7.52065
7.65649
7.65602
7.65509
7.65317
7.64922
7.64131
7.62634
7.60031
7.56142
7.52078
7.65664
7.65618
7.65526
7.65334
7.6494
7.64149
7.62652
7.60049
7.5616
7.52096
7.65681
7.65639
7.65548
7.65358
7.64963
7.64173
7.62676
7.60072
7.56183
7.52119
4.71932
4.7188
4.71765
4.71512
4.70963
4.69798
4.67399
4.62681
4.54146
4.41934
4.71919
4.71867
4.71752
4.71499
4.70951
4.69786
4.67388
4.6267
4.54136
4.41927
4.7191
4.71859
4.71743
4.71491
4.70942
4.69778
4.6738
4.62663
4.54129
4.41921
4.71905
4.71853
4.71738
4.71486
4.70937
4.69773
4.67375
4.62659
4.54125
4.41918
4.71903
4.71851
4.71736
4.71484
4.70936
4.69771
4.67374
4.62658
4.54125
4.41918
4.71904
4.71853
4.71738
4.71486
4.70938
4.69774
4.67376
4.6266
4.54127
4.4192
4.71909
4.71858
4.71743
4.71491
4.70944
4.69779
4.67382
4.62666
4.54133
4.41926
4.71917
4.71867
4.71752
4.71501
4.70953
4.69789
4.67392
4.62676
4.54143
4.41935
4.71929
4.71879
4.71765
4.71514
4.70967
4.69803
4.67406
4.62689
4.54156
4.41948
4.71942
4.71896
4.71783
4.71532
4.70985
4.69821
4.67423
4.62707
4.54173
4.41965
2.80424
2.80371
2.80244
2.79955
2.79305
2.77868
2.74713
2.67744
2.51816
2.12268
2.80415
2.80363
2.80236
2.79946
2.79297
2.7786
2.74705
2.67737
2.5181
2.12263
2.80409
2.80357
2.8023
2.7994
2.79291
2.77854
2.747
2.67732
2.51805
2.1226
2.80406
2.80353
2.80226
2.79937
2.79288
2.77851
2.74697
2.67729
2.51803
2.12258
2.80405
2.80352
2.80225
2.79936
2.79287
2.7785
2.74696
2.67729
2.51803
2.12258
2.80406
2.80353
2.80227
2.79937
2.79289
2.77852
2.74698
2.67731
2.51804
2.1226
2.80409
2.80357
2.80231
2.79941
2.79293
2.77856
2.74702
2.67735
2.51808
2.12263
2.80415
2.80364
2.80237
2.79948
2.793
2.77863
2.74709
2.67742
2.51815
2.12269
2.80424
2.80373
2.80247
2.79958
2.7931
2.77873
2.74719
2.67751
2.51824
2.12276
2.80434
2.80384
2.80259
2.79971
2.79323
2.77886
2.74732
2.67764
2.51836
2.12287
1.60676
1.60627
1.60504
1.6022
1.59582
1.58183
1.55166
1.48788
1.35603
1.09561
1.60671
1.60622
1.60498
1.60214
1.59577
1.58177
1.55161
1.48784
1.35599
1.09558
1.60667
1.60618
1.60494
1.6021
1.59573
1.58174
1.55158
1.4878
1.35596
1.09556
1.60664
1.60616
1.60492
1.60208
1.59571
1.58172
1.55156
1.48779
1.35595
1.09555
1.60664
1.60615
1.60492
1.60208
1.59571
1.58171
1.55156
1.48779
1.35595
1.09555
1.60665
1.60616
1.60493
1.60209
1.59572
1.58173
1.55157
1.4878
1.35596
1.09556
1.60667
1.60618
1.60495
1.60212
1.59575
1.58176
1.5516
1.48783
1.35599
1.09558
1.60671
1.60623
1.605
1.60216
1.5958
1.5818
1.55165
1.48787
1.35603
1.09562
1.60677
1.60629
1.60507
1.60223
1.59586
1.58187
1.55171
1.48794
1.35609
1.09566
1.60684
1.60637
1.60515
1.60232
1.59595
1.58196
1.5518
1.48802
1.35617
1.09573
0.888043
0.88763
0.886574
0.884163
0.878864
0.867583
0.844398
0.798781
0.714334
0.573065
0.888008
0.887596
0.88654
0.884129
0.878831
0.86755
0.844368
0.798753
0.714311
0.573047
0.887984
0.887572
0.886516
0.884106
0.878808
0.867528
0.844347
0.798735
0.714295
0.573035
0.88797
0.887558
0.886502
0.884093
0.878795
0.867516
0.844336
0.798725
0.714287
0.573029
0.887966
0.887554
0.886499
0.88409
0.878793
0.867514
0.844335
0.798724
0.714287
0.573029
0.887973
0.887561
0.886507
0.884097
0.878801
0.867523
0.844343
0.798733
0.714295
0.573036
0.88799
0.887579
0.886525
0.884116
0.87882
0.867542
0.844363
0.798751
0.714311
0.57305
0.888018
0.887608
0.886555
0.884147
0.878852
0.867574
0.844393
0.798781
0.714338
0.573072
0.888056
0.887649
0.886598
0.884191
0.878896
0.867618
0.844437
0.798822
0.714375
0.573103
0.888102
0.887703
0.886655
0.884249
0.878954
0.867676
0.844493
0.798876
0.714424
0.573144
0.473635
0.47332
0.472514
0.470708
0.466851
0.458957
0.44356
0.415293
0.367485
0.29594
0.473614
0.473299
0.472494
0.470688
0.466832
0.458938
0.443542
0.415277
0.367472
0.29593
0.4736
0.473285
0.47248
0.470674
0.466818
0.458925
0.44353
0.415267
0.367463
0.295923
0.473592
0.473277
0.472472
0.470666
0.466811
0.458918
0.443524
0.415261
0.367459
0.29592
0.47359
0.473275
0.47247
0.470665
0.46681
0.458917
0.443524
0.415261
0.367459
0.29592
0.473594
0.47328
0.472475
0.47067
0.466815
0.458923
0.443529
0.415266
0.367464
0.295924
0.473605
0.473291
0.472487
0.470682
0.466827
0.458935
0.443541
0.415278
0.367474
0.295933
0.473623
0.47331
0.472506
0.470702
0.466847
0.458955
0.44356
0.415296
0.36749
0.295947
0.473647
0.473335
0.472533
0.470729
0.466875
0.458982
0.443587
0.415321
0.367513
0.295965
0.473676
0.473369
0.472568
0.470765
0.466911
0.459018
0.443622
0.415354
0.367543
0.29599
0.243889
0.24367
0.243113
0.241894
0.239371
0.234408
0.225194
0.209258
0.184133
0.149262
0.243877
0.243658
0.243102
0.241883
0.23936
0.234398
0.225184
0.209249
0.184126
0.149256
0.243869
0.24365
0.243094
0.241875
0.239352
0.234391
0.225178
0.209244
0.184121
0.149252
0.243864
0.243645
0.243089
0.241871
0.239348
0.234387
0.225174
0.209241
0.184118
0.14925
0.243864
0.243645
0.243089
0.24187
0.239348
0.234387
0.225174
0.209241
0.184118
0.14925
0.243866
0.243648
0.243092
0.241873
0.239351
0.23439
0.225177
0.209244
0.184121
0.149253
0.243873
0.243654
0.243099
0.24188
0.239359
0.234397
0.225185
0.209251
0.184128
0.149258
0.243884
0.243666
0.24311
0.241892
0.23937
0.234409
0.225196
0.209261
0.184137
0.149266
0.243898
0.243681
0.243126
0.241909
0.239387
0.234425
0.225212
0.209276
0.18415
0.149277
0.243915
0.243701
0.243148
0.24193
0.239408
0.234447
0.225232
0.209295
0.184168
0.149292
0.121315
0.121174
0.120822
0.120068
0.118555
0.115688
0.110593
0.102209
0.0896878
0.0731968
0.121308
0.121168
0.120816
0.120062
0.118549
0.115683
0.110588
0.102204
0.0896838
0.0731936
0.121304
0.121164
0.120811
0.120057
0.118545
0.115679
0.110584
0.102201
0.0896812
0.0731915
0.121301
0.121161
0.120809
0.120055
0.118543
0.115677
0.110582
0.1022
0.0896799
0.0731906
0.121301
0.121161
0.120809
0.120055
0.118543
0.115677
0.110582
0.1022
0.0896801
0.0731908
0.121303
0.121163
0.120811
0.120057
0.118545
0.115679
0.110585
0.102202
0.0896819
0.0731923
0.121307
0.121167
0.120815
0.120061
0.118549
0.115683
0.110589
0.102206
0.0896853
0.0731952
0.121313
0.121173
0.120821
0.120068
0.118556
0.11569
0.110595
0.102212
0.0896907
0.0731998
0.121321
0.121182
0.120831
0.120077
0.118565
0.115699
0.110604
0.10222
0.0896982
0.073206
0.121331
0.121194
0.120843
0.12009
0.118577
0.115711
0.110616
0.102231
0.0897079
0.0732142
0.0583258
0.0582423
0.0580353
0.0576025
0.0567592
0.0552144
0.0525708
0.0483969
0.0424215
0.0348452
0.0583224
0.058239
0.058032
0.0575992
0.0567561
0.0552114
0.052568
0.0483945
0.0424194
0.0348435
0.0583202
0.0582367
0.0580298
0.0575971
0.056754
0.0552094
0.0525662
0.0483929
0.0424181
0.0348425
0.0583189
0.0582355
0.0580286
0.0575959
0.0567529
0.0552084
0.0525653
0.0483921
0.0424175
0.034842
0.0583188
0.0582354
0.0580285
0.0575959
0.0567529
0.0552085
0.0525654
0.0483922
0.0424176
0.0348421
0.0583198
0.0582364
0.0580296
0.057597
0.056754
0.0552096
0.0525665
0.0483933
0.0424186
0.034843
0.058322
0.0582386
0.0580319
0.0575993
0.0567564
0.055212
0.0525688
0.0483954
0.0424205
0.0348446
0.0583254
0.0582422
0.0580355
0.057603
0.0567601
0.0552156
0.0525723
0.0483987
0.0424234
0.0348471
0.05833
0.058247
0.0580406
0.0576082
0.0567652
0.0552206
0.0525772
0.0484032
0.0424274
0.0348505
0.0583355
0.0582534
0.0580473
0.0576149
0.0567719
0.0552272
0.0525834
0.0484091
0.0424327
0.0348549
0.0271206
0.0270741
0.0269603
0.0267276
0.0262862
0.0255016
0.0242028
0.0222224
0.0194842
0.0161169
0.0271189
0.0270724
0.0269587
0.026726
0.0262846
0.0255001
0.0242014
0.0222212
0.0194831
0.0161161
0.0271178
0.0270713
0.0269576
0.0267249
0.0262835
0.0254991
0.0242005
0.0222204
0.0194824
0.0161155
0.0271172
0.0270707
0.026957
0.0267243
0.026283
0.0254987
0.0242001
0.0222201
0.0194821
0.0161153
0.0271171
0.0270707
0.026957
0.0267243
0.0262831
0.0254987
0.0242002
0.0222202
0.0194822
0.0161154
0.0271177
0.0270712
0.0269576
0.026725
0.0262837
0.0254993
0.0242008
0.0222207
0.0194828
0.0161159
0.0271189
0.0270724
0.0269588
0.0267262
0.0262849
0.0255006
0.024202
0.0222218
0.0194838
0.0161167
0.0271207
0.0270743
0.0269607
0.0267281
0.0262869
0.0255025
0.0242038
0.0222236
0.0194853
0.016118
0.0271231
0.0270769
0.0269634
0.0267309
0.0262896
0.0255051
0.0242063
0.0222259
0.0194874
0.0161198
0.027126
0.0270802
0.0269669
0.0267344
0.0262931
0.0255086
0.0242096
0.022229
0.0194901
0.0161221
0.012204
0.0121796
0.0121207
0.0120026
0.0117841
0.0114063
0.0107993
0.0099035
0.00870839
0.00729871
0.0122032
0.0121788
0.0121199
0.0120018
0.0117833
0.0114056
0.0107986
0.00990292
0.00870789
0.00729829
0.0122027
0.0121783
0.0121194
0.0120013
0.0117828
0.0114051
0.0107982
0.00990254
0.00870757
0.00729803
0.0122024
0.012178
0.0121191
0.0120011
0.0117826
0.0114049
0.010798
0.00990237
0.00870743
0.00729792
0.0122024
0.012178
0.0121191
0.0120011
0.0117826
0.0114049
0.0107981
0.00990243
0.00870749
0.00729798
0.0122027
0.0121783
0.0121194
0.0120014
0.011783
0.0114052
0.0107984
0.00990273
0.00870776
0.00729822
0.0122033
0.0121789
0.0121201
0.012002
0.0117836
0.0114059
0.010799
0.00990329
0.00870827
0.00729866
0.0122042
0.0121799
0.012121
0.012003
0.0117846
0.0114068
0.0107999
0.00990415
0.00870905
0.00729933
0.0122054
0.0121812
0.0121224
0.0120044
0.0117859
0.0114082
0.0108012
0.00990534
0.00871011
0.00730024
0.0122069
0.0121829
0.0121242
0.0120062
0.0117877
0.0114099
0.0108028
0.00990686
0.00871147
0.00730141
0.00531806
0.00530594
0.00527703
0.00522019
0.0051174
0.00494431
0.00467454
0.00429149
0.00381151
0.00332945
0.00531768
0.00530556
0.00527666
0.00521982
0.00511705
0.00494397
0.00467424
0.00429121
0.00381127
0.00332924
0.00531742
0.00530531
0.00527641
0.00521958
0.00511682
0.00494376
0.00467404
0.00429104
0.00381112
0.00332912
0.0053173
0.00530519
0.00527629
0.00521947
0.00511671
0.00494366
0.00467395
0.00429097
0.00381106
0.00332907
0.0053173
0.0053052
0.00527631
0.00521948
0.00511674
0.00494369
0.00467398
0.004291
0.00381109
0.0033291
0.00531745
0.00530535
0.00527646
0.00521964
0.0051169
0.00494385
0.00467414
0.00429115
0.00381123
0.00332923
0.00531775
0.00530565
0.00527677
0.00521996
0.00511721
0.00494415
0.00467444
0.00429143
0.00381148
0.00332946
0.0053182
0.00530611
0.00527725
0.00522044
0.00511769
0.00494463
0.00467489
0.00429185
0.00381186
0.0033298
0.0053188
0.00530675
0.00527791
0.00522111
0.00511836
0.00494527
0.00467551
0.00429242
0.00381238
0.00333026
0.00531953
0.00530759
0.00527877
0.00522198
0.00511922
0.00494611
0.0046763
0.00429316
0.00381305
0.00333085
0.986251
0.471619
0.235494
0.138864
0.128874
0.202321
0.402851
0.844574
1.77794
3.7565
0.986226
0.471604
0.235485
0.138856
0.128863
0.202303
0.402819
0.844516
1.77784
3.75632
0.986209
0.471595
0.235479
0.13885
0.128856
0.202291
0.402797
0.844478
1.77777
3.7562
0.9862
0.47159
0.235476
0.138847
0.128852
0.202284
0.402785
0.844455
1.77773
3.75613
0.9862
0.47159
0.235476
0.138847
0.12885
0.202282
0.40278
0.844447
1.77772
3.75611
0.98621
0.471596
0.235479
0.138849
0.128851
0.202283
0.402781
0.84445
1.77772
3.75613
0.986229
0.471607
0.235485
0.138853
0.128855
0.202287
0.402789
0.844464
1.77775
3.75618
0.98626
0.471624
0.235495
0.138859
0.12886
0.202294
0.402801
0.844486
1.77779
3.75626
0.986303
0.471648
0.235509
0.138868
0.128867
0.202302
0.402815
0.844515
1.77785
3.75637
0.986355
0.471676
0.235525
0.138877
0.128875
0.202312
0.402831
0.844543
1.7779
3.75648
0.65133
0.35283
0.189572
0.117446
0.111549
0.173413
0.335925
0.675082
1.3266
2.47839
0.651312
0.352818
0.189565
0.117439
0.11154
0.173398
0.335898
0.675035
1.32652
2.47826
0.651299
0.35281
0.18956
0.117434
0.111534
0.173387
0.33588
0.675004
1.32646
2.47818
0.651293
0.352807
0.189557
0.117431
0.11153
0.173381
0.33587
0.674985
1.32643
2.47813
0.651293
0.352807
0.189557
0.117431
0.111529
0.173379
0.335866
0.674978
1.32642
2.47811
0.6513
0.352812
0.18956
0.117433
0.11153
0.17338
0.335867
0.674981
1.32643
2.47812
0.651315
0.352821
0.189566
0.117436
0.111533
0.173384
0.335873
0.674993
1.32645
2.47816
0.651339
0.352835
0.189574
0.117442
0.111538
0.17339
0.335884
0.675013
1.32649
2.47823
0.651371
0.352855
0.189586
0.11745
0.111545
0.173399
0.335899
0.67504
1.32654
2.47831
0.651414
0.352881
0.189602
0.11746
0.111553
0.17341
0.335917
0.675073
1.3266
2.47842
0.380489
0.22693
0.131697
0.0868983
0.0851548
0.130403
0.243103
0.463737
0.849699
1.44573
0.380477
0.226922
0.131692
0.0868929
0.0851477
0.130391
0.243083
0.463705
0.849647
1.44565
0.380469
0.226917
0.131688
0.0868893
0.0851429
0.130383
0.24307
0.463682
0.849611
1.4456
0.380465
0.226914
0.131686
0.0868873
0.0851401
0.130379
0.243062
0.463669
0.84959
1.44557
0.380465
0.226914
0.131686
0.086887
0.0851392
0.130377
0.243059
0.463664
0.849582
1.44556
0.38047
0.226918
0.131688
0.0868884
0.0851401
0.130378
0.24306
0.463666
0.849587
1.44557
0.38048
0.226925
0.131693
0.0868913
0.0851427
0.130381
0.243065
0.463675
0.849603
1.44559
0.380496
0.226935
0.131699
0.086896
0.0851469
0.130386
0.243074
0.463691
0.84963
1.44564
0.380519
0.22695
0.131709
0.0869025
0.0851527
0.130394
0.243087
0.463713
0.849668
1.4457
0.380548
0.226969
0.131721
0.086911
0.0851602
0.130404
0.243103
0.463741
0.849716
1.44578
0.208431
0.13313
0.0825966
0.0579462
0.0585488
0.0881644
0.157986
0.286873
0.495879
0.79052
0.208423
0.133125
0.0825927
0.0579424
0.0585438
0.0881564
0.157972
0.286852
0.495847
0.790475
0.208418
0.133121
0.0825901
0.0579399
0.0585404
0.088151
0.157963
0.286838
0.495825
0.790443
0.208416
0.13312
0.0825888
0.0579386
0.0585384
0.0881477
0.157958
0.286829
0.495811
0.790425
0.208416
0.13312
0.0825889
0.0579384
0.0585378
0.0881465
0.157956
0.286826
0.495807
0.790418
0.20842
0.133122
0.0825905
0.0579394
0.0585385
0.0881472
0.157957
0.286827
0.49581
0.790423
0.208426
0.133127
0.0825936
0.0579416
0.0585404
0.0881496
0.157961
0.286834
0.495821
0.79044
0.208437
0.133134
0.0825983
0.057945
0.0585436
0.0881537
0.157967
0.286845
0.495839
0.790469
0.208451
0.133144
0.082605
0.0579498
0.0585481
0.0881596
0.157977
0.286861
0.495865
0.790509
0.208469
0.133157
0.0826138
0.0579562
0.0585539
0.0881672
0.157989
0.286882
0.495899
0.790562
0.109007
0.0731781
0.047992
0.0355587
0.0368997
0.0546457
0.09439
0.164177
0.270925
0.412528
0.109002
0.073175
0.0479896
0.0355563
0.0368964
0.0546406
0.0943819
0.164165
0.270906
0.412503
0.108999
0.0731729
0.0479879
0.0355546
0.0368942
0.0546371
0.0943762
0.164156
0.270893
0.412485
0.108998
0.073172
0.0479872
0.0355537
0.0368929
0.054635
0.0943729
0.164151
0.270886
0.412475
0.108998
0.0731722
0.0479872
0.0355536
0.0368925
0.0546343
0.0943716
0.164149
0.270883
0.412471
0.109
0.0731737
0.0479883
0.0355543
0.0368931
0.0546348
0.0943723
0.16415
0.270885
0.412475
0.109004
0.0731766
0.0479903
0.0355558
0.0368944
0.0546365
0.094375
0.164154
0.270892
0.412485
0.109011
0.0731811
0.0479934
0.0355582
0.0368967
0.0546394
0.0943795
0.164162
0.270904
0.412502
0.109019
0.0731872
0.0479978
0.0355615
0.0368998
0.0546435
0.094386
0.164172
0.270921
0.412527
0.10903
0.0731953
0.0480035
0.0355658
0.0369039
0.0546488
0.0943944
0.164186
0.270943
0.41256
0.0548048
0.0382016
0.0262328
0.0203718
0.021612
0.0315077
0.0526733
0.088328
0.14049
0.206887
0.0548023
0.0381997
0.0262313
0.0203703
0.02161
0.0315046
0.0526685
0.0883208
0.14048
0.206873
0.0548008
0.0381986
0.0262303
0.0203693
0.0216087
0.0315025
0.0526652
0.0883158
0.140473
0.206863
0.0548001
0.0381981
0.0262299
0.0203688
0.0216079
0.0315013
0.0526632
0.0883128
0.140469
0.206858
0.0548003
0.0381982
0.02623
0.0203687
0.0216077
0.0315009
0.0526625
0.0883117
0.140467
0.206856
0.0548015
0.0381991
0.0262306
0.0203692
0.021608
0.0315012
0.052663
0.0883126
0.140468
0.206858
0.0548038
0.0382008
0.0262318
0.0203701
0.0216089
0.0315023
0.0526647
0.0883153
0.140473
0.206864
0.0548074
0.0382035
0.0262338
0.0203716
0.0216104
0.0315042
0.0526676
0.0883198
0.14048
0.206874
0.0548123
0.0382072
0.0262364
0.0203737
0.0216124
0.0315069
0.0526717
0.0883264
0.14049
0.206889
0.0548188
0.0382119
0.0262399
0.0203765
0.0216151
0.0315104
0.0526771
0.0883349
0.140503
0.206908
0.0265881
0.0190964
0.0136321
0.0110207
0.0119035
0.0171045
0.0277835
0.0451631
0.0697261
0.100089
0.0265868
0.0190954
0.0136313
0.0110198
0.0119024
0.0171028
0.0277809
0.0451592
0.0697206
0.100082
0.026586
0.0190948
0.0136307
0.0110193
0.0119016
0.0171016
0.027779
0.0451565
0.0697168
0.100077
0.0265856
0.0190945
0.0136305
0.011019
0.0119012
0.0171009
0.0277779
0.0451549
0.0697146
0.100074
0.0265858
0.0190946
0.0136305
0.0110189
0.011901
0.0171007
0.0277776
0.0451544
0.0697138
0.100073
0.0265865
0.0190951
0.0136309
0.0110192
0.0119013
0.0171009
0.0277779
0.0451549
0.0697147
0.100074
0.0265877
0.0190961
0.0136316
0.0110198
0.0119018
0.0171016
0.0277789
0.0451565
0.0697171
0.100078
0.0265897
0.0190976
0.0136328
0.0110207
0.0119027
0.0171028
0.0277807
0.0451592
0.0697211
0.100083
0.0265924
0.0190996
0.0136343
0.0110219
0.011904
0.0171044
0.0277831
0.045163
0.0697269
0.100091
0.026596
0.0191023
0.0136363
0.0110236
0.0119056
0.0171065
0.0277863
0.045168
0.0697344
0.100102
0.012516
0.00923348
0.00682487
0.00571711
0.00626796
0.00888512
0.0140619
0.0222356
0.0334508
0.046966
0.0125154
0.00923295
0.00682441
0.00571662
0.00626732
0.00888418
0.0140605
0.0222335
0.033448
0.0469624
0.012515
0.00923262
0.00682412
0.0057163
0.00626689
0.00888353
0.0140595
0.0222321
0.033446
0.0469598
0.0125148
0.00923248
0.00682399
0.00571614
0.00626664
0.00888316
0.0140589
0.0222313
0.0334449
0.0469584
0.0125149
0.00923254
0.00682402
0.00571613
0.00626659
0.00888304
0.0140588
0.022231
0.0334446
0.046958
0.0125152
0.00923283
0.00682423
0.00571629
0.00626673
0.00888319
0.014059
0.0222313
0.0334451
0.0469587
0.0125159
0.00923337
0.00682464
0.00571662
0.00626705
0.0088836
0.0140596
0.0222322
0.0334464
0.0469606
0.012517
0.00923419
0.00682527
0.00571714
0.00626758
0.00888428
0.0140606
0.0222337
0.0334486
0.0469636
0.0125184
0.0092353
0.00682613
0.00571786
0.00626832
0.00888523
0.014062
0.0222359
0.0334517
0.046968
0.0125203
0.00923675
0.00682724
0.0057188
0.00626927
0.00888647
0.0140638
0.0222387
0.0334559
0.0469737
0.00586085
0.00447635
0.0034345
0.00297879
0.00331006
0.0046295
0.00714285
0.0109856
0.0160676
0.0219048
0.00586051
0.00447607
0.00343424
0.00297851
0.0033097
0.00462898
0.00714209
0.0109846
0.0160662
0.0219029
0.0058603
0.0044759
0.00343408
0.00297834
0.00330946
0.00462863
0.00714156
0.0109838
0.0160652
0.0219017
0.00586021
0.00447583
0.00343401
0.00297825
0.00330933
0.00462843
0.00714126
0.0109834
0.0160646
0.0219009
0.00586026
0.00447587
0.00343404
0.00297825
0.00330931
0.00462837
0.00714117
0.0109833
0.0160645
0.0219008
0.00586047
0.00447603
0.00343416
0.00297834
0.00330939
0.00462846
0.0071413
0.0109835
0.0160647
0.0219012
0.00586084
0.00447632
0.00343439
0.00297854
0.00330958
0.00462871
0.00714165
0.010984
0.0160655
0.0219022
0.00586139
0.00447677
0.00343474
0.00297884
0.0033099
0.0046291
0.00714222
0.0109848
0.0160667
0.0219038
0.00586215
0.00447737
0.00343522
0.00297925
0.00331033
0.00462966
0.00714303
0.010986
0.0160684
0.0219061
0.00586313
0.00447815
0.00343584
0.00297978
0.00331088
0.00463037
0.00714406
0.0109876
0.0160706
0.0219092
0.00314031
0.0025622
0.00205291
0.00183931
0.00206731
0.00285769
0.00430973
0.00644876
0.00910411
0.011677
0.00314014
0.00256205
0.00205277
0.00183915
0.00206711
0.00285739
0.0043093
0.00644816
0.00910334
0.011676
0.00314002
0.00256195
0.00205268
0.00183904
0.00206696
0.00285717
0.00430898
0.00644771
0.00910276
0.0116753
0.00313997
0.00256191
0.00205263
0.00183899
0.00206687
0.00285704
0.00430879
0.00644745
0.00910242
0.0116749
0.00314001
0.00256194
0.00205265
0.00183899
0.00206686
0.00285701
0.00430874
0.00644739
0.00910234
0.0116749
0.00314013
0.00256204
0.00205273
0.00183906
0.00206692
0.00285708
0.00430884
0.00644752
0.00910253
0.0116751
0.00314036
0.00256223
0.00205289
0.00183919
0.00206705
0.00285725
0.00430907
0.00644786
0.00910301
0.0116757
0.00314069
0.00256251
0.00205312
0.00183939
0.00206727
0.00285752
0.00430946
0.00644842
0.00910378
0.0116767
0.00314114
0.00256289
0.00205343
0.00183967
0.00206756
0.00285789
0.00430999
0.00644919
0.00910485
0.0116781
0.00314169
0.00256336
0.00205381
0.00184001
0.00206792
0.00285835
0.00431065
0.00645015
0.0091062
0.0116798
8.10154
9.61344
10.2223
10.4886
10.6092
10.6642
10.6891
10.7002
10.7051
10.7071
8.10121
9.61306
10.2219
10.4882
10.6088
10.6638
10.6887
10.6998
10.7048
10.7068
8.10101
9.61283
10.2216
10.488
10.6086
10.6636
10.6884
10.6996
10.7046
10.7066
8.10089
9.61269
10.2215
10.4878
10.6084
10.6634
10.6883
10.6995
10.7044
10.7065
8.10085
9.61265
10.2214
10.4878
10.6084
10.6634
10.6883
10.6995
10.7044
10.7065
8.10088
9.61269
10.2215
10.4878
10.6085
10.6634
10.6883
10.6995
10.7045
10.7066
8.10098
9.61281
10.2216
10.488
10.6086
10.6636
10.6885
10.6997
10.7047
10.7067
8.10114
9.61301
10.2219
10.4882
10.6089
10.6639
10.6888
10.6999
10.7049
10.707
8.10136
9.61328
10.2222
10.4886
10.6092
10.6642
10.6891
10.7003
10.7053
10.7074
8.1016
9.6136
10.2225
10.4889
10.6096
10.6646
10.6895
10.7007
10.7057
10.7078
4.17969
5.17595
5.68012
5.92395
6.03925
6.09278
6.11718
6.12809
6.13285
6.13473
4.17952
5.17575
5.6799
5.92371
6.03901
6.09254
6.11694
6.12786
6.13264
6.13457
4.1794
5.1756
5.67974
5.92355
6.03885
6.09238
6.11678
6.12771
6.1325
6.13445
4.17933
5.17552
5.67965
5.92346
6.03876
6.09229
6.1167
6.12763
6.13242
6.13438
4.1793
5.17549
5.67962
5.92343
6.03873
6.09227
6.11668
6.12761
6.13241
6.13437
4.17932
5.17551
5.67965
5.92347
6.03877
6.09231
6.11672
6.12766
6.13246
6.13443
4.17938
5.17559
5.67974
5.92356
6.03887
6.09242
6.11683
6.12777
6.13257
6.13454
4.17948
5.17572
5.67989
5.92372
6.03904
6.09259
6.11701
6.12795
6.13276
6.13472
4.17962
5.1759
5.6801
5.92395
6.03927
6.09283
6.11725
6.12819
6.133
6.13497
4.1798
5.17614
5.68037
5.92424
6.03957
6.09313
6.11756
6.12851
6.13332
6.13529
2.18509
2.72612
3.04921
3.22364
3.31228
3.35542
3.37571
3.38496
3.38903
3.39064
2.18499
2.72601
3.04908
3.22351
3.31214
3.35528
3.37557
3.38482
3.38891
3.39054
2.18492
2.72592
3.04898
3.22341
3.31205
3.35519
3.37547
3.38473
3.38882
3.39047
2.18488
2.72587
3.04893
3.22335
3.31199
3.35513
3.37542
3.38468
3.38878
3.39043
2.18486
2.72585
3.04891
3.22334
3.31197
3.35512
3.37541
3.38467
3.38877
3.39043
2.18487
2.72587
3.04893
3.22336
3.312
3.35515
3.37544
3.3847
3.3888
3.39046
2.18491
2.72592
3.04899
3.22342
3.31207
3.35521
3.37551
3.38478
3.38888
3.39054
2.18498
2.726
3.04908
3.22353
3.31218
3.35533
3.37563
3.3849
3.389
3.39066
2.18507
2.72612
3.04922
3.22367
3.31233
3.35549
3.37579
3.38506
3.38916
3.39082
2.18519
2.72627
3.0494
3.22387
3.31253
3.3557
3.376
3.38527
3.38938
3.39104
1.12769
1.40212
1.58517
1.6933
1.75218
1.78237
1.79714
1.80406
1.80717
1.8084
1.12763
1.40205
1.58509
1.69322
1.7521
1.78229
1.79706
1.80399