/*--------------------------------*- C++ -*----------------------------------*\
  =========                 |
  \\      /  F ield         | OpenFOAM: The Open Source CFD Toolbox
   \\    /   O peration     | Website:  https://openfoam.org
    \\  /    A nd           | Version:  6
     \\/     M anipulation  |
\*---------------------------------------------------------------------------*/
FoamFile
{
    version     2.0;
    format      ascii;
    class       volScalarField;
    location    "0.58";
    object      T;
}
// * * * * * * * * * * * * * * * * * * * * * * * * * * * * * * * * * * * * * //

dimensions      [0 0 0 1 0 0 0];

internalField   nonuniform List<scalar> 
7000
(
105.848
105.846
105.842
105.836
105.828
105.82
105.812
105.805
105.799
105.796
105.848
105.846
105.842
105.836
105.828
105.82
105.812
105.805
105.799
105.796
105.848
105.846
105.842
105.836
105.828
105.82
105.812
105.805
105.799
105.796
105.848
105.846
105.842
105.836
105.828
105.82
105.812
105.805
105.799
105.796
105.848
105.846
105.842
105.836
105.828
105.82
105.812
105.805
105.799
105.796
105.848
105.846
105.842
105.836
105.828
105.82
105.812
105.805
105.799
105.796
105.848
105.846
105.842
105.836
105.828
105.82
105.812
105.805
105.799
105.796
105.848
105.846
105.842
105.836
105.828
105.82
105.812
105.805
105.799
105.796
105.848
105.846
105.842
105.836
105.828
105.82
105.812
105.805
105.799
105.796
105.848
105.846
105.842
105.836
105.828
105.82
105.812
105.805
105.799
105.796
97.5797
97.5728
97.5596
97.5408
97.5179
97.4926
97.4674
97.4449
97.4279
97.4188
97.5796
97.5728
97.5596
97.5408
97.5179
97.4926
97.4674
97.4449
97.4279
97.4188
97.5796
97.5728
97.5596
97.5408
97.5179
97.4926
97.4673
97.4449
97.4279
97.4188
97.5796
97.5728
97.5596
97.5408
97.5178
97.4926
97.4673
97.4449
97.4279
97.4187
97.5796
97.5728
97.5596
97.5408
97.5178
97.4926
97.4673
97.4449
97.4279
97.4187
97.5796
97.5728
97.5596
97.5408
97.5178
97.4926
97.4673
97.4449
97.4279
97.4187
97.5796
97.5728
97.5596
97.5408
97.5178
97.4926
97.4673
97.4449
97.4279
97.4187
97.5796
97.5728
97.5596
97.5408
97.5178
97.4926
97.4673
97.4449
97.4279
97.4187
97.5796
97.5728
97.5596
97.5408
97.5179
97.4926
97.4673
97.4449
97.4279
97.4188
97.5796
97.5728
97.5596
97.5408
97.5179
97.4926
97.4674
97.4449
97.4279
97.4188
89.4155
89.4036
89.3806
89.3479
89.3075
89.2628
89.2178
89.1773
89.1465
89.1298
89.4155
89.4036
89.3806
89.3478
89.3075
89.2628
89.2177
89.1773
89.1465
89.1298
89.4154
89.4036
89.3806
89.3478
89.3075
89.2627
89.2177
89.1772
89.1464
89.1298
89.4154
89.4036
89.3806
89.3478
89.3075
89.2627
89.2177
89.1772
89.1464
89.1297
89.4154
89.4036
89.3806
89.3478
89.3075
89.2627
89.2177
89.1772
89.1464
89.1297
89.4154
89.4036
89.3806
89.3478
89.3075
89.2627
89.2177
89.1772
89.1464
89.1297
89.4154
89.4036
89.3806
89.3478
89.3075
89.2627
89.2177
89.1772
89.1464
89.1297
89.4154
89.4036
89.3806
89.3478
89.3075
89.2627
89.2177
89.1772
89.1464
89.1297
89.4154
89.4036
89.3806
89.3478
89.3075
89.2628
89.2177
89.1772
89.1465
89.1298
89.4154
89.4036
89.3806
89.3478
89.3075
89.2628
89.2177
89.1773
89.1465
89.1298
81.4229
81.4054
81.3713
81.3223
81.2614
81.1932
81.1236
81.0601
81.0112
80.9843
81.4229
81.4054
81.3712
81.3222
81.2614
81.1932
81.1235
81.0601
81.0111
80.9843
81.4229
81.4053
81.3712
81.3222
81.2614
81.1931
81.1235
81.0601
81.0111
80.9843
81.4228
81.4053
81.3712
81.3222
81.2614
81.1931
81.1235
81.06
81.0111
80.9843
81.4228
81.4053
81.3712
81.3222
81.2614
81.1931
81.1235
81.06
81.0111
80.9843
81.4228
81.4053
81.3712
81.3222
81.2614
81.1931
81.1235
81.06
81.0111
80.9843
81.4228
81.4053
81.3712
81.3222
81.2614
81.1931
81.1235
81.06
81.0111
80.9843
81.4228
81.4053
81.3712
81.3222
81.2614
81.1931
81.1235
81.06
81.0111
80.9843
81.4229
81.4053
81.3712
81.3222
81.2614
81.1932
81.1235
81.0601
81.0111
80.9843
81.4229
81.4054
81.3712
81.3222
81.2614
81.1932
81.1236
81.0601
81.0111
80.9843
73.6658
73.6418
73.5947
73.5266
73.441
73.3434
73.2418
73.1473
73.0727
73.0312
73.6657
73.6417
73.5947
73.5266
73.4409
73.3433
73.2418
73.1472
73.0727
73.0311
73.6657
73.6417
73.5946
73.5265
73.4409
73.3433
73.2418
73.1472
73.0727
73.0311
73.6657
73.6417
73.5946
73.5265
73.4409
73.3433
73.2417
73.1472
73.0726
73.0311
73.6657
73.6416
73.5946
73.5265
73.4409
73.3433
73.2417
73.1472
73.0726
73.0311
73.6657
73.6416
73.5946
73.5265
73.4409
73.3433
73.2417
73.1472
73.0726
73.0311
73.6657
73.6416
73.5946
73.5265
73.4409
73.3433
73.2417
73.1472
73.0726
73.0311
73.6657
73.6417
73.5946
73.5265
73.4409
73.3433
73.2417
73.1472
73.0727
73.0311
73.6657
73.6417
73.5946
73.5265
73.4409
73.3433
73.2418
73.1472
73.0727
73.0311
73.6657
73.6417
73.5947
73.5266
73.441
73.3433
73.2418
73.1473
73.0727
73.0312
66.2032
66.1718
66.1099
66.0194
65.9038
65.7691
65.6252
65.487
65.3744
65.3097
66.2031
66.1718
66.1099
66.0194
65.9037
65.769
65.6252
65.487
65.3743
65.3097
66.2031
66.1717
66.1099
66.0193
65.9037
65.769
65.6251
65.4869
65.3743
65.3096
66.2031
66.1717
66.1098
66.0193
65.9037
65.769
65.6251
65.4869
65.3743
65.3096
66.2031
66.1717
66.1098
66.0193
65.9036
65.769
65.6251
65.4869
65.3743
65.3096
66.2031
66.1717
66.1098
66.0193
65.9036
65.769
65.6251
65.4869
65.3743
65.3096
66.2031
66.1717
66.1098
66.0193
65.9036
65.769
65.6251
65.4869
65.3743
65.3096
66.2031
66.1717
66.1098
66.0193
65.9037
65.769
65.6251
65.4869
65.3743
65.3096
66.2031
66.1717
66.1099
66.0193
65.9037
65.769
65.6252
65.4869
65.3743
65.3097
66.2031
66.1718
66.1099
66.0194
65.9037
65.7691
65.6252
65.487
65.3744
65.3097
59.0886
59.0492
58.9708
58.8547
58.7035
58.5227
58.3226
58.1217
57.9495
57.8454
59.0885
59.0491
58.9708
58.8547
58.7035
58.5226
58.3225
58.1217
57.9494
57.8454
59.0885
59.0491
58.9707
58.8546
58.7034
58.5226
58.3225
58.1216
57.9494
57.8454
59.0885
59.0491
58.9707
58.8546
58.7034
58.5225
58.3225
58.1216
57.9494
57.8453
59.0885
59.049
58.9707
58.8546
58.7034
58.5225
58.3225
58.1216
57.9493
57.8453
59.0884
59.049
58.9707
58.8546
58.7034
58.5225
58.3225
58.1216
57.9493
57.8453
59.0885
59.049
58.9707
58.8546
58.7034
58.5225
58.3225
58.1216
57.9494
57.8453
59.0885
59.0491
58.9707
58.8546
58.7034
58.5226
58.3225
58.1216
57.9494
57.8454
59.0885
59.0491
58.9708
58.8547
58.7035
58.5226
58.3225
58.1216
57.9494
57.8454
59.0885
59.0491
58.9708
58.8547
58.7035
58.5227
58.3226
58.1217
57.9495
57.8454
52.3686
52.3209
52.2253
52.0817
51.8904
51.6543
51.3811
51.0899
50.8201
50.6419
52.3685
52.3208
52.2253
52.0816
51.8903
51.6542
51.3811
51.0899
50.82
50.6418
52.3685
52.3208
52.2252
52.0816
51.8903
51.6542
51.381
51.0898
50.82
50.6418
52.3685
52.3208
52.2252
52.0815
51.8903
51.6541
51.381
51.0898
50.82
50.6417
52.3684
52.3207
52.2252
52.0815
51.8903
51.6541
51.381
51.0898
50.82
50.6417
52.3684
52.3207
52.2252
52.0815
51.8903
51.6541
51.381
51.0898
50.82
50.6417
52.3684
52.3208
52.2252
52.0815
51.8903
51.6541
51.381
51.0898
50.82
50.6417
52.3685
52.3208
52.2252
52.0815
51.8903
51.6542
51.381
51.0898
50.82
50.6418
52.3685
52.3208
52.2252
52.0816
51.8903
51.6542
51.3811
51.0898
50.82
50.6418
52.3685
52.3209
52.2253
52.0816
51.8904
51.6542
51.3811
51.0899
50.8201
50.6419
46.082
46.0266
45.9147
45.744
45.5115
45.2143
44.8519
44.4339
43.9993
43.6621
46.082
46.0265
45.9146
45.7439
45.5115
45.2142
44.8518
44.4338
43.9992
43.6621
46.0819
46.0265
45.9145
45.7439
45.5114
45.2142
44.8518
44.4337
43.9992
43.6621
46.0819
46.0265
45.9145
45.7438
45.5114
45.2141
44.8517
44.4337
43.9992
43.662
46.0819
46.0264
45.9145
45.7438
45.5114
45.2141
44.8517
44.4337
43.9992
43.662
46.0819
46.0264
45.9145
45.7438
45.5114
45.2141
44.8517
44.4337
43.9992
43.662
46.0819
46.0264
45.9145
45.7438
45.5114
45.2141
44.8517
44.4337
43.9992
43.662
46.0819
46.0265
45.9145
45.7439
45.5114
45.2142
44.8518
44.4337
43.9992
43.6621
46.0819
46.0265
45.9146
45.7439
45.5114
45.2142
44.8518
44.4338
43.9993
43.6621
46.082
46.0266
45.9146
45.744
45.5115
45.2143
44.8519
44.4338
43.9993
43.6622
40.2589
40.1973
40.0721
39.879
39.6106
39.2559
38.7989
38.22
37.5123
36.7806
40.2588
40.1972
40.0721
39.879
39.6106
39.2558
38.7988
38.2199
37.5122
36.7806
40.2587
40.1972
40.072
39.8789
39.6105
39.2558
38.7987
38.2199
37.5122
36.7805
40.2587
40.1971
40.072
39.8789
39.6105
39.2557
38.7987
38.2199
37.5121
36.7805
40.2587
40.1971
40.072
39.8789
39.6105
39.2557
38.7987
38.2198
37.5121
36.7805
40.2587
40.1971
40.072
39.8789
39.6105
39.2557
38.7987
38.2198
37.5121
36.7805
40.2587
40.1971
40.072
39.8789
39.6105
39.2557
38.7987
38.2199
37.5121
36.7805
40.2587
40.1972
40.072
39.8789
39.6105
39.2558
38.7987
38.2199
37.5122
36.7805
40.2588
40.1972
40.0721
39.879
39.6106
39.2558
38.7988
38.2199
37.5122
36.7806
40.2588
40.1973
40.0721
39.879
39.6106
39.2559
38.7988
38.22
37.5123
36.7806
34.9192
34.8542
34.7215
34.5154
34.2253
33.8334
33.3074
32.5828
31.5068
29.6348
34.9191
34.8541
34.7214
34.5153
34.2252
33.8333
33.3074
32.5828
31.5067
29.6348
34.9191
34.854
34.7214
34.5152
34.2252
33.8333
33.3073
32.5827
31.5067
29.6347
34.919
34.854
34.7214
34.5152
34.2251
33.8332
33.3073
32.5827
31.5066
29.6347
34.919
34.854
34.7213
34.5152
34.2251
33.8332
33.3073
32.5827
31.5066
29.6347
34.919
34.854
34.7213
34.5152
34.2251
33.8332
33.3073
32.5827
31.5066
29.6347
34.919
34.854
34.7214
34.5152
34.2251
33.8332
33.3073
32.5827
31.5066
29.6347
34.9191
34.854
34.7214
34.5152
34.2252
33.8333
33.3073
32.5827
31.5067
29.6347
34.9191
34.8541
34.7214
34.5153
34.2252
33.8333
33.3074
32.5828
31.5067
29.6348
34.9191
34.8541
34.7215
34.5153
34.2253
33.8334
33.3074
32.5828
31.5068
29.6348
30.0725
30.0074
29.8748
29.6687
29.3789
28.988
28.466
27.76
26.7766
25.3711
30.0724
30.0074
29.8747
29.6686
29.3789
28.9879
28.4659
27.76
26.7765
25.371
30.0723
30.0073
29.8747
29.6686
29.3788
28.9879
28.4659
27.7599
26.7765
25.3709
30.0723
30.0073
29.8746
29.6686
29.3788
28.9879
28.4658
27.7599
26.7765
25.3709
30.0723
30.0073
29.8746
29.6686
29.3788
28.9879
28.4658
27.7599
26.7764
25.3709
30.0723
30.0073
29.8746
29.6686
29.3788
28.9879
28.4658
27.7599
26.7764
25.3709
30.0723
30.0073
29.8746
29.6686
29.3788
28.9879
28.4658
27.7599
26.7765
25.3709
30.0723
30.0073
29.8747
29.6686
29.3788
28.9879
28.4659
27.7599
26.7765
25.3709
30.0724
30.0073
29.8747
29.6686
29.3789
28.9879
28.4659
27.76
26.7765
25.371
30.0724
30.0074
29.8748
29.6687
29.3789
28.988
28.466
27.76
26.7766
25.371
25.7172
25.6557
25.5309
25.3385
25.0715
24.7186
24.2634
23.6836
22.9571
22.0948
25.7172
25.6557
25.5309
25.3385
25.0714
24.7185
24.2634
23.6835
22.9571
22.0947
25.7171
25.6556
25.5308
25.3384
25.0713
24.7185
24.2633
23.6835
22.957
22.0947
25.7171
25.6556
25.5308
25.3384
25.0713
24.7185
24.2633
23.6835
22.957
22.0947
25.7171
25.6556
25.5308
25.3384
25.0713
24.7184
24.2633
23.6834
22.957
22.0946
25.7171
25.6556
25.5308
25.3384
25.0713
24.7184
24.2633
23.6834
22.957
22.0946
25.7171
25.6556
25.5308
25.3384
25.0713
24.7185
24.2633
23.6835
22.957
22.0946
25.7171
25.6556
25.5308
25.3384
25.0713
24.7185
24.2633
23.6835
22.957
22.0947
25.7171
25.6557
25.5308
25.3385
25.0714
24.7185
24.2634
23.6835
22.9571
22.0947
25.7172
25.6557
25.5309
25.3385
25.0715
24.7186
24.2634
23.6836
22.9571
22.0948
21.8417
21.7868
21.6763
21.5085
21.281
20.9909
20.6363
20.2202
19.7608
19.3162
21.8416
21.7868
21.6763
21.5085
21.2809
20.9908
20.6363
20.2202
19.7608
19.3162
21.8416
21.7867
21.6762
21.5084
21.2809
20.9908
20.6362
20.2201
19.7607
19.3161
21.8416
21.7867
21.6762
21.5084
21.2809
20.9908
20.6362
20.2201
19.7607
19.3161
21.8415
21.7867
21.6762
21.5084
21.2808
20.9907
20.6362
20.2201
19.7607
19.316
21.8415
21.7867
21.6762
21.5084
21.2808
20.9907
20.6362
20.2201
19.7607
19.316
21.8416
21.7867
21.6762
21.5084
21.2809
20.9908
20.6362
20.2201
19.7607
19.3161
21.8416
21.7867
21.6762
21.5084
21.2809
20.9908
20.6362
20.2201
19.7607
19.3161
21.8416
21.7868
21.6763
21.5085
21.2809
20.9908
20.6363
20.2202
19.7608
19.3162
21.8417
21.7868
21.6763
21.5085
21.281
20.9909
20.6363
20.2202
19.7608
19.3162
18.4252
18.379
18.2871
18.1506
17.9717
17.7552
17.5107
17.2566
17.028
16.8884
18.4251
18.3789
18.2871
18.1505
17.9716
17.7552
17.5107
17.2566
17.0279
16.8883
18.4251
18.3789
18.287
18.1505
17.9716
17.7551
17.5106
17.2565
17.0279
16.8882
18.4251
18.3789
18.287
18.1504
17.9716
17.7551
17.5106
17.2565
17.0278
16.8882
18.425
18.3789
18.287
18.1504
17.9715
17.7551
17.5106
17.2565
17.0278
16.8882
18.425
18.3789
18.287
18.1504
17.9715
17.7551
17.5106
17.2565
17.0278
16.8882
18.4251
18.3789
18.287
18.1504
17.9716
17.7551
17.5106
17.2565
17.0279
16.8882
18.4251
18.3789
18.287
18.1505
17.9716
17.7551
17.5106
17.2565
17.0279
16.8882
18.4251
18.3789
18.2871
18.1505
17.9716
17.7552
17.5107
17.2566
17.0279
16.8883
18.4252
18.379
18.2871
18.1506
17.9717
17.7552
17.5107
17.2566
17.028
16.8884
15.44
15.4035
15.3319
15.2289
15.1006
14.9579
14.818
14.7082
14.6692
14.7584
15.44
15.4034
15.3318
15.2288
15.1006
14.9579
14.818
14.7081
14.6691
14.7583
15.4399
15.4034
15.3318
15.2288
15.1005
14.9578
14.8179
14.7081
14.6691
14.7583
15.4399
15.4033
15.3318
15.2287
15.1005
14.9578
14.8179
14.708
14.6691
14.7582
15.4399
15.4033
15.3318
15.2287
15.1005
14.9578
14.8179
14.708
14.669
14.7582
15.4399
15.4033
15.3318
15.2287
15.1005
14.9578
14.8179
14.708
14.669
14.7582
15.4399
15.4033
15.3318
15.2287
15.1005
14.9578
14.8179
14.708
14.6691
14.7582
15.4399
15.4034
15.3318
15.2288
15.1006
14.9578
14.8179
14.7081
14.6691
14.7583
15.44
15.4034
15.3318
15.2288
15.1006
14.9579
14.818
14.7081
14.6691
14.7583
15.44
15.4034
15.3319
15.2289
15.1007
14.9579
14.818
14.7082
14.6692
14.7584
12.8537
12.8266
12.7748
12.7038
12.6226
12.5462
12.4973
12.5089
12.6253
12.8995
12.8537
12.8266
12.7748
12.7037
12.6226
12.5462
12.4973
12.5088
12.6253
12.8994
12.8536
12.8265
12.7748
12.7037
12.6225
12.5462
12.4972
12.5088
12.6252
12.8994
12.8536
12.8265
12.7747
12.7037
12.6225
12.5461
12.4972
12.5087
12.6252
12.8994
12.8536
12.8265
12.7747
12.7036
12.6225
12.5461
12.4972
12.5087
12.6252
12.8994
12.8536
12.8265
12.7747
12.7036
12.6225
12.5461
12.4972
12.5087
12.6252
12.8994
12.8536
12.8265
12.7747
12.7037
12.6225
12.5461
12.4972
12.5087
12.6252
12.8994
12.8536
12.8265
12.7748
12.7037
12.6225
12.5462
12.4972
12.5088
12.6252
12.8994
12.8537
12.8266
12.7748
12.7037
12.6226
12.5462
12.4973
12.5088
12.6253
12.8995
12.8537
12.8266
12.7749
12.7038
12.6226
12.5463
12.4973
12.5089
12.6254
12.8995
10.631
10.6124
10.5781
10.5346
10.4928
10.4702
10.4931
10.5999
10.8431
11.2839
10.631
10.6123
10.578
10.5345
10.4928
10.4702
10.4931
10.5999
10.8431
11.2838
10.631
10.6123
10.578
10.5345
10.4927
10.4701
10.4931
10.5999
10.843
11.2838
10.6309
10.6123
10.578
10.5345
10.4927
10.4701
10.493
10.5998
10.843
11.2837
10.6309
10.6123
10.578
10.5344
10.4927
10.4701
10.493
10.5998
10.843
11.2837
10.6309
10.6123
10.578
10.5344
10.4927
10.4701
10.493
10.5998
10.843
11.2837
10.6309
10.6123
10.578
10.5345
10.4927
10.4701
10.493
10.5998
10.843
11.2837
10.631
10.6123
10.578
10.5345
10.4927
10.4702
10.4931
10.5999
10.843
11.2838
10.631
10.6123
10.578
10.5345
10.4928
10.4702
10.4931
10.5999
10.8431
11.2838
10.631
10.6124
10.5781
10.5346
10.4928
10.4702
10.4932
10.6
10.8431
11.2839
8.73584
8.72409
8.70374
8.68153
8.66886
8.68369
8.75374
8.9219
9.2553
9.85526
8.7358
8.72405
8.7037
8.68149
8.66882
8.68365
8.7537
8.92185
9.25525
9.85521
8.73577
8.72402
8.70367
8.68146
8.66879
8.68362
8.75366
8.92182
9.25521
9.85517
8.73575
8.724
8.70365
8.68144
8.66877
8.6836
8.75364
8.9218
9.25518
9.85514
8.73575
8.72399
8.70365
8.68143
8.66876
8.68359
8.75363
8.92179
9.25517
9.85513
8.73575
8.72399
8.70365
8.68144
8.66876
8.68359
8.75364
8.92179
9.25518
9.85513
8.73576
8.724
8.70366
8.68145
8.66877
8.6836
8.75365
8.9218
9.25519
9.85515
8.73577
8.72402
8.70368
8.68147
8.6688
8.68363
8.75367
8.92183
9.25522
9.85518
8.7358
8.72405
8.70371
8.6815
8.66883
8.68366
8.75371
8.92187
9.25526
9.85522
8.73583
8.72409
8.70375
8.68155
8.66888
8.68371
8.75376
8.92192
9.25532
9.85528
7.13261
7.12596
7.11563
7.10782
7.11287
7.14677
7.23404
7.41426
7.76125
8.45206
7.13257
7.12593
7.11559
7.10778
7.11283
7.14673
7.234
7.41422
7.7612
8.45201
7.13255
7.1259
7.11556
7.10775
7.11281
7.14671
7.23397
7.41419
7.76117
8.45198
7.13253
7.12588
7.11555
7.10774
7.11279
7.14669
7.23395
7.41417
7.76115
8.45195
7.13252
7.12587
7.11554
7.10773
7.11278
7.14668
7.23394
7.41416
7.76114
8.45194
7.13252
7.12588
7.11554
7.10773
7.11278
7.14668
7.23394
7.41416
7.76114
8.45195
7.13253
7.12589
7.11555
7.10774
7.11279
7.1467
7.23396
7.41418
7.76116
8.45196
7.13255
7.1259
7.11557
7.10776
7.11282
7.14672
7.23398
7.4142
7.76118
8.45199
7.13257
7.12593
7.1156
7.10779
7.11285
7.14675
7.23401
7.41424
7.76122
8.45203
7.1326
7.12597
7.11564
7.10783
7.11289
7.14679
7.23406
7.41428
7.76127
8.45209
25.3858
23.5823
23.4374
24.693
27.3236
31.4519
37.3471
45.4879
56.7365
72.8078
25.3857
23.5822
23.4373
24.6929
27.3235
31.4518
37.347
45.4877
56.7363
72.8076
25.3856
23.5821
23.4372
24.6928
27.3234
31.4517
37.3469
45.4876
56.7362
72.8075
25.3856
23.5821
23.4372
24.6928
27.3234
31.4516
37.3468
45.4875
56.7361
72.8074
25.3856
23.582
23.4371
24.6927
27.3233
31.4516
37.3468
45.4875
56.7361
72.8073
25.3856
23.582
23.4371
24.6927
27.3233
31.4516
37.3468
45.4875
56.7361
72.8073
25.3856
23.582
23.4371
24.6927
27.3233
31.4516
37.3468
45.4875
56.7361
72.8073
25.3856
23.5821
23.4372
24.6928
27.3234
31.4516
37.3469
45.4876
56.7362
72.8074
25.3857
23.5821
23.4372
24.6928
27.3234
31.4517
37.3469
45.4877
56.7363
72.8075
25.3857
23.5822
23.4373
24.6929
27.3235
31.4518
37.347
45.4877
56.7364
72.8076
23.4942
22.5249
22.6879
24.0233
26.5908
30.5148
36.0021
43.3563
52.971
65.1787
23.4941
22.5248
22.6878
24.0232
26.5907
30.5147
36.002
43.3561
52.9709
65.1785
23.494
22.5248
22.6878
24.0232
26.5906
30.5146
36.0019
43.356
52.9707
65.1784
23.494
22.5247
22.6877
24.0231
26.5906
30.5146
36.0018
43.3559
52.9707
65.1783
23.494
22.5247
22.6877
24.0231
26.5905
30.5145
36.0018
43.3559
52.9706
65.1783
23.494
22.5247
22.6877
24.0231
26.5905
30.5145
36.0018
43.3559
52.9706
65.1783
23.494
22.5247
22.6877
24.0231
26.5905
30.5145
36.0018
43.3559
52.9706
65.1783
23.494
22.5247
22.6877
24.0231
26.5906
30.5146
36.0018
43.356
52.9707
65.1784
23.4941
22.5248
22.6878
24.0232
26.5907
30.5147
36.0019
43.356
52.9708
65.1785
23.4941
22.5249
22.6879
24.0233
26.5908
30.5148
36.002
43.3562
52.9709
65.1786
21.2499
20.9338
21.4129
22.8216
25.26
28.8368
33.6814
39.9284
47.6541
56.6925
21.2498
20.9337
21.4128
22.8214
25.2598
28.8367
33.6812
39.9283
47.6539
56.6923
21.2497
20.9336
21.4127
22.8214
25.2598
28.8366
33.6811
39.9282
47.6538
56.6922
21.2497
20.9336
21.4126
22.8213
25.2597
28.8365
33.6811
39.9281
47.6537
56.6921
21.2496
20.9336
21.4126
22.8213
25.2597
28.8365
33.681
39.9281
47.6537
56.6921
21.2496
20.9336
21.4126
22.8213
25.2597
28.8365
33.681
39.9281
47.6537
56.6921
21.2497
20.9336
21.4126
22.8213
25.2597
28.8365
33.681
39.9281
47.6537
56.6921
21.2497
20.9336
21.4127
22.8213
25.2597
28.8366
33.6811
39.9281
47.6538
56.6922
21.2498
20.9337
21.4127
22.8214
25.2598
28.8367
33.6812
39.9282
47.6539
56.6923
21.2498
20.9338
21.4128
22.8215
25.2599
28.8368
33.6813
39.9284
47.654
56.6924
19.0267
19.1388
19.8458
21.2793
23.5366
26.6986
30.8314
35.9646
42.0385
48.8042
19.0267
19.1387
19.8457
21.2792
23.5365
26.6985
30.8312
35.9645
42.0383
48.804
19.0266
19.1386
19.8456
21.2791
23.5364
26.6984
30.8311
35.9644
42.0382
48.8039
19.0266
19.1386
19.8456
21.2791
23.5363
26.6983
30.8311
35.9643
42.0382
48.8038
19.0265
19.1386
19.8455
21.2791
23.5363
26.6983
30.831
35.9643
42.0381
48.8038
19.0265
19.1386
19.8455
21.2791
23.5363
26.6983
30.831
35.9643
42.0381
48.8038
19.0265
19.1386
19.8455
21.2791
23.5363
26.6983
30.8311
35.9643
42.0381
48.8038
19.0266
19.1386
19.8456
21.2791
23.5364
26.6984
30.8311
35.9644
42.0382
48.8039
19.0266
19.1387
19.8457
21.2792
23.5365
26.6985
30.8312
35.9645
42.0383
48.804
19.0267
19.1388
19.8457
21.2793
23.5366
26.6986
30.8313
35.9646
42.0385
48.8041
16.9418
17.3282
18.1763
19.5875
21.637
24.3769
27.83
31.9738
36.7101
41.8259
16.9417
17.3281
18.1762
19.5874
21.6369
24.3767
27.8298
31.9737
36.71
41.8258
16.9416
17.328
18.1762
19.5873
21.6369
24.3767
27.8298
31.9736
36.7098
41.8257
16.9416
17.328
18.1761
19.5873
21.6368
24.3766
27.8297
31.9735
36.7098
41.8256
16.9416
17.328
18.1761
19.5872
21.6368
24.3766
27.8297
31.9735
36.7097
41.8255
16.9416
17.328
18.1761
19.5872
21.6368
24.3766
27.8297
31.9735
36.7097
41.8255
16.9416
17.328
18.1761
19.5873
21.6368
24.3766
27.8297
31.9735
36.7098
41.8256
16.9416
17.328
18.1762
19.5873
21.6368
24.3767
27.8297
31.9736
36.7098
41.8257
16.9417
17.3281
18.1762
19.5874
21.6369
24.3767
27.8298
31.9737
36.7099
41.8258
16.9417
17.3282
18.1763
19.5875
21.637
24.3768
27.83
31.9738
36.7101
41.8259
15.0483
15.6195
16.5514
17.913
19.7552
22.1051
24.9588
28.2705
31.9411
35.8102
15.0483
15.6194
16.5513
17.9129
19.7551
22.105
24.9586
28.2704
31.9409
35.81
15.0482
15.6193
16.5513
17.9129
19.755
22.1049
24.9585
28.2703
31.9408
35.8099
15.0482
15.6193
16.5512
17.9128
19.755
22.1048
24.9585
28.2703
31.9408
35.8099
15.0482
15.6193
16.5512
17.9128
19.7549
22.1048
24.9585
28.2702
31.9407
35.8098
15.0482
15.6193
16.5512
17.9128
19.7549
22.1048
24.9585
28.2702
31.9407
35.8098
15.0482
15.6193
16.5512
17.9128
19.755
22.1048
24.9585
28.2703
31.9408
35.8099
15.0482
15.6193
16.5513
17.9129
19.755
22.1049
24.9585
28.2703
31.9408
35.8099
15.0483
15.6194
16.5513
17.9129
19.7551
22.105
24.9586
28.2704
31.9409
35.81
15.0483
15.6195
16.5514
17.913
19.7552
22.1051
24.9588
28.2705
31.9411
35.8102
13.3799
14.0953
15.0858
16.3939
18.0514
20.0674
22.4205
25.0529
27.87
30.7511
13.3798
14.0953
15.0857
16.3939
18.0513
20.0673
22.4204
25.0528
27.8698
30.751
13.3797
14.0952
15.0856
16.3938
18.0513
20.0672
22.4203
25.0527
27.8697
30.7509
13.3797
14.0952
15.0856
16.3937
18.0512
20.0672
22.4202
25.0526
27.8697
30.7508
13.3797
14.0951
15.0855
16.3937
18.0512
20.0672
22.4202
25.0526
27.8697
30.7508
13.3797
14.0951
15.0855
16.3937
18.0512
20.0672
22.4202
25.0526
27.8697
30.7508
13.3797
14.0952
15.0856
16.3937
18.0512
20.0672
22.4203
25.0526
27.8697
30.7508
13.3797
14.0952
15.0856
16.3938
18.0513
20.0673
22.4203
25.0527
27.8698
30.7509
13.3798
14.0953
15.0857
16.3939
18.0514
20.0673
22.4204
25.0528
27.8699
30.751
13.3799
14.0953
15.0858
16.3939
18.0515
20.0674
22.4205
25.0529
27.87
30.7511
11.9618
12.8223
13.8723
15.1419
16.6536
18.4061
20.3651
22.4603
24.5895
26.6418
11.9617
12.8223
13.8722
15.1418
16.6535
18.406
20.365
22.4602
24.5893
26.6417
11.9616
12.8222
13.8721
15.1417
16.6535
18.4059
20.3649
22.4601
24.5893
26.6416
11.9616
12.8222
13.8721
15.1417
16.6534
18.4058
20.3649
22.4601
24.5892
26.6415
11.9616
12.8222
13.8721
15.1417
16.6534
18.4058
20.3648
22.46
24.5892
26.6415
11.9616
12.8222
13.8721
15.1417
16.6534
18.4058
20.3648
22.46
24.5892
26.6415
11.9616
12.8222
13.8721
15.1417
16.6534
18.4059
20.3649
22.4601
24.5892
26.6415
11.9616
12.8222
13.8722
15.1417
16.6535
18.4059
20.3649
22.4601
24.5893
26.6416
11.9617
12.8223
13.8722
15.1418
16.6535
18.406
20.365
22.4602
24.5894
26.6417
11.9618
12.8223
13.8723
15.1419
16.6536
18.4061
20.3651
22.4603
24.5895
26.6418
10.8248
11.8673
12.9918
14.2466
15.6608
17.2302
18.9104
20.6126
22.202
23.5159
10.8248
11.8672
12.9917
14.2465
15.6607
17.2301
18.9103
20.6125
22.2019
23.5158
10.8247
11.8672
12.9917
14.2464
15.6607
17.23
18.9103
20.6124
22.2019
23.5157
10.8247
11.8671
12.9917
14.2464
15.6606
17.23
18.9102
20.6124
22.2018
23.5156
10.8247
11.8671
12.9916
14.2464
15.6606
17.23
18.9102
20.6124
22.2018
23.5156
10.8247
11.8671
12.9916
14.2464
15.6606
17.23
18.9102
20.6124
22.2018
23.5156
10.8247
11.8672
12.9917
14.2464
15.6606
17.23
18.9102
20.6124
22.2018
23.5156
10.8247
11.8672
12.9917
14.2465
15.6607
17.23
18.9103
20.6125
22.2019
23.5157
10.8248
11.8672
12.9918
14.2465
15.6607
17.2301
18.9104
20.6126
22.202
23.5158
10.8248
11.8673
12.9918
14.2466
15.6608
17.2302
18.9105
20.6127
22.2021
23.5159
10.0577
11.3214
12.52
13.7775
15.1446
16.6196
18.1518
19.6327
20.8754
21.5575
10.0576
11.3214
12.5199
13.7775
15.1445
16.6196
18.1517
19.6327
20.8753
21.5574
10.0576
11.3213
12.5198
13.7774
15.1445
16.6195
18.1516
19.6326
20.8752
21.5574
10.0576
11.3213
12.5198
13.7774
15.1444
16.6195
18.1516
19.6325
20.8752
21.5573
10.0576
11.3213
12.5198
13.7774
15.1444
16.6194
18.1516
19.6325
20.8752
21.5573
10.0576
11.3213
12.5198
13.7774
15.1444
16.6194
18.1516
19.6325
20.8752
21.5573
10.0576
11.3213
12.5198
13.7774
15.1444
16.6195
18.1516
19.6326
20.8752
21.5573
10.0576
11.3213
12.5199
13.7775
15.1445
16.6195
18.1517
19.6326
20.8752
21.5574
10.0577
11.3214
12.5199
13.7775
15.1446
16.6196
18.1517
19.6327
20.8753
21.5575
10.0577
11.3215
12.52
13.7776
15.1447
16.6197
18.1518
19.6328
20.8755
21.5576
97.6518
109.295
116.304
121.12
124.624
127.213
129.105
130.433
131.279
131.69
97.6516
109.295
116.303
121.12
124.623
127.213
129.105
130.433
131.278
131.69
97.6515
109.295
116.303
121.12
124.623
127.212
129.105
130.433
131.278
131.689
97.6514
109.295
116.303
121.12
124.623
127.212
129.105
130.433
131.278
131.689
97.6513
109.295
116.303
121.12
124.623
127.212
129.105
130.433
131.278
131.689
97.6513
109.295
116.303
121.12
124.623
127.212
129.105
130.433
131.278
131.689
97.6514
109.295
116.303
121.12
124.623
127.212
129.105
130.433
131.278
131.689
97.6515
109.295
116.303
121.12
124.623
127.212
129.105
130.433
131.278
131.69
97.6516
109.295
116.303
121.12
124.623
127.213
129.105
130.433
131.278
131.69
97.6517
109.295
116.303
121.12
124.624
127.213
129.105
130.433
131.279
131.69
79.3641
89.605
96.7517
101.86
105.594
108.342
110.341
111.737
112.623
113.053
79.3639
89.6049
96.7515
101.86
105.593
108.342
110.341
111.737
112.623
113.053
79.3638
89.6047
96.7513
101.86
105.593
108.342
110.34
111.737
112.623
113.053
79.3637
89.6046
96.7512
101.86
105.593
108.342
110.34
111.736
112.622
113.053
79.3636
89.6046
96.7512
101.86
105.593
108.342
110.34
111.736
112.622
113.053
79.3636
89.6046
96.7512
101.86
105.593
108.342
110.34
111.736
112.622
113.053
79.3636
89.6046
96.7512
101.86
105.593
108.342
110.34
111.737
112.622
113.053
79.3637
89.6047
96.7513
101.86
105.593
108.342
110.34
111.737
112.623
113.053
79.3638
89.6048
96.7514
101.86
105.593
108.342
110.341
111.737
112.623
113.053
79.364
89.605
96.7516
101.86
105.594
108.342
110.341
111.737
112.623
113.053
66.2189
74.27
80.5505
85.3312
88.9417
91.6442
93.6264
95.017
95.9014
96.3314
66.2187
74.2698
80.5503
85.331
88.9415
91.644
93.6262
95.0168
95.9013
96.3313
66.2186
74.2697
80.5501
85.3309
88.9413
91.6439
93.626
95.0167
95.9011
96.3312
66.2185
74.2696
80.55
85.3308
88.9412
91.6438
93.6259
95.0166
95.901
96.3311
66.2184
74.2696
80.55
85.3307
88.9412
91.6437
93.6259
95.0166
95.901
96.3311
66.2184
74.2696
80.55
85.3307
88.9412
91.6437
93.6259
95.0166
95.901
96.3311
66.2185
74.2696
80.55
85.3308
88.9413
91.6438
93.626
95.0167
95.9011
96.3311
66.2186
74.2697
80.5501
85.3309
88.9414
91.6439
93.6261
95.0168
95.9012
96.3313
66.2187
74.2698
80.5503
85.331
88.9415
91.644
93.6262
95.0169
95.9014
96.3314
66.2188
74.27
80.5505
85.3312
88.9417
91.6442
93.6264
95.0171
95.9016
96.3316
55.7036
61.921
67.1168
71.2852
74.5484
77.0491
78.9112
80.2302
81.0739
81.4854
55.7034
61.9209
67.1166
71.285
74.5482
77.0489
78.911
80.23
81.0738
81.4853
55.7033
61.9207
67.1165
71.2849
74.5481
77.0488
78.9109
80.2299
81.0736
81.4852
55.7032
61.9207
67.1164
71.2848
74.548
77.0487
78.9108
80.2298
81.0736
81.4851
55.7032
61.9206
67.1164
71.2847
74.5479
77.0486
78.9107
80.2298
81.0735
81.4851
55.7032
61.9206
67.1164
71.2848
74.5479
77.0486
78.9107
80.2298
81.0735
81.4851
55.7032
61.9207
67.1164
71.2848
74.548
77.0487
78.9108
80.2298
81.0736
81.4852
55.7033
61.9207
67.1165
71.2849
74.5481
77.0488
78.9109
80.2299
81.0737
81.4853
55.7034
61.9209
67.1166
71.285
74.5482
77.049
78.9111
80.2301
81.0739
81.4855
55.7036
61.921
67.1168
71.2852
74.5484
77.0492
78.9113
80.2303
81.0741
81.4857
46.9758
51.7558
55.9226
59.4002
62.2108
64.4171
66.0888
67.2872
68.0599
68.4384
46.9756
51.7556
55.9225
59.4
62.2106
64.4169
66.0886
67.287
68.0597
68.4383
46.9755
51.7555
55.9224
59.3999
62.2105
64.4168
66.0885
67.2869
68.0596
68.4382
46.9754
51.7554
55.9223
59.3998
62.2104
64.4167
66.0884
67.2868
68.0595
68.4381
46.9754
51.7554
55.9222
59.3998
62.2104
64.4167
66.0883
67.2868
68.0595
68.4381
46.9754
51.7554
55.9222
59.3998
62.2104
64.4167
66.0884
67.2868
68.0595
68.4381
46.9754
51.7554
55.9223
59.3998
62.2105
64.4168
66.0884
67.2869
68.0596
68.4382
46.9755
51.7555
55.9224
59.3999
62.2105
64.4169
66.0885
67.287
68.0597
68.4383
46.9756
51.7556
55.9225
59.4001
62.2107
64.417
66.0887
67.2871
68.0599
68.4384
46.9758
51.7558
55.9227
59.4002
62.2109
64.4172
66.0889
67.2873
68.0601
68.4386
39.6692
43.3057
46.5657
49.3706
51.7013
53.5732
55.0169
56.0656
56.7477
57.0836
39.669
43.3055
46.5655
49.3704
51.7011
53.573
55.0167
56.0654
56.7475
57.0834
39.6689
43.3054
46.5654
49.3703
51.701
53.5729
55.0166
56.0653
56.7474
57.0834
39.6688
43.3053
46.5653
49.3703
51.7009
53.5728
55.0165
56.0652
56.7473
57.0833
39.6688
43.3053
46.5653
49.3702
51.7009
53.5728
55.0165
56.0652
56.7473
57.0833
39.6688
43.3053
46.5653
49.3702
51.7009
53.5728
55.0165
56.0652
56.7473
57.0833
39.6688
43.3054
46.5653
49.3703
51.7009
53.5728
55.0166
56.0653
56.7474
57.0833
39.6689
43.3054
46.5654
49.3704
51.701
53.5729
55.0167
56.0654
56.7475
57.0834
39.669
43.3056
46.5655
49.3705
51.7012
53.5731
55.0168
56.0655
56.7477
57.0836
39.6692
43.3057
46.5657
49.3707
51.7013
53.5732
55.017
56.0657
56.7478
57.0838
33.5786
36.2695
38.7411
40.9288
42.7958
44.3297
45.5346
46.4218
47.0043
47.2928
33.5784
36.2693
38.741
40.9287
42.7956
44.3296
45.5344
46.4216
47.0042
47.2927
33.5783
36.2692
38.7409
40.9286
42.7955
44.3295
45.5343
46.4215
47.0041
47.2926
33.5783
36.2691
38.7408
40.9285
42.7954
44.3294
45.5343
46.4214
47.004
47.2925
33.5783
36.2691
38.7408
40.9285
42.7954
44.3294
45.5342
46.4214
47.004
47.2925
33.5783
36.2691
38.7408
40.9285
42.7954
44.3294
45.5342
46.4214
47.004
47.2925
33.5783
36.2692
38.7408
40.9285
42.7955
44.3295
45.5343
46.4215
47.0041
47.2926
33.5784
36.2692
38.7409
40.9286
42.7955
44.3295
45.5344
46.4216
47.0042
47.2927
33.5785
36.2693
38.741
40.9287
42.7957
44.3297
45.5345
46.4217
47.0043
47.2928
33.5786
36.2695
38.7412
40.9289
42.7958
44.3298
45.5347
46.4219
47.0045
47.293
28.5589
30.4222
32.2034
33.8413
35.2842
36.5003
37.4744
38.2022
38.6849
38.9253