/*--------------------------------*- C++ -*----------------------------------*\
  =========                 |
  \\      /  F ield         | OpenFOAM: The Open Source CFD Toolbox
   \\    /   O peration     | Website:  https://openfoam.org
    \\  /    A nd           | Version:  6
     \\/     M anipulation  |
\*---------------------------------------------------------------------------*/
FoamFile
{
    version     2.0;
    format      ascii;
    class       volScalarField;
    location    "0.485";
    object      T;
}
// * * * * * * * * * * * * * * * * * * * * * * * * * * * * * * * * * * * * * //

dimensions      [0 0 0 1 0 0 0];

internalField   nonuniform List<scalar> 
7000
(
105.49
105.488
105.484
105.479
105.472
105.464
105.457
105.45
105.445
105.442
105.49
105.488
105.484
105.479
105.472
105.464
105.457
105.45
105.445
105.442
105.49
105.488
105.484
105.479
105.472
105.464
105.457
105.45
105.445
105.442
105.49
105.488
105.484
105.479
105.472
105.464
105.457
105.45
105.445
105.442
105.49
105.488
105.484
105.479
105.472
105.464
105.457
105.45
105.445
105.442
105.49
105.488
105.484
105.479
105.472
105.464
105.457
105.45
105.445
105.442
105.49
105.488
105.484
105.479
105.472
105.464
105.457
105.45
105.445
105.442
105.49
105.488
105.484
105.479
105.472
105.464
105.457
105.45
105.445
105.442
105.49
105.488
105.484
105.479
105.472
105.464
105.457
105.45
105.445
105.442
105.49
105.488
105.484
105.479
105.472
105.464
105.457
105.45
105.445
105.442
96.5165
96.5102
96.498
96.4806
96.4592
96.4355
96.4117
96.3904
96.3743
96.3655
96.5164
96.5101
96.4979
96.4805
96.4592
96.4355
96.4117
96.3904
96.3742
96.3655
96.5164
96.5101
96.4979
96.4805
96.4591
96.4355
96.4117
96.3904
96.3742
96.3655
96.5164
96.5101
96.4979
96.4805
96.4591
96.4354
96.4117
96.3904
96.3742
96.3655
96.5164
96.5101
96.4979
96.4805
96.4591
96.4354
96.4116
96.3903
96.3742
96.3655
96.5164
96.5101
96.4979
96.4805
96.4591
96.4354
96.4116
96.3903
96.3742
96.3655
96.5164
96.5101
96.4979
96.4805
96.4591
96.4354
96.4117
96.3904
96.3742
96.3655
96.5164
96.5101
96.4979
96.4805
96.4591
96.4354
96.4117
96.3904
96.3742
96.3655
96.5164
96.5101
96.4979
96.4805
96.4591
96.4355
96.4117
96.3904
96.3742
96.3655
96.5164
96.5101
96.4979
96.4805
96.4592
96.4355
96.4117
96.3904
96.3742
96.3655
87.6778
87.6668
87.6454
87.6148
87.5769
87.5346
87.4917
87.4529
87.4232
87.4071
87.6778
87.6668
87.6454
87.6148
87.5769
87.5345
87.4916
87.4529
87.4232
87.4071
87.6778
87.6668
87.6454
87.6147
87.5768
87.5345
87.4916
87.4528
87.4232
87.4071
87.6777
87.6668
87.6454
87.6147
87.5768
87.5345
87.4916
87.4528
87.4232
87.407
87.6777
87.6667
87.6453
87.6147
87.5768
87.5345
87.4916
87.4528
87.4232
87.407
87.6777
87.6667
87.6453
87.6147
87.5768
87.5345
87.4916
87.4528
87.4232
87.407
87.6777
87.6667
87.6453
87.6147
87.5768
87.5345
87.4916
87.4528
87.4232
87.407
87.6777
87.6668
87.6454
87.6147
87.5768
87.5345
87.4916
87.4528
87.4232
87.4071
87.6778
87.6668
87.6454
87.6147
87.5768
87.5345
87.4916
87.4528
87.4232
87.4071
87.6778
87.6668
87.6454
87.6148
87.5769
87.5345
87.4916
87.4529
87.4232
87.4071
79.0605
79.0441
79.012
78.9657
78.9078
78.8424
78.7751
78.7134
78.6655
78.6391
79.0605
79.044
79.0119
78.9656
78.9077
78.8423
78.7751
78.7133
78.6654
78.6391
79.0604
79.044
79.0119
78.9656
78.9077
78.8423
78.775
78.7133
78.6654
78.6391
79.0604
79.044
79.0118
78.9655
78.9077
78.8423
78.775
78.7133
78.6654
78.639
79.0604
79.044
79.0118
78.9655
78.9077
78.8422
78.775
78.7133
78.6654
78.639
79.0604
79.044
79.0118
78.9655
78.9077
78.8422
78.775
78.7133
78.6654
78.639
79.0604
79.044
79.0118
78.9655
78.9077
78.8422
78.775
78.7133
78.6654
78.639
79.0604
79.044
79.0119
78.9656
78.9077
78.8423
78.775
78.7133
78.6654
78.6391
79.0604
79.044
79.0119
78.9656
78.9077
78.8423
78.775
78.7133
78.6654
78.6391
79.0604
79.044
79.0119
78.9656
78.9077
78.8423
78.7751
78.7134
78.6655
78.6391
70.7447
70.7219
70.677
70.6118
70.5291
70.4341
70.3343
70.2407
70.1664
70.1247
70.7446
70.7218
70.677
70.6117
70.5291
70.434
70.3343
70.2406
70.1663
70.1247
70.7446
70.7218
70.6769
70.6117
70.529
70.434
70.3343
70.2406
70.1663
70.1247
70.7445
70.7217
70.6769
70.6116
70.529
70.434
70.3342
70.2406
70.1663
70.1246
70.7445
70.7217
70.6769
70.6116
70.529
70.4339
70.3342
70.2406
70.1663
70.1246
70.7445
70.7217
70.6769
70.6116
70.529
70.4339
70.3342
70.2406
70.1663
70.1246
70.7445
70.7217
70.6769
70.6116
70.529
70.4339
70.3342
70.2406
70.1663
70.1246
70.7445
70.7217
70.6769
70.6117
70.529
70.434
70.3342
70.2406
70.1663
70.1247
70.7446
70.7218
70.6769
70.6117
70.529
70.434
70.3343
70.2406
70.1663
70.1247
70.7446
70.7218
70.677
70.6117
70.5291
70.434
70.3343
70.2407
70.1664
70.1247
62.8026
62.7725
62.7127
62.6246
62.5112
62.3778
62.2339
62.0944
61.9797
61.9135
62.8026
62.7724
62.7126
62.6246
62.5111
62.3778
62.2339
62.0943
61.9797
61.9135
62.8025
62.7723
62.7126
62.6245
62.5111
62.3777
62.2338
62.0943
61.9796
61.9135
62.8025
62.7723
62.7125
62.6245
62.5111
62.3777
62.2338
62.0942
61.9796
61.9134
62.8025
62.7723
62.7125
62.6245
62.511
62.3777
62.2338
62.0942
61.9796
61.9134
62.8025
62.7723
62.7125
62.6245
62.511
62.3777
62.2338
62.0942
61.9796
61.9134
62.8025
62.7723
62.7125
62.6245
62.5111
62.3777
62.2338
62.0942
61.9796
61.9134
62.8025
62.7723
62.7125
62.6245
62.5111
62.3777
62.2338
62.0943
61.9796
61.9135
62.8025
62.7724
62.7126
62.6245
62.5111
62.3778
62.2339
62.0943
61.9797
61.9135
62.8026
62.7724
62.7126
62.6246
62.5112
62.3778
62.2339
62.0944
61.9797
61.9136
55.2973
55.2589
55.1821
55.0674
54.9167
54.7344
54.5305
54.3236
54.1447
54.0359
55.2973
55.2588
55.182
55.0674
54.9166
54.7344
54.5305
54.3236
54.1446
54.0358
55.2972
55.2588
55.182
55.0673
54.9166
54.7343
54.5304
54.3235
54.1446
54.0358
55.2972
55.2587
55.1819
55.0673
54.9165
54.7343
54.5304
54.3235
54.1445
54.0358
55.2972
55.2587
55.1819
55.0673
54.9165
54.7343
54.5304
54.3235
54.1445
54.0357
55.2972
55.2587
55.1819
55.0673
54.9165
54.7343
54.5304
54.3235
54.1445
54.0357
55.2972
55.2587
55.1819
55.0673
54.9165
54.7343
54.5304
54.3235
54.1445
54.0358
55.2972
55.2587
55.1819
55.0673
54.9166
54.7343
54.5304
54.3235
54.1446
54.0358
55.2972
55.2588
55.182
55.0673
54.9166
54.7343
54.5305
54.3236
54.1446
54.0358
55.2973
55.2588
55.1821
55.0674
54.9167
54.7344
54.5305
54.3236
54.1447
54.0359
48.281
48.2338
48.1387
47.9946
47.8008
47.5586
47.2751
46.9693
46.6834
46.4932
48.2809
48.2337
48.1386
47.9945
47.8007
47.5585
47.275
46.9693
46.6834
46.4932
48.2808
48.2336
48.1386
47.9945
47.8006
47.5585
47.2749
46.9692
46.6833
46.4931
48.2808
48.2336
48.1385
47.9944
47.8006
47.5584
47.2749
46.9692
46.6833
46.4931
48.2808
48.2336
48.1385
47.9944
47.8006
47.5584
47.2749
46.9692
46.6833
46.4931
48.2808
48.2336
48.1385
47.9944
47.8006
47.5584
47.2749
46.9692
46.6833
46.4931
48.2808
48.2336
48.1385
47.9944
47.8006
47.5584
47.2749
46.9692
46.6833
46.4931
48.2808
48.2336
48.1385
47.9945
47.8006
47.5585
47.2749
46.9692
46.6833
46.4932
48.2809
48.2337
48.1386
47.9945
47.8007
47.5585
47.275
46.9693
46.6834
46.4932
48.2809
48.2337
48.1387
47.9946
47.8008
47.5586
47.2751
46.9693
46.6834
46.4933
41.7939
41.7383
41.6253
41.4514
41.2119
40.9018
40.5188
40.072
39.6034
39.2377
41.7939
41.7382
41.6252
41.4514
41.2119
40.9017
40.5188
40.0719
39.6033
39.2376
41.7938
41.7382
41.6252
41.4513
41.2118
40.9017
40.5187
40.0719
39.6033
39.2376
41.7938
41.7381
41.6251
41.4513
41.2118
40.9016
40.5187
40.0719
39.6032
39.2375
41.7937
41.7381
41.6251
41.4513
41.2118
40.9016
40.5186
40.0718
39.6032
39.2375
41.7937
41.7381
41.6251
41.4513
41.2118
40.9016
40.5186
40.0718
39.6032
39.2375
41.7938
41.7381
41.6251
41.4513
41.2118
40.9016
40.5187
40.0719
39.6032
39.2376
41.7938
41.7381
41.6252
41.4513
41.2118
40.9017
40.5187
40.0719
39.6033
39.2376
41.7938
41.7382
41.6252
41.4514
41.2119
40.9017
40.5188
40.072
39.6033
39.2376
41.7939
41.7383
41.6253
41.4514
41.2119
40.9018
40.5188
40.072
39.6034
39.2377
35.8642
35.8015
35.6732
35.4734
35.1922
34.8156
34.324
33.6947
32.92
32.1174
35.8641
35.8014
35.6732
35.4733
35.1921
34.8155
34.3239
33.6946
32.9199
32.1174
35.8641
35.8013
35.6731
35.4733
35.1921
34.8154
34.3239
33.6946
32.9199
32.1173
35.864
35.8013
35.6731
35.4732
35.1921
34.8154
34.3238
33.6945
32.9199
32.1173
35.864
35.8013
35.673
35.4732
35.192
34.8154
34.3238
33.6945
32.9198
32.1173
35.864
35.8013
35.673
35.4732
35.192
34.8154
34.3238
33.6945
32.9198
32.1173
35.864
35.8013
35.6731
35.4732
35.1921
34.8154
34.3238
33.6946
32.9199
32.1173
35.864
35.8013
35.6731
35.4732
35.1921
34.8154
34.3239
33.6946
32.9199
32.1173
35.8641
35.8014
35.6731
35.4733
35.1921
34.8155
34.3239
33.6946
32.92
32.1174
35.8641
35.8015
35.6732
35.4734
35.1922
34.8156
34.324
33.6947
32.92
32.1175
30.5065
30.4392
30.3011
30.0841
29.7747
29.3507
28.7742
27.9721
26.7776
24.7122
30.5064
30.4392
30.301
30.084
29.7746
29.3507
28.7741
27.9721
26.7775
24.7121
30.5064
30.4391
30.3009
30.0839
29.7746
29.3506
28.774
27.972
26.7774
24.712
30.5063
30.4391
30.3009
30.0839
29.7745
29.3506
28.774
27.972
26.7774
24.712
30.5063
30.439
30.3009
30.0839
29.7745
29.3506
28.774
27.9719
26.7774
24.712
30.5063
30.439
30.3009
30.0839
29.7745
29.3506
28.774
27.9719
26.7774
24.712
30.5063
30.4391
30.3009
30.0839
29.7745
29.3506
28.774
27.972
26.7774
24.712
30.5064
30.4391
30.3009
30.0839
29.7746
29.3506
28.774
27.972
26.7774
24.712
30.5064
30.4391
30.301
30.084
29.7746
29.3507
28.7741
27.9721
26.7775
24.7121
30.5065
30.4392
30.3011
30.0841
29.7747
29.3507
28.7742
27.9721
26.7776
24.7122
25.7223
25.6538
25.513
25.2918
24.9761
24.5434
23.9565
23.1529
22.0245
20.4041
25.7222
25.6537
25.513
25.2917
24.9761
24.5433
23.9565
23.1528
22.0244
20.404
25.7222
25.6537
25.5129
25.2917
24.976
24.5433
23.9564
23.1528
22.0243
20.4039
25.7221
25.6536
25.5129
25.2917
24.976
24.5432
23.9564
23.1527
22.0243
20.4039
25.7221
25.6536
25.5129
25.2916
24.976
24.5432
23.9564
23.1527
22.0243
20.4039
25.7221
25.6536
25.5129
25.2916
24.976
24.5432
23.9564
23.1527
22.0243
20.4039
25.7221
25.6536
25.5129
25.2917
24.976
24.5432
23.9564
23.1528
22.0243
20.4039
25.7221
25.6537
25.5129
25.2917
24.976
24.5433
23.9564
23.1528
22.0243
20.4039
25.7222
25.6537
25.513
25.2918
24.9761
24.5433
23.9565
23.1528
22.0244
20.404
25.7222
25.6538
25.513
25.2918
24.9762
24.5434
23.9566
23.1529
22.0245
20.4041
21.5
21.4338
21.2983
21.0865
20.7874
20.384
19.8526
19.1613
18.276
17.1939
21.4999
21.4338
21.2982
21.0865
20.7873
20.384
19.8525
19.1612
18.276
17.1939
21.4999
21.4337
21.2982
21.0864
20.7872
20.3839
19.8525
19.1611
18.2759
17.1938
21.4998
21.4337
21.2981
21.0864
20.7872
20.3839
19.8525
19.1611
18.2759
17.1938
21.4998
21.4337
21.2981
21.0864
20.7872
20.3839
19.8524
19.1611
18.2759
17.1938
21.4998
21.4337
21.2981
21.0864
20.7872
20.3839
19.8524
19.1611
18.2759
17.1938
21.4998
21.4337
21.2981
21.0864
20.7872
20.3839
19.8525
19.1611
18.2759
17.1938
21.4999
21.4337
21.2982
21.0864
20.7873
20.3839
19.8525
19.1612
18.2759
17.1938
21.4999
21.4337
21.2982
21.0865
20.7873
20.384
19.8526
19.1612
18.276
17.1939
21.5
21.4338
21.2983
21.0866
20.7874
20.384
19.8526
19.1613
18.2761
17.194
17.8164
17.7557
17.632
17.441
17.1758
16.8278
16.3877
15.8498
15.2224
14.5539
17.8163
17.7556
17.632
17.4409
17.1757
16.8277
16.3877
15.8497
15.2223
14.5539
17.8163
17.7555
17.6319
17.4409
17.1756
16.8277
16.3876
15.8496
15.2222
14.5538
17.8163
17.7555
17.6319
17.4408
17.1756
16.8276
16.3876
15.8496
15.2222
14.5538
17.8162
17.7555
17.6319
17.4408
17.1756
16.8276
16.3876
15.8496
15.2222
14.5538
17.8162
17.7555
17.6319
17.4408
17.1756
16.8276
16.3876
15.8496
15.2222
14.5538
17.8163
17.7555
17.6319
17.4408
17.1756
16.8276
16.3876
15.8496
15.2222
14.5538
17.8163
17.7555
17.6319
17.4409
17.1757
16.8277
16.3876
15.8497
15.2222
14.5538
17.8163
17.7556
17.632
17.4409
17.1757
16.8277
16.3877
15.8497
15.2223
14.5539
17.8164
17.7557
17.632
17.441
17.1758
16.8278
16.3878
15.8498
15.2224
14.554
14.6387
14.5856
14.4784
14.3152
14.0938
13.8133
13.4755
13.0909
12.6856
12.3159
14.6386
14.5855
14.4783
14.3151
14.0938
13.8132
13.4755
13.0908
12.6856
12.3158
14.6386
14.5855
14.4783
14.3151
14.0937
13.8132
13.4754
13.0907
12.6855
12.3158
14.6385
14.5854
14.4782
14.315
14.0937
13.8131
13.4754
13.0907
12.6855
12.3158
14.6385
14.5854
14.4782
14.315
14.0937
13.8131
13.4754
13.0907
12.6855
12.3157
14.6385
14.5854
14.4782
14.315
14.0937
13.8131
13.4754
13.0907
12.6855
12.3157
14.6385
14.5854
14.4782
14.315
14.0937
13.8131
13.4754
13.0907
12.6855
12.3158
14.6386
14.5855
14.4783
14.3151
14.0938
13.8132
13.4755
13.0908
12.6855
12.3158
14.6386
14.5855
14.4783
14.3151
14.0938
13.8132
13.4755
13.0908
12.6856
12.3159
14.6387
14.5856
14.4784
14.3152
14.0939
13.8133
13.4756
13.0909
12.6857
12.3159
11.9269
11.8826
11.794
11.6616
11.4872
11.2754
11.0359
10.7875
10.5625
10.4116
11.9269
11.8825
11.7939
11.6616
11.4872
11.2753
11.0358
10.7874
10.5625
10.4116
11.9269
11.8825
11.7939
11.6615
11.4871
11.2753
11.0358
10.7874
10.5624
10.4115
11.9268
11.8825
11.7939
11.6615
11.4871
11.2752
11.0358
10.7874
10.5624
10.4115
11.9268
11.8825
11.7939
11.6615
11.4871
11.2752
11.0358
10.7874
10.5624
10.4115
11.9268
11.8825
11.7939
11.6615
11.4871
11.2752
11.0358
10.7874
10.5624
10.4115
11.9268
11.8825
11.7939
11.6615
11.4871
11.2753
11.0358
10.7874
10.5624
10.4115
11.9269
11.8825
11.7939
11.6615
11.4871
11.2753
11.0358
10.7874
10.5625
10.4115
11.9269
11.8825
11.794
11.6616
11.4872
11.2753
11.0359
10.7875
10.5625
10.4116
11.9269
11.8826
11.794
11.6616
11.4872
11.2754
11.0359
10.7875
10.5626
10.4116
9.63696
9.60151
9.53158
9.42945
9.29976
9.15104
8.99797
8.86413
8.78415
8.80298
9.63692
9.60146
9.53153
9.42941
9.29972
9.15099
8.99792
8.86408
8.7841
8.80292
9.63688
9.60143
9.53149
9.42937
9.29968
9.15096
8.99789
8.86404
8.78406
8.80288
9.63686
9.6014
9.53147
9.42935
9.29966
9.15093
8.99786
8.86401
8.78403
8.80285
9.63685
9.60139
9.53146
9.42934
9.29965
9.15092
8.99785
8.864
8.78402
8.80284
9.63685
9.60139
9.53146
9.42934
9.29965
9.15093
8.99786
8.86401
8.78402
8.80284
9.63686
9.60141
9.53148
9.42936
9.29967
9.15094
8.99787
8.86402
8.78404
8.80286
9.63689
9.60143
9.5315
9.42938
9.2997
9.15097
8.9979
8.86405
8.78407
8.80289
9.63692
9.60147
9.53154
9.42942
9.29974
9.15101
8.99794
8.8641
8.78412
8.80294
9.63696
9.60152
9.53159
9.42948
9.29979
9.15107
8.998
8.86415
8.78418
8.803
7.72257
7.69538
7.64255
7.56756
7.47683
7.38131
7.29873
7.25638
7.29318
7.45679
7.72253
7.69533
7.64251
7.56752
7.47679
7.38127
7.29869
7.25634
7.29313
7.45674
7.72249
7.6953
7.64248
7.56749
7.47676
7.38124
7.29865
7.2563
7.29309
7.4567
7.72247
7.69528
7.64246
7.56747
7.47674
7.38122
7.29863
7.25628
7.29307
7.45668
7.72247
7.69527
7.64245
7.56746
7.47673
7.38121
7.29863
7.25627
7.29306
7.45667
7.72247
7.69528
7.64245
7.56747
7.47674
7.38121
7.29863
7.25628
7.29307
7.45667
7.72248
7.69529
7.64246
7.56748
7.47675
7.38122
7.29864
7.25629
7.29308
7.45669
7.7225
7.69531
7.64249
7.5675
7.47677
7.38125
7.29867
7.25632
7.29311
7.45672
7.72253
7.69534
7.64252
7.56754
7.47681
7.38129
7.29871
7.25636
7.29315
7.45676
7.72256
7.69539
7.64257
7.56759
7.47686
7.38134
7.29876
7.25641
7.29321
7.45682
6.1378
6.11772
6.0794
6.02683
5.96715
5.91218
5.8809
5.90346
6.02745
6.32434
6.13776
6.11768
6.07936
6.0268
5.96712
5.91214
5.88086
5.90342
6.02741
6.32429
6.13774
6.11766
6.07934
6.02677
5.96709
5.91211
5.88083
5.90339
6.02737
6.32425
6.13772
6.11764
6.07932
6.02675
5.96707
5.9121
5.88081
5.90337
6.02736
6.32423
6.13771
6.11763
6.07931
6.02675
5.96707
5.91209
5.8808
5.90336
6.02735
6.32422
6.13771
6.11763
6.07931
6.02675
5.96707
5.91209
5.88081
5.90337
6.02735
6.32423
6.13772
6.11765
6.07932
6.02676
5.96708
5.91211
5.88082
5.90338
6.02736
6.32424
6.13774
6.11767
6.07935
6.02678
5.9671
5.91213
5.88084
5.90341
6.02739
6.32427
6.13777
6.11769
6.07938
6.02681
5.96714
5.91216
5.88088
5.90344
6.02743
6.32431
6.1378
6.11773
6.07942
6.02686
5.96718
5.91221
5.88092
5.90349
6.02748
6.32436
4.83854
4.82418
4.79729
4.76178
4.72442
4.69607
4.69393
4.74619
4.9047
5.28962
4.83851
4.82415
4.79726
4.76175
4.72438
4.69603
4.6939
4.74616
4.90467
5.28958
4.83848
4.82412
4.79723
4.76173
4.72436
4.69601
4.69387
4.74613
4.90464
5.28955
4.83847
4.82411
4.79722
4.76171
4.72435
4.69599
4.69386
4.74612
4.90462
5.28953
4.83846
4.8241
4.79721
4.7617
4.72434
4.69599
4.69385
4.74611
4.90462
5.28953
4.83846
4.82411
4.79722
4.76171
4.72434
4.69599
4.69386
4.74612
4.90462
5.28953
4.83847
4.82412
4.79723
4.76172
4.72435
4.696
4.69387
4.74613
4.90463
5.28954
4.83849
4.82413
4.79724
4.76174
4.72437
4.69602
4.69389
4.74615
4.90466
5.28957
4.83851
4.82416
4.79727
4.76177
4.7244
4.69605
4.69392
4.74618
4.90469
5.28961
4.83854
4.82419
4.79731
4.7618
4.72444
4.69609
4.69396
4.74622
4.90473
5.28965
20.082
17.8803
17.2843
18.0189
20.0498
23.4954
28.6236
35.9121
46.2197
61.2444
20.0819
17.8802
17.2842
18.0188
20.0497
23.4953
28.6235
35.912
46.2195
61.2442
20.0819
17.8801
17.2841
18.0187
20.0496
23.4952
28.6233
35.9119
46.2194
61.244
20.0818
17.8801
17.284
18.0187
20.0495
23.4951
28.6233
35.9118
46.2193
61.2439
20.0818
17.88
17.284
18.0186
20.0495
23.4951
28.6232
35.9117
46.2193
61.2439
20.0818
17.88
17.284
18.0186
20.0495
23.4951
28.6232
35.9117
46.2193
61.2439
20.0818
17.88
17.284
18.0186
20.0495
23.4951
28.6232
35.9118
46.2193
61.2439
20.0819
17.8801
17.2841
18.0187
20.0496
23.4952
28.6233
35.9118
46.2194
61.244
20.0819
17.8801
17.2841
18.0187
20.0496
23.4952
28.6234
35.9119
46.2195
61.2441
20.082
17.8802
17.2842
18.0188
20.0497
23.4953
28.6235
35.912
46.2196
61.2443
18.2148
16.8706
16.5938
17.4175
19.3965
22.6533
27.3956
33.9308
42.6601
53.9314
18.2147
16.8705
16.5937
17.4174
19.3964
22.6532
27.3954
33.9306
42.6599
53.9312
18.2146
16.8704
16.5936
17.4173
19.3963
22.6531
27.3953
33.9305
42.6598
53.9311
18.2146
16.8704
16.5935
17.4173
19.3963
22.653
27.3953
33.9304
42.6597
53.931
18.2146
16.8703
16.5935
17.4172
19.3962
22.653
27.3952
33.9304
42.6596
53.9309
18.2146
16.8703
16.5935
17.4172
19.3962
22.653
27.3952
33.9304
42.6596
53.9309
18.2146
16.8704
16.5935
17.4172
19.3962
22.653
27.3952
33.9304
42.6597
53.931
18.2146
16.8704
16.5936
17.4173
19.3963
22.6531
27.3953
33.9305
42.6597
53.9311
18.2147
16.8705
16.5936
17.4174
19.3964
22.6531
27.3954
33.9306
42.6598
53.9312
18.2147
16.8705
16.5937
17.4174
19.3965
22.6532
27.3955
33.9307
42.66
53.9313
16.0571
15.3822
15.4347
16.3468
18.2166
21.1539
25.2917
30.7729
37.6877
45.8943
16.057
15.3821
15.4346
16.3467
18.2165
21.1537
25.2915
30.7728
37.6875
45.8941
16.057
15.382
15.4346
16.3466
18.2164
21.1536
25.2914
30.7727
37.6874
45.894
16.0569
15.382
15.4345
16.3465
18.2164
21.1536
25.2913
30.7726
37.6873
45.8939
16.0569
15.3819
15.4345
16.3465
18.2163
21.1535
25.2913
30.7726
37.6873
45.8939
16.0569
15.3819
15.4345
16.3465
18.2163
21.1535
25.2913
30.7726
37.6872
45.8939
16.0569
15.382
15.4345
16.3465
18.2164
21.1536
25.2913
30.7726
37.6873
45.8939
16.057
15.382
15.4346
16.3466
18.2164
21.1536
25.2914
30.7726
37.6874
45.894
16.057
15.3821
15.4346
16.3466
18.2165
21.1537
25.2915
30.7727
37.6875
45.8941
16.0571
15.3821
15.4347
16.3467
18.2166
21.1538
25.2916
30.7729
37.6876
45.8943
13.9781
13.7401
14.0326
14.9868
16.7008
19.2587
22.7327
27.1632
32.5058
38.5343
13.978
13.74
14.0325
14.9867
16.7007
19.2586
22.7326
27.1631
32.5057
38.5341
13.9779
13.7399
14.0324
14.9867
16.7006
19.2585
22.7325
27.163
32.5056
38.534
13.9779
13.7399
14.0324
14.9866
16.7006
19.2584
22.7324
27.1629
32.5055
38.5339
13.9779
13.7398
14.0324
14.9866
16.7005
19.2584
22.7324
27.1629
32.5055
38.5339
13.9779
13.7398
14.0323
14.9866
16.7005
19.2584
22.7324
27.1629
32.5055
38.5339
13.9779
13.7399
14.0324
14.9866
16.7006
19.2584
22.7324
27.1629
32.5055
38.5339
13.978
13.7399
14.0324
14.9867
16.7006
19.2585
22.7325
27.163
32.5056
38.534
13.978
13.74
14.0325
14.9867
16.7007
19.2585
22.7326
27.1631
32.5057
38.5341
13.9781
13.74
14.0326
14.9868
16.7008
19.2586
22.7327
27.1632
32.5058
38.5343
12.0811
12.1204
12.5632
13.5122
15.0457
17.2206
20.0679
23.5764
27.6628
32.1325
12.081
12.1203
12.5631
13.5121
15.0456
17.2205
20.0677
23.5763
27.6627
32.1324
12.081
12.1203
12.563
13.512
15.0455
17.2204
20.0676
23.5762
27.6626
32.1323
12.0809
12.1202
12.563
13.512
15.0455
17.2203
20.0676
23.5761
27.6625
32.1322
12.0809
12.1202
12.563
13.512
15.0455
17.2203
20.0676
23.5761
27.6625
32.1321
12.0809
12.1202
12.563
13.512
15.0455
17.2203
20.0676
23.5761
27.6625
32.1321
12.081
12.1202
12.563
13.512
15.0455
17.2203
20.0676
23.5761
27.6625
32.1322
12.081
12.1203
12.563
13.512
15.0455
17.2204
20.0676
23.5762
27.6626
32.1323
12.081
12.1203
12.5631
13.5121
15.0456
17.2205
20.0677
23.5763
27.6627
32.1324
12.0811
12.1204
12.5632
13.5122
15.0457
17.2206
20.0678
23.5764
27.6628
32.1325
10.4048
10.6252
11.1562
12.0701
13.4225
15.2469
17.5487
20.294
23.3976
26.7133
10.4048
10.6252
11.1561
12.07
13.4224
15.2468
17.5485
20.2939
23.3975
26.7132
10.4047
10.6251
11.156
12.07
13.4223
15.2467
17.5485
20.2938
23.3974
26.7131
10.4047
10.6251
11.156
12.0699
13.4223
15.2467
17.5484
20.2938
23.3973
26.713
10.4047
10.6251
11.156
12.0699
13.4223
15.2467
17.5484
20.2937
23.3973
26.713
10.4047
10.6251
11.156
12.0699
13.4223
15.2467
17.5484
20.2937
23.3973
26.713
10.4047
10.6251
11.156
12.0699
13.4223
15.2467
17.5484
20.2938
23.3973
26.713
10.4047
10.6251
11.156
12.07
13.4223
15.2467
17.5485
20.2938
23.3974
26.7131
10.4048
10.6252
11.1561
12.07
13.4224
15.2468
17.5485
20.2939
23.3975
26.7132
10.4049
10.6253
11.1562
12.0701
13.4225
15.2469
17.5487
20.2941
23.3976
26.7133
8.96846
9.32035
9.90709
10.7772
11.9676
13.4947
15.3477
17.4817
19.8162
22.2422
8.96839
9.32028
9.90701
10.7771
11.9675
13.4946
15.3475
17.4816
19.8161
22.2421
8.96835
9.32023
9.90696
10.777
11.9674
13.4946
15.3475
17.4815
19.816
22.242
8.96832
9.3202
9.90692
10.777
11.9674
13.4945
15.3474
17.4814
19.816
22.2419
8.9683
9.32018
9.90691
10.777
11.9673
13.4945
15.3474
17.4814
19.8159
22.2419
8.96831
9.32018
9.90691
10.777
11.9673
13.4945
15.3474
17.4814
19.8159
22.2419
8.96833
9.3202
9.90693
10.777
11.9674
13.4945
15.3474
17.4814
19.816
22.2419
8.96836
9.32024
9.90697
10.777
11.9674
13.4946
15.3475
17.4815
19.816
22.242
8.96841
9.32029
9.90703
10.7771
11.9675
13.4947
15.3476
17.4816
19.8161
22.2421
8.96848
9.32036
9.9071
10.7772
11.9676
13.4947
15.3477
17.4817
19.8163
22.2422
7.78414
8.2542
8.88859
9.7231
10.7848
12.0794
13.5846
15.2454
16.9771
18.6823
7.78408
8.25414
8.88852
9.72302
10.7847
12.0793
13.5845
15.2453
16.977
18.6822
7.78404
8.25409
8.88847
9.72296
10.7846
12.0793
13.5844
15.2452
16.9769
18.6821
7.78401
8.25406
8.88843
9.72293
10.7846
12.0792
13.5844
15.2452
16.9768
18.682
7.784
8.25405
8.88842
9.72291
10.7846
12.0792
13.5843
15.2451
16.9768
18.682
7.784
8.25405
8.88842
9.72291
10.7846
12.0792
13.5843
15.2451
16.9768
18.682
7.78402
8.25407
8.88844
9.72293
10.7846
12.0792
13.5844
15.2452
16.9768
18.682
7.78405
8.2541
8.88848
9.72298
10.7846
12.0793
13.5844
15.2452
16.9769
18.6821
7.7841
8.25416
8.88853
9.72304
10.7847
12.0794
13.5845
15.2453
16.977
18.6822
7.78416
8.25422
8.88861
9.72311
10.7848
12.0795
13.5846
15.2454
16.9771
18.6823
6.86775
7.4723
8.15993
8.97642
9.95098
11.0853
12.348
13.67
14.9426
16.0306
6.8677
7.47225
8.15986
8.97635
9.9509
11.0852
12.3479
13.6699
14.9425
16.0305
6.86766
7.4722
8.15982
8.97629
9.95085
11.0852
12.3479
13.6699
14.9424
16.0304
6.86764
7.47218
8.15979
8.97626
9.95081
11.0851
12.3478
13.6698
14.9424
16.0303
6.86763
7.47216
8.15978
8.97625
9.9508
11.0851
12.3478
13.6698
14.9424
16.0303
6.86763
7.47217
8.15978
8.97625
9.9508
11.0851
12.3478
13.6698
14.9424
16.0303
6.86765
7.47219
8.1598
8.97627
9.95082
11.0852
12.3479
13.6698
14.9424
16.0304
6.86768
7.47222
8.15983
8.97631
9.95087
11.0852
12.3479
13.6699
14.9425
16.0304
6.86772
7.47227
8.15989
8.97637
9.95093
11.0853
12.348
13.67
14.9426
16.0305
6.86778
7.47233
8.15996
8.97645
9.95101
11.0854
12.3481
13.6701
14.9427
16.0306
6.2756
7.03546
7.774
8.58791
9.51967
10.5718
11.7072
12.8418
13.8273
14.4061
6.27556
7.03541
7.77395
8.58786
9.51961
10.5717
11.7071
12.8418
13.8272
14.406
6.27553
7.03538
7.77391
8.58781
9.51956
10.5717
11.707
12.8417
13.8272
14.406
6.2755
7.03535
7.77389
8.58778
9.51953
10.5716
11.707
12.8417
13.8271
14.4059
6.27549
7.03534
7.77387
8.58777
9.51951
10.5716
11.707
12.8417
13.8271
14.4059
6.2755
7.03535
7.77388
8.58777
9.51952
10.5716
11.707
12.8417
13.8271
14.4059
6.27551
7.03536
7.7739
8.58779
9.51954
10.5716
11.707
12.8417
13.8272
14.4059
6.27554
7.0354
7.77393
8.58783
9.51959
10.5717
11.7071
12.8417
13.8272
14.406
6.27558
7.03544
7.77398
8.58789
9.51965
10.5718
11.7071
12.8418
13.8273
14.4061
6.27564
7.0355
7.77405
8.58796
9.51973
10.5718
11.7072
12.8419
13.8274
14.4062
84.877
95.8028
102.264
106.624
109.739
112.003
113.634
114.764
115.476
115.821
84.8767
95.8025
102.264
106.623
109.738
112.003
113.634
114.763
115.476
115.82
84.8765
95.8023
102.263
106.623
109.738
112.003
113.633
114.763
115.476
115.82
84.8764
95.8022
102.263
106.623
109.738
112.002
113.633
114.763
115.475
115.82
84.8764
95.8022
102.263
106.623
109.738
112.002
113.633
114.763
115.475
115.82
84.8764
95.8022
102.263
106.623
109.738
112.002
113.633
114.763
115.475
115.82
84.8764
95.8022
102.263
106.623
109.738
112.002
113.633
114.763
115.476
115.82
84.8765
95.8023
102.263
106.623
109.738
112.003
113.633
114.763
115.476
115.82
84.8766
95.8025
102.264
106.623
109.738
112.003
113.634
114.763
115.476
115.821
84.8768
95.8027
102.264
106.624
109.739
112.003
113.634
114.764
115.476
115.821
67.1771
76.6621
83.1944
87.7919
91.0977
93.493
95.2098
96.3943
97.1389
97.4984
67.1769
76.6618
83.1942
87.7917
91.0975
93.4927
95.2095
96.3941
97.1387
97.4982
67.1767
76.6617
83.194
87.7915
91.0973
93.4925
95.2093
96.3939
97.1385
97.4981
67.1766
76.6615
83.1939
87.7914
91.0972
93.4924
95.2092
96.3938
97.1384
97.498
67.1765
76.6615
83.1938
87.7913
91.0971
93.4923
95.2092
96.3937
97.1383
97.4979
67.1765
76.6615
83.1938
87.7913
91.0971
93.4924
95.2092
96.3938
97.1384
97.498
67.1766
76.6615
83.1939
87.7914
91.0972
93.4924
95.2093
96.3938
97.1384
97.498
67.1767
76.6616
83.194
87.7915
91.0973
93.4926
95.2094
96.394
97.1386
97.4982
67.1768
76.6618
83.1942
87.7917
91.0975
93.4927
95.2096
96.3942
97.1388
97.4984
67.177
76.662
83.1944
87.7919
91.0977
93.493
95.2098
96.3944
97.139
97.4986
54.6119
61.9468
67.6121
71.8695
75.0392
77.3778
79.0698
80.243
80.9824
81.3399
54.6117
61.9466
67.6119
71.8693
75.039
77.3775
79.0696
80.2428
80.9822
81.3397
54.6115
61.9464
67.6117
71.8691
75.0388
77.3773
79.0694
80.2426
80.982
81.3396
54.6114
61.9463
67.6116
71.869
75.0387
77.3772
79.0693
80.2425
80.9819
81.3395
54.6114
61.9463
67.6116
71.869
75.0387
77.3772
79.0692
80.2425
80.9819
81.3394
54.6114
61.9463
67.6116
71.869
75.0387
77.3772
79.0692
80.2425
80.9819
81.3395
54.6114
61.9463
67.6116
71.869
75.0387
77.3773
79.0693
80.2426
80.982
81.3395
54.6115
61.9464
67.6117
71.8692
75.0389
77.3774
79.0695
80.2427
80.9821
81.3397
54.6117
61.9466
67.6119
71.8693
75.039
77.3776
79.0696
80.2429
80.9823
81.3399
54.6118
61.9468
67.6121
71.8695
75.0393
77.3778
79.0699
80.2432
80.9826
81.3401
44.7212
50.2849
54.9002
58.5638
61.3964
63.5392
65.1149
66.2189
66.919
67.2587
44.721
50.2847
54.9
58.5636
61.3962
63.539
65.1147
66.2187
66.9188
67.2586
44.7209
50.2846
54.8998
58.5634
61.3961
63.5388
65.1145
66.2185
66.9187
67.2584
44.7208
50.2845
54.8997
58.5633
61.396
63.5387
65.1144
66.2184
66.9186
67.2583
44.7207
50.2844
54.8997
58.5633
61.3959
63.5387
65.1144
66.2184
66.9186
67.2583
44.7207
50.2844
54.8997
58.5633
61.3959
63.5387
65.1144
66.2184
66.9186
67.2583
44.7208
50.2845
54.8997
58.5633
61.396
63.5387
65.1145
66.2185
66.9187
67.2584
44.7209
50.2846
54.8998
58.5634
61.3961
63.5389
65.1146
66.2186
66.9188
67.2585
44.721
50.2847
54.9
58.5636
61.3963
63.539
65.1148
66.2188
66.919
67.2587
44.7212
50.2849
54.9002
58.5638
61.3965
63.5393
65.115
66.219
66.9192
67.259
36.6601
40.8607
44.5025
47.5151
49.9236
51.7922
53.1919
54.1852
54.8205
55.1302
36.66
40.8605
44.5023
47.5149
49.9234
51.792
53.1917
54.185
54.8204
55.1301
36.6599
40.8604
44.5022
47.5147
49.9233
51.7919
53.1916
54.1849
54.8202
55.13
36.6598
40.8603
44.5021
47.5147
49.9232
51.7918
53.1915
54.1848
54.8201
55.1299
36.6597
40.8602
44.502
47.5146
49.9231
51.7918
53.1915
54.1848
54.8201
55.1299
36.6597
40.8603
44.502
47.5146
49.9231
51.7918
53.1915
54.1848
54.8201
55.1299
36.6598
40.8603
44.5021
47.5147
49.9232
51.7918
53.1915
54.1849
54.8202
55.13
36.6599
40.8604
44.5022
47.5148
49.9233
51.792
53.1917
54.185
54.8203
55.1301
36.66
40.8605
44.5023
47.5149
49.9235
51.7921
53.1918
54.1852
54.8205
55.1303
36.6602
40.8607
44.5025
47.5151
49.9237
51.7923
53.192
54.1854
54.8208
55.1305
30.044
33.1855
35.9899
38.3844
40.3546
41.9201
43.1147
43.9742
44.5291
44.801
30.0439
33.1853
35.9897
38.3843
40.3545
41.9199
43.1145
43.974
44.5289
44.8009
30.0438
33.1852
35.9896
38.3841
40.3543
41.9198
43.1144
43.9739
44.5288
44.8008
30.0437
33.1851
35.9895
38.3841
40.3543
41.9197
43.1143
43.9738
44.5287
44.8007
30.0437
33.1851
35.9895
38.384
40.3542
41.9197
43.1143
43.9738
44.5287
44.8007
30.0437
33.1851
35.9895
38.384
40.3542
41.9197
43.1143
43.9738
44.5287
44.8007
30.0437
33.1851
35.9895
38.3841
40.3543
41.9197
43.1143
43.9739
44.5288
44.8008
30.0438
33.1852
35.9896
38.3842
40.3544
41.9198
43.1144
43.974
44.5289
44.8009
30.0439
33.1853
35.9898
38.3843
40.3545
41.92
43.1146
43.9741
44.5291
44.8011
30.0441
33.1855
35.99
38.3845
40.3547
41.9202
43.1148
43.9743
44.5293
44.8013
24.6454
26.9367
29.0332
30.875
32.4319
33.6979
34.6822
35.4005
35.8689
36.0997
24.6453
26.9366
29.033
30.8749
32.4317
33.6977
34.682
35.4004
35.8687
36.0996
24.6452
26.9365
29.0329
30.8747
32.4316
33.6976
34.6819
35.4002
35.8686
36.0995
24.6451
26.9364
29.0329
30.8747
32.4315
33.6975
34.6819
35.4002
35.8685
36.0995
24.6451
26.9364
29.0328
30.8746
32.4315
33.6975
34.6818
35.4002
35.8685
36.0995
24.6451
26.9364
29.0328
30.8747
32.4315
33.6975
34.6819
35.4002
35.8685
36.0995
24.6452
26.9364
29.0329
30.8747
32.4316
33.6976
34.6819
35.4002
35.8686
36.0995
24.6452
26.9365
29.033
30.8748
32.4317
33.6977
34.682
35.4003
35.8687
36.0996
24.6453
26.9366
29.0331
30.8749
32.4318
33.6978
34.6822
35.4005
35.8689
36.0998
24.6455
26.9368
29.0333
30.8751
32.432
33.698
34.6823
35.4007
35.8691
36.1
20.2991
21.8722
23.3669
24.7289
25.9164
26.9067
27.6919
28.2735
28.6566
28.8466
20.2989
21.8721
23.3668
24.7288
25.9163