/*--------------------------------*- C++ -*----------------------------------*\
  =========                 |
  \\      /  F ield         | OpenFOAM: The Open Source CFD Toolbox
   \\    /   O peration     | Website:  https://openfoam.org
    \\  /    A nd           | Version:  6
     \\/     M anipulation  |
\*---------------------------------------------------------------------------*/
FoamFile
{
    version     2.0;
    format      ascii;
    class       volScalarField;
    location    "0.99";
    object      T;
}
// * * * * * * * * * * * * * * * * * * * * * * * * * * * * * * * * * * * * * //

dimensions      [0 0 0 1 0 0 0];

internalField   nonuniform List<scalar> 
7000
(
106.786
106.786
106.784
106.782
106.78
106.777
106.775
106.772
106.77
106.769
106.786
106.786
106.784
106.782
106.78
106.777
106.775
106.772
106.77
106.769
106.786
106.786
106.784
106.782
106.78
106.777
106.775
106.772
106.77
106.769
106.786
106.786
106.784
106.782
106.78
106.777
106.775
106.772
106.77
106.769
106.786
106.786
106.784
106.782
106.78
106.777
106.775
106.772
106.77
106.769
106.786
106.786
106.784
106.782
106.78
106.777
106.775
106.772
106.77
106.769
106.786
106.786
106.784
106.782
106.78
106.777
106.775
106.772
106.77
106.769
106.786
106.786
106.784
106.782
106.78
106.777
106.775
106.772
106.77
106.769
106.786
106.786
106.784
106.782
106.78
106.777
106.775
106.772
106.77
106.769
106.786
106.786
106.784
106.782
106.78
106.777
106.775
106.772
106.77
106.769
100.377
100.375
100.371
100.365
100.358
100.35
100.342
100.335
100.329
100.326
100.377
100.375
100.371
100.365
100.358
100.35
100.342
100.335
100.329
100.326
100.377
100.375
100.371
100.365
100.358
100.35
100.342
100.334
100.329
100.326
100.377
100.375
100.371
100.365
100.358
100.35
100.342
100.334
100.329
100.326
100.377
100.375
100.371
100.365
100.358
100.35
100.342
100.334
100.329
100.326
100.377
100.375
100.371
100.365
100.358
100.35
100.342
100.334
100.329
100.326
100.377
100.375
100.371
100.365
100.358
100.35
100.342
100.334
100.329
100.326
100.377
100.375
100.371
100.365
100.358
100.35
100.342
100.334
100.329
100.326
100.377
100.375
100.371
100.365
100.358
100.35
100.342
100.334
100.329
100.326
100.377
100.375
100.371
100.365
100.358
100.35
100.342
100.335
100.329
100.326
94.0229
94.0193
94.0124
94.0024
93.9902
93.9767
93.963
93.9507
93.9413
93.9361
94.0229
94.0193
94.0123
94.0024
93.9902
93.9767
93.963
93.9506
93.9412
93.9361
94.0229
94.0193
94.0123
94.0024
93.9902
93.9766
93.963
93.9506
93.9412
93.9361
94.0229
94.0193
94.0123
94.0024
93.9902
93.9766
93.9629
93.9506
93.9412
93.9361
94.0229
94.0193
94.0123
94.0024
93.9902
93.9766
93.9629
93.9506
93.9412
93.9361
94.0229
94.0193
94.0123
94.0024
93.9902
93.9766
93.9629
93.9506
93.9412
93.9361
94.0229
94.0193
94.0123
94.0024
93.9902
93.9766
93.9629
93.9506
93.9412
93.9361
94.0229
94.0193
94.0123
94.0024
93.9902
93.9766
93.963
93.9506
93.9412
93.9361
94.0229
94.0193
94.0123
94.0024
93.9902
93.9766
93.963
93.9506
93.9412
93.9361
94.0229
94.0193
94.0123
94.0024
93.9902
93.9767
93.963
93.9506
93.9412
93.9361
87.7588
87.7538
87.7443
87.7305
87.7134
87.6941
87.6743
87.6562
87.6421
87.6343
87.7587
87.7538
87.7442
87.7305
87.7134
87.6941
87.6743
87.6562
87.6421
87.6343
87.7587
87.7538
87.7442
87.7305
87.7134
87.6941
87.6743
87.6561
87.6421
87.6343
87.7587
87.7538
87.7442
87.7305
87.7133
87.6941
87.6743
87.6561
87.642
87.6343
87.7587
87.7538
87.7442
87.7305
87.7133
87.6941
87.6743
87.6561
87.642
87.6343
87.7587
87.7538
87.7442
87.7305
87.7133
87.6941
87.6743
87.6561
87.642
87.6343
87.7587
87.7538
87.7442
87.7305
87.7133
87.6941
87.6743
87.6561
87.642
87.6343
87.7587
87.7538
87.7442
87.7305
87.7133
87.6941
87.6743
87.6561
87.642
87.6343
87.7587
87.7538
87.7442
87.7305
87.7134
87.6941
87.6743
87.6561
87.6421
87.6343
87.7587
87.7538
87.7442
87.7305
87.7134
87.6941
87.6743
87.6562
87.6421
87.6343
81.6196
81.6136
81.6017
81.5845
81.5627
81.5376
81.5112
81.4863
81.4663
81.455
81.6196
81.6136
81.6017
81.5845
81.5627
81.5376
81.5112
81.4862
81.4663
81.455
81.6196
81.6135
81.6017
81.5845
81.5627
81.5376
81.5112
81.4862
81.4663
81.455
81.6196
81.6135
81.6017
81.5845
81.5627
81.5376
81.5112
81.4862
81.4662
81.455
81.6196
81.6135
81.6017
81.5844
81.5627
81.5376
81.5112
81.4862
81.4662
81.455
81.6196
81.6135
81.6017
81.5844
81.5627
81.5376
81.5111
81.4862
81.4662
81.455
81.6196
81.6135
81.6017
81.5844
81.5627
81.5376
81.5112
81.4862
81.4662
81.455
81.6196
81.6135
81.6017
81.5845
81.5627
81.5376
81.5112
81.4862
81.4663
81.455
81.6196
81.6135
81.6017
81.5845
81.5627
81.5376
81.5112
81.4862
81.4663
81.455
81.6196
81.6136
81.6017
81.5845
81.5627
81.5376
81.5112
81.4862
81.4663
81.455
75.6387
75.6319
75.6185
75.5987
75.573
75.5424
75.5089
75.4758
75.4479
75.4315
75.6387
75.6319
75.6185
75.5987
75.573
75.5424
75.5089
75.4757
75.4479
75.4314
75.6387
75.6319
75.6185
75.5986
75.5729
75.5424
75.5089
75.4757
75.4478
75.4314
75.6387
75.6319
75.6184
75.5986
75.5729
75.5424
75.5089
75.4757
75.4478
75.4314
75.6386
75.6319
75.6184
75.5986
75.5729
75.5424
75.5089
75.4757
75.4478
75.4314
75.6386
75.6319
75.6184
75.5986
75.5729
75.5424
75.5089
75.4757
75.4478
75.4314
75.6386
75.6319
75.6184
75.5986
75.5729
75.5424
75.5089
75.4757
75.4478
75.4314
75.6387
75.6319
75.6184
75.5986
75.5729
75.5424
75.5089
75.4757
75.4478
75.4314
75.6387
75.6319
75.6185
75.5986
75.5729
75.5424
75.5089
75.4757
75.4478
75.4314
75.6387
75.6319
75.6185
75.5987
75.573
75.5424
75.5089
75.4757
75.4479
75.4315
69.8472
69.8404
69.8267
69.806
69.7781
69.7434
69.7029
69.6596
69.6201
69.5949
69.8472
69.8404
69.8266
69.8059
69.7781
69.7434
69.7028
69.6595
69.6201
69.5949
69.8472
69.8403
69.8266
69.8059
69.7781
69.7433
69.7028
69.6595
69.62
69.5949
69.8471
69.8403
69.8266
69.8059
69.7781
69.7433
69.7028
69.6595
69.62
69.5949
69.8471
69.8403
69.8266
69.8059
69.778
69.7433
69.7028
69.6595
69.62
69.5949
69.8471
69.8403
69.8266
69.8059
69.778
69.7433
69.7028
69.6595
69.62
69.5949
69.8471
69.8403
69.8266
69.8059
69.778
69.7433
69.7028
69.6595
69.62
69.5949
69.8471
69.8403
69.8266
69.8059
69.7781
69.7433
69.7028
69.6595
69.62
69.5949
69.8472
69.8403
69.8266
69.8059
69.7781
69.7433
69.7028
69.6595
69.62
69.5949
69.8472
69.8404
69.8267
69.8059
69.7781
69.7434
69.7028
69.6596
69.6201
69.5949
64.2736
64.2678
64.256
64.2374
64.2109
64.1753
64.1292
64.0738
64.0159
63.9733
64.2735
64.2677
64.2559
64.2373
64.2109
64.1752
64.1292
64.0738
64.0158
63.9733
64.2735
64.2677
64.2559
64.2373
64.2109
64.1752
64.1292
64.0738
64.0158
63.9733
64.2735
64.2677
64.2559
64.2373
64.2109
64.1752
64.1291
64.0737
64.0158
63.9733
64.2735
64.2677
64.2559
64.2373
64.2108
64.1752
64.1291
64.0737
64.0158
63.9732
64.2735
64.2677
64.2559
64.2373
64.2108
64.1752
64.1291
64.0737
64.0158
63.9732
64.2735
64.2677
64.2559
64.2373
64.2108
64.1752
64.1291
64.0737
64.0158
63.9733
64.2735
64.2677
64.2559
64.2373
64.2109
64.1752
64.1291
64.0737
64.0158
63.9733
64.2735
64.2677
64.2559
64.2373
64.2109
64.1752
64.1292
64.0738
64.0158
63.9733
64.2735
64.2677
64.2559
64.2374
64.2109
64.1752
64.1292
64.0738
64.0159
63.9733
58.9428
58.9396
58.9329
58.9213
58.9026
58.8728
58.8267
58.7589
58.6702
58.5867
58.9427
58.9396
58.9329
58.9213
58.9025
58.8727
58.8266
58.7588
58.6702
58.5867
58.9427
58.9396
58.9329
58.9213
58.9025
58.8727
58.8266
58.7588
58.6702
58.5866
58.9427
58.9396
58.9328
58.9212
58.9025
58.8727
58.8266
58.7587
58.6701
58.5866
58.9427
58.9395
58.9328
58.9212
58.9024
58.8727
58.8266
58.7587
58.6701
58.5866
58.9426
58.9395
58.9328
58.9212
58.9024
58.8727
58.8266
58.7587
58.6701
58.5866
58.9427
58.9395
58.9328
58.9212
58.9024
58.8727
58.8266
58.7587
58.6701
58.5866
58.9427
58.9396
58.9328
58.9212
58.9025
58.8727
58.8266
58.7588
58.6701
58.5866
58.9427
58.9396
58.9329
58.9213
58.9025
58.8727
58.8266
58.7588
58.6702
58.5867
58.9427
58.9396
58.9329
58.9213
58.9025
58.8728
58.8267
58.7588
58.6702
58.5867
53.8755
53.8772
53.88
53.8823
53.8811
53.8701
53.8381
53.7662
53.6301
53.4336
53.8755
53.8771
53.8799
53.8823
53.8811
53.8701
53.838
53.7661
53.63
53.4335
53.8755
53.8771
53.8799
53.8823
53.8811
53.87
53.838
53.7661
53.63
53.4335
53.8754
53.8771
53.8799
53.8822
53.881
53.87
53.8379
53.7661
53.6299
53.4334
53.8754
53.8771
53.8798
53.8822
53.881
53.87
53.8379
53.7661
53.6299
53.4334
53.8754
53.8771
53.8798
53.8822
53.881
53.87
53.8379
53.7661
53.6299
53.4334
53.8754
53.8771
53.8799
53.8822
53.881
53.87
53.8379
53.7661
53.6299
53.4334
53.8754
53.8771
53.8799
53.8823
53.881
53.87
53.838
53.7661
53.63
53.4335
53.8755
53.8771
53.8799
53.8823
53.8811
53.8701
53.838
53.7661
53.63
53.4335
53.8755
53.8772
53.8799
53.8823
53.8811
53.8701
53.838
53.7662
53.63
53.4335
49.0875
49.0964
49.1139
49.139
49.1691
49.1976
49.2096
49.1714
48.9984
48.4454
49.0875
49.0963
49.1138
49.139
49.1691
49.1975
49.2096
49.1713
48.9983
48.4453
49.0874
49.0963
49.1138
49.1389
49.169
49.1975
49.2095
49.1713
48.9983
48.4453
49.0874
49.0963
49.1138
49.1389
49.169
49.1975
49.2095
49.1713
48.9983
48.4452
49.0874
49.0963
49.1138
49.1389
49.169
49.1974
49.2095
49.1712
48.9982
48.4452
49.0874
49.0962
49.1137
49.1389
49.169
49.1974
49.2095
49.1712
48.9982
48.4452
49.0874
49.0963
49.1138
49.1389
49.169
49.1974
49.2095
49.1713
48.9983
48.4452
49.0874
49.0963
49.1138
49.1389
49.169
49.1975
49.2095
49.1713
48.9983
48.4453
49.0874
49.0963
49.1138
49.139
49.169
49.1975
49.2096
49.1713
48.9983
48.4453
49.0875
49.0963
49.1138
49.139
49.1691
49.1975
49.2096
49.1714
48.9984
48.4453
44.5886
44.6071
44.6446
44.7018
44.7785
44.8726
44.9768
45.0742
45.1321
45.1071
44.5886
44.6071
44.6446
44.7017
44.7785
44.8725
44.9767
45.0741
45.132
45.107
44.5885
44.607
44.6445
44.7017
44.7784
44.8725
44.9767
45.0741
45.132
45.107
44.5885
44.607
44.6445
44.7017
44.7784
44.8725
44.9766
45.0741
45.132
45.1069
44.5885
44.607
44.6445
44.7016
44.7784
44.8724
44.9766
45.074
45.1319
45.1069
44.5885
44.607
44.6445
44.7016
44.7784
44.8724
44.9766
45.074
45.1319
45.1069
44.5885
44.607
44.6445
44.7017
44.7784
44.8725
44.9766
45.074
45.1319
45.1069
44.5885
44.607
44.6445
44.7017
44.7784
44.8725
44.9767
45.0741
45.132
45.1069
44.5885
44.607
44.6446
44.7017
44.7784
44.8725
44.9767
45.0741
45.132
45.107
44.5886
44.6071
44.6446
44.7018
44.7785
44.8726
44.9767
45.0742
45.1321
45.107
40.383
40.413
40.4747
40.5712
40.7068
40.8866
41.116
41.402
41.7598
42.2373
40.3829
40.4129
40.4746
40.5711
40.7068
40.8865
41.1159
41.402
41.7598
42.2372
40.3829
40.4129
40.4746
40.5711
40.7067
40.8865
41.1159
41.4019
41.7597
42.2372
40.3829
40.4129
40.4746
40.5711
40.7067
40.8864
41.1158
41.4019
41.7597
42.2371
40.3828
40.4128
40.4745
40.5711
40.7067
40.8864
41.1158
41.4019
41.7597
42.2371
40.3828
40.4128
40.4745
40.5711
40.7067
40.8864
41.1158
41.4019
41.7597
42.2371
40.3828
40.4128
40.4745
40.5711
40.7067
40.8864
41.1158
41.4019
41.7597
42.2371
40.3829
40.4129
40.4746
40.5711
40.7067
40.8865
41.1158
41.4019
41.7597
42.2371
40.3829
40.4129
40.4746
40.5711
40.7067
40.8865
41.1159
41.4019
41.7598
42.2372
40.3829
40.4129
40.4746
40.5712
40.7068
40.8865
41.1159
41.402
41.7598
42.2372
36.4692
36.5116
36.5996
36.7391
36.9394
37.2133
37.5784
38.0595
38.6957
39.5551
36.4691
36.5116
36.5995
36.739
36.9393
37.2132
37.5783
38.0594
38.6956
39.5551
36.4691
36.5116
36.5995
36.739
36.9393
37.2132
37.5783
38.0594
38.6955
39.555
36.4691
36.5115
36.5995
36.739
36.9392
37.2132
37.5782
38.0593
38.6955
39.555
36.4691
36.5115
36.5995
36.7389
36.9392
37.2131
37.5782
38.0593
38.6955
39.5549
36.4691
36.5115
36.5995
36.7389
36.9392
37.2131
37.5782
38.0593
38.6955
39.5549
36.4691
36.5115
36.5995
36.739
36.9392
37.2131
37.5782
38.0593
38.6955
39.555
36.4691
36.5115
36.5995
36.739
36.9392
37.2132
37.5783
38.0594
38.6955
39.555
36.4691
36.5116
36.5995
36.739
36.9393
37.2132
37.5783
38.0594
38.6956
39.555
36.4692
36.5116
36.5996
36.7391
36.9393
37.2133
37.5784
38.0595
38.6956
39.5551
32.8414
32.8961
33.0097
33.1912
33.4546
33.8198
34.3139
34.9731
35.8456
36.9954
32.8414
32.896
33.0096
33.1911
33.4545
33.8197
34.3138
34.973
35.8455
36.9953
32.8414
32.896
33.0096
33.1911
33.4545
33.8197
34.3138
34.973
35.8454
36.9952
32.8413
32.8959
33.0095
33.1911
33.4544
33.8196
34.3137
34.9729
35.8454
36.9952
32.8413
32.8959
33.0095
33.191
33.4544
33.8196
34.3137
34.9729
35.8454
36.9952
32.8413
32.8959
33.0095
33.191
33.4544
33.8196
34.3137
34.9729
35.8454
36.9952
32.8413
32.8959
33.0095
33.191
33.4544
33.8196
34.3137
34.9729
35.8454
36.9952
32.8413
32.8959
33.0096
33.1911
33.4545
33.8197
34.3138
34.9729
35.8454
36.9952
32.8414
32.896
33.0096
33.1911
33.4545
33.8197
34.3138
34.973
35.8455
36.9953
32.8414
32.896
33.0096
33.1912
33.4546
33.8198
34.3139
34.973
35.8455
36.9953
29.4906
29.5558
29.6918
29.9098
30.228
30.6723
31.2777
32.0889
33.1597
34.5467
29.4906
29.5558
29.6917
29.9098
30.228
30.6723
31.2776
32.0889
33.1597
34.5466
29.4905
29.5557
29.6917
29.9097
30.228
30.6722
31.2776
32.0888
33.1596
34.5466
29.4905
29.5557
29.6917
29.9097
30.2279
30.6722
31.2775
32.0888
33.1596
34.5465
29.4905
29.5557
29.6916
29.9097
30.2279
30.6722
31.2775
32.0888
33.1596
34.5465
29.4905
29.5557
29.6916
29.9097
30.2279
30.6722
31.2775
32.0888
33.1596
34.5465
29.4905
29.5557
29.6916
29.9097
30.2279
30.6722
31.2775
32.0888
33.1596
34.5465
29.4905
29.5557
29.6917
29.9097
30.2279
30.6722
31.2775
32.0888
33.1596
34.5466
29.4906
29.5558
29.6917
29.9098
30.228
30.6723
31.2776
32.0889
33.1596
34.5466
29.4906
29.5558
29.6917
29.9098
30.228
30.6723
31.2776
32.0889
33.1597
34.5467
26.4059
26.479
26.6315
26.8765
27.2352
27.7385
28.4285
29.3605
30.5987
32.2035
26.4059
26.4789
26.6314
26.8764
27.2352
27.7384
28.4285
29.3604
30.5987
32.2034
26.4058
26.4789
26.6314
26.8764
27.2351
27.7384
28.4284
29.3603
30.5986
32.2033
26.4058
26.4789
26.6313
26.8764
27.2351
27.7383
28.4284
29.3603
30.5986
32.2033
26.4058
26.4789
26.6313
26.8764
27.2351
27.7383
28.4284
29.3603
30.5986
32.2033
26.4058
26.4789
26.6313
26.8764
27.2351
27.7383
28.4284
29.3603
30.5986
32.2033
26.4058
26.4789
26.6313
26.8764
27.2351
27.7383
28.4284
29.3603
30.5986
32.2033
26.4058
26.4789
26.6314
26.8764
27.2351
27.7384
28.4284
29.3603
30.5986
32.2033
26.4059
26.4789
26.6314
26.8764
27.2352
27.7384
28.4285
29.3604
30.5987
32.2034
26.4059
26.479
26.6314
26.8765
27.2352
27.7385
28.4285
29.3605
30.5987
32.2035
23.5761
23.6534
23.8147
24.0739
24.4537
24.9881
25.7259
26.7357
28.1073
29.9365
23.5761
23.6534
23.8147
24.0739
24.4537
24.988
25.7259
26.7357
28.1072
29.9364
23.5761
23.6534
23.8146
24.0738
24.4536
24.988
25.7258
26.7356
28.1072
29.9364
23.576
23.6533
23.8146
24.0738
24.4536
24.988
25.7258
26.7356
28.1071
29.9364
23.576
23.6533
23.8146
24.0738
24.4536
24.9879
25.7258
26.7356
28.1071
29.9363
23.576
23.6533
23.8146
24.0738
24.4536
24.9879
25.7258
26.7356
28.1071
29.9363
23.576
23.6533
23.8146
24.0738
24.4536
24.988
25.7258
26.7356
28.1071
29.9364
23.576
23.6533
23.8146
24.0738
24.4536
24.988
25.7258
26.7356
28.1072
29.9364
23.5761
23.6534
23.8147
24.0739
24.4537
24.988
25.7259
26.7357
28.1072
29.9364
23.5761
23.6534
23.8147
24.0739
24.4537
24.9881
25.7259
26.7357
28.1073
29.9365
20.991
21.0685
21.2298
21.4884
21.866
22.3964
23.1308
24.1499
25.5843
27.6405
20.9909
21.0684
21.2298
21.4883
21.8659
22.3963
23.1308
24.1499
25.5843
27.6405
20.9909
21.0684
21.2297
21.4883
21.8659
22.3963
23.1308
24.1498
25.5842
27.6404
20.9908
21.0684
21.2297
21.4883
21.8659
22.3962
23.1307
24.1498
25.5842
27.6404
20.9908
21.0683
21.2297
21.4882
21.8659
22.3962
23.1307
24.1498
25.5842
27.6404
20.9908
21.0683
21.2297
21.4882
21.8659
22.3962
23.1307
24.1498
25.5842
27.6404
20.9908
21.0684
21.2297
21.4883
21.8659
22.3962
23.1307
24.1498
25.5842
27.6404
20.9909
21.0684
21.2297
21.4883
21.8659
22.3963
23.1308
24.1498
25.5842
27.6404
20.9909
21.0684
21.2298
21.4883
21.8659
22.3963
23.1308
24.1499
25.5843
27.6405
20.9909
21.0684
21.2298
21.4884
21.866
22.3964
23.1309
24.1499
25.5843
27.6405
18.6418
18.7156
18.8685
19.1118
19.4635
19.9513
20.6178
21.5352
22.8507
24.9573
18.6418
18.7156
18.8685
19.1117
19.4634
19.9512
20.6178
21.5351
22.8506
24.9573
18.6417
18.7155
18.8685
19.1117
19.4634
19.9512
20.6177
21.5351
22.8506
24.9572
18.6417
18.7155
18.8684
19.1117
19.4634
19.9512
20.6177
21.5351
22.8505
24.9572
18.6417
18.7155
18.8684
19.1117
19.4634
19.9511
20.6177
21.5351
22.8505
24.9572
18.6417
18.7155
18.8684
19.1117
19.4634
19.9511
20.6177
21.5351
22.8505
24.9572
18.6417
18.7155
18.8684
19.1117
19.4634
19.9512
20.6177
21.5351
22.8505
24.9572
18.6417
18.7155
18.8685
19.1117
19.4634
19.9512
20.6177
21.5351
22.8506
24.9572
18.6418
18.7155
18.8685
19.1117
19.4634
19.9512
20.6178
21.5351
22.8506
24.9573
18.6418
18.7156
18.8685
19.1118
19.4635
19.9513
20.6178
21.5352
22.8507
24.9574
46.66
46.954
48.7622
51.9082
56.394
62.3439
70.0137
79.8567
92.6979
110.197
46.6599
46.9539
48.7621
51.9081
56.3939
62.3438
70.0135
79.8566
92.6978
110.197
46.6599
46.9539
48.762
51.9081
56.3938
62.3437
70.0135
79.8565
92.6977
110.197
46.6598
46.9538
48.762
51.908
56.3938
62.3436
70.0134
79.8564
92.6976
110.197
46.6598
46.9538
48.762
51.908
56.3937
62.3436
70.0134
79.8564
92.6976
110.197
46.6598
46.9538
48.762
51.908
56.3937
62.3436
70.0134
79.8564
92.6976
110.197
46.6598
46.9538
48.762
51.908
56.3937
62.3436
70.0134
79.8564
92.6976
110.197
46.6598
46.9538
48.762
51.908
56.3938
62.3436
70.0134
79.8564
92.6976
110.197
46.6599
46.9539
48.7621
51.9081
56.3938
62.3437
70.0135
79.8565
92.6977
110.197
46.6599
46.9539
48.7621
51.9081
56.3939
62.3438
70.0136
79.8566
92.6978
110.197
45.0578
45.965
47.9909
51.1722
55.5668
61.2904
68.5322
77.5707
88.7667
102.411
45.0577
45.9649
47.9909
51.1721
55.5667
61.2903
68.5321
77.5706
88.7666
102.411
45.0577
45.9648
47.9908
51.172
55.5667
61.2902
68.532
77.5705
88.7665
102.411
45.0576
45.9648
47.9907
51.1719
55.5666
61.2902
68.532
77.5705
88.7664
102.411
45.0576
45.9648
47.9907
51.1719
55.5666
61.2901
68.532
77.5704
88.7664
102.411
45.0576
45.9647
47.9907
51.1719
55.5666
61.2901
68.5319
77.5704
88.7664
102.411
45.0576
45.9648
47.9907
51.1719
55.5666
61.2902
68.532
77.5704
88.7664
102.411
45.0577
45.9648
47.9908
51.172
55.5666
61.2902
68.532
77.5705
88.7664
102.411
45.0577
45.9648
47.9908
51.172
55.5667
61.2903
68.5321
77.5706
88.7665
102.411
45.0578
45.9649
47.9909
51.1721
55.5668
61.2903
68.5322
77.5707
88.7666
102.411
42.9864
44.3862
46.6327
49.827
54.048
59.3853
65.9462
73.8404
83.1156
93.5763
42.9863
44.3861
46.6326
49.8269
54.0479
59.3852
65.9461
73.8403
83.1155
93.5762
42.9862
44.3861
46.6326
49.8268
54.0479
59.3851
65.946
73.8402
83.1154
93.5761
42.9862
44.386
46.6325
49.8268
54.0478
59.3851
65.9459
73.8402
83.1154
93.5761
42.9862
44.386
46.6325
49.8267
54.0478
59.385
65.9459
73.8401
83.1154
93.5761
42.9862
44.386
46.6325
49.8267
54.0478
59.385
65.9459
73.8401
83.1154
93.5761
42.9862
44.386
46.6325
49.8267
54.0478
59.385
65.9459
73.8401
83.1154
93.5761
42.9862
44.386
46.6325
49.8268
54.0478
59.3851
65.946
73.8402
83.1154
93.5761
42.9862
44.3861
46.6326
49.8268
54.0479
59.3852
65.946
73.8403
83.1155
93.5762
42.9863
44.3862
46.6327
49.8269
54.048
59.3852
65.9461
73.8404
83.1156
93.5763
40.7599
42.4943
44.897
48.0599
52.0502
56.9229
62.7188
69.4428
77.0104
85.151
40.7598
42.4942
44.8969
48.0598
52.0501
56.9228
62.7187
69.4427
77.0103
85.1509
40.7598
42.4942
44.8968
48.0598
52.05
56.9227
62.7186
69.4426
77.0102
85.1508
40.7597
42.4941
44.8968
48.0597
52.05
56.9227
62.7186
69.4426
77.0102
85.1508
40.7597
42.4941
44.8967
48.0597
52.05
56.9226
62.7186
69.4426
77.0102
85.1507
40.7597
42.4941
44.8967
48.0597
52.05
56.9226
62.7186
69.4426
77.0102
85.1507
40.7597
42.4941
44.8967
48.0597
52.05
56.9226
62.7186
69.4426
77.0102
85.1507
40.7598
42.4941
44.8968
48.0597
52.05
56.9227
62.7186
69.4426
77.0102
85.1508
40.7598
42.4942
44.8968
48.0598
52.0501
56.9228
62.7187
69.4427
77.0103
85.1509
40.7599
42.4943
44.8969
48.0599
52.0502
56.9229
62.7188
69.4428
77.0104
85.151
38.5052
40.4705
42.9723
46.0706
49.8067
54.2028
59.2548
64.9154
71.0645
77.4739
38.5052
40.4705
42.9722
46.0705
49.8066
54.2027
59.2547
64.9153
71.0644
77.4738
38.5051
40.4704
42.9721
46.0705
49.8066
54.2026
59.2546
64.9152
71.0643
77.4737
38.5051
40.4704
42.9721
46.0704
49.8065
54.2026
59.2546
64.9151
71.0643
77.4736
38.505
40.4703
42.9721
46.0704
49.8065
54.2026
59.2546
64.9151
71.0643
77.4736
38.505
40.4703
42.9721
46.0704
49.8065
54.2026
59.2546
64.9151
71.0643
77.4736
38.5051
40.4704
42.9721
46.0704
49.8065
54.2026
59.2546
64.9151
71.0643
77.4736
38.5051
40.4704
42.9721
46.0704
49.8065
54.2026
59.2546
64.9152
71.0643
77.4737
38.5051
40.4704
42.9722
46.0705
49.8066
54.2027
59.2547
64.9152
71.0644
77.4738
38.5052
40.4705
42.9723
46.0706
49.8067
54.2028
59.2548
64.9153
71.0645
77.4739
36.2987
38.4477
41.0224
44.0479
47.5388
51.491
55.8723
60.6118
65.5901
70.6369
36.2986
38.4476
41.0224
44.0478
47.5387
51.4909
55.8722
60.6117
65.59
70.6368
36.2985
38.4476
41.0223
44.0477
47.5386
51.4909
55.8721
60.6116
65.5899
70.6367
36.2985
38.4475
41.0222
44.0477
47.5386
51.4908
55.8721
60.6115
65.5899
70.6367
36.2985
38.4475
41.0222
44.0477
47.5386
51.4908
55.8721
60.6115
65.5899
70.6366
36.2985
38.4475
41.0222
44.0477
47.5386
51.4908
55.8721
60.6115
65.5899
70.6366
36.2985
38.4475
41.0222
44.0477
47.5386
51.4908
55.8721
60.6115
65.5899
70.6367
36.2985
38.4476
41.0223
44.0477
47.5386
51.4909
55.8721
60.6116
65.5899
70.6367
36.2986
38.4476
41.0223
44.0478
47.5387
51.4909
55.8722
60.6117
65.59
70.6368
36.2987
38.4477
41.0224
44.0479
47.5388
51.491
55.8723
60.6118
65.5901
70.6369
34.1976
36.5354
39.1918
42.1625
45.4433
49.0125
52.8195
56.7795
60.7767
64.6828
34.1976
36.5354
39.1917
42.1624
45.4432
49.0124
52.8194
56.7794
60.7766
64.6827
34.1975
36.5353
39.1916
42.1623
45.4431
49.0123
52.8194
56.7794
60.7765
64.6826
34.1975
36.5353
39.1916
42.1623
45.4431
49.0123
52.8193
56.7793
60.7765
64.6826
34.1974
36.5352
39.1916
42.1622
45.4431
49.0123
52.8193
56.7793
60.7764
64.6825
34.1974
36.5352
39.1916
42.1622
45.4431
49.0123
52.8193
56.7793
60.7764
64.6825
34.1975
36.5353
39.1916
42.1623
45.4431
49.0123
52.8193
56.7793
60.7765
64.6826
34.1975
36.5353
39.1916
42.1623
45.4431
49.0123
52.8194
56.7794
60.7765
64.6826
34.1976
36.5354
39.1917
42.1624
45.4432
49.0124
52.8194
56.7795
60.7766
64.6827
34.1976
36.5354
39.1918
42.1625
45.4433
49.0125
52.8195
56.7796
60.7767
64.6828
32.2516
34.8377
37.6141
40.5673
43.6908
46.956
50.299
53.6175
56.7802
59.6625
32.2515
34.8376
37.614
40.5672
43.6907
46.9559
50.2989
53.6174
56.7801
59.6624
32.2515
34.8375
37.6139
40.5671
43.6906
46.9558
50.2988
53.6173
56.78
59.6624
32.2514
34.8375
37.6139
40.5671
43.6906
46.9558
50.2988
53.6173
56.7799
59.6623
32.2514
34.8375
37.6139
40.567
43.6906
46.9558
50.2987
53.6173
56.7799
59.6623
32.2514
34.8375
37.6139
40.567
43.6906
46.9558
50.2987
53.6173
56.7799
59.6623
32.2514
34.8375
37.6139
40.5671
43.6906
46.9558
50.2988
53.6173
56.7799
59.6623
32.2515
34.8375
37.6139
40.5671
43.6906
46.9558
50.2988
53.6173
56.78
59.6624
32.2515
34.8376
37.614
40.5672
43.6907
46.9559
50.2989
53.6174
56.7801
59.6624
32.2516
34.8377
37.6141
40.5673
43.6908
46.956
50.299
53.6175
56.7802
59.6626
30.5265
33.4779
36.4234
39.3994
42.4256
45.479
48.4854
51.3153
53.7855
55.6871
30.5264
33.4779
36.4234
39.3993
42.4256
45.479
48.4853
51.3152
53.7854
55.687
30.5264
33.4778
36.4233
39.3992
42.4255
45.4789
48.4852
51.3151
53.7854
55.687
30.5263
33.4778
36.4233
39.3992
42.4255
45.4788
48.4852
51.3151
53.7853
55.6869
30.5263
33.4778
36.4233
39.3992
42.4254
45.4788
48.4851
51.3151
53.7853
55.6869
30.5263
33.4778
36.4233
39.3992
42.4254
45.4788
48.4852
51.3151
53.7853
55.6869
30.5264
33.4778
36.4233
39.3992
42.4255
45.4789
48.4852
51.3151
53.7853
55.6869
30.5264
33.4778
36.4233
39.3992
42.4255
45.4789
48.4852
51.3152
53.7854
55.687
30.5264
33.4779
36.4234
39.3993
42.4256
45.479
48.4853
51.3152
53.7855
55.6871
30.5265
33.4779
36.4235
39.3994
42.4257
45.4791
48.4854
51.3153
53.7856
55.6872
29.219
32.6471
35.7629
38.7763
41.7603
44.7045
47.5283
50.0738
52.077
53.0864
29.219
32.647
35.7628
38.7762
41.7602
44.7045
47.5283
50.0738
52.077
53.0863
29.2189
32.647
35.7628
38.7762
41.7602
44.7044
47.5282
50.0737
52.0769
53.0863
29.2189
32.6469
35.7628
38.7762
41.7601
44.7044
47.5282
50.0737
52.0769
53.0862
29.2189
32.6469
35.7627
38.7761
41.7601
44.7043
47.5281
50.0737
52.0768
53.0862
29.2189
32.6469
35.7627
38.7761
41.7601
44.7043
47.5281
50.0737
52.0768
53.0862
29.2189
32.6469
35.7628
38.7762
41.7601
44.7044
47.5282
50.0737
52.0769
53.0862
29.2189
32.647
35.7628
38.7762
41.7602
44.7044
47.5282
50.0737
52.0769
53.0863
29.219
32.647
35.7629
38.7763
41.7602
44.7045
47.5283
50.0738
52.077
53.0864
29.2191
32.6471
35.763
38.7764
41.7603
44.7046
47.5284
50.0739
52.0771
53.0865
136.214
148.713
156.466
161.954
166.055
169.161
171.48
173.135
174.203
174.726
136.214
148.713
156.466
161.954
166.055
169.161
171.48
173.135
174.202
174.726
136.214
148.713
156.466
161.954
166.055
169.161
171.48
173.135
174.202
174.726
136.214
148.713
156.465
161.954
166.055
169.161
171.48
173.135
174.202
174.726
136.214
148.713
156.465
161.954
166.055
169.161
171.48
173.135
174.202
174.726
136.214
148.713
156.465
161.954
166.055
169.161
171.48
173.135
174.202
174.726
136.214
148.713
156.465
161.954
166.055
169.161
171.48
173.135
174.202
174.726
136.214
148.713
156.466
161.954
166.055
169.161
171.48
173.135
174.202
174.726
136.214
148.713
156.466
161.954
166.055
169.161
171.48
173.135
174.202
174.726
136.214
148.713
156.466
161.954
166.055
169.161
171.48
173.135
174.203
174.726
117.845
129.126
137.165
143.052
147.459
150.779
153.243
154.993
156.118
156.669
117.845
129.126
137.165
143.052
147.459
150.779
153.243
154.993
156.118
156.669
117.845
129.126
137.165
143.051
147.459
150.779
153.243
154.993
156.118
156.669
117.845
129.126
137.165
143.051
147.459
150.779
153.243
154.993
156.118
156.669
117.845
129.126
137.165
143.051
147.459
150.779
153.243
154.993
156.118
156.669
117.845
129.126
137.165
143.051
147.459
150.779
153.243
154.993
156.118
156.669
117.845
129.126
137.165
143.051
147.459
150.779
153.243
154.993
156.118
156.669
117.845
129.126
137.165
143.051
147.459
150.779
153.243
154.993
156.118
156.669
117.845
129.126
137.165
143.052
147.459
150.779
153.243
154.993
156.118
156.669
117.845
129.126
137.165
143.052
147.459
150.779
153.243
154.993
156.118
156.669
104.372
113.529
120.771
126.386
130.714
134.02
136.49
138.251
139.384
139.939
104.372
113.529
120.771
126.386
130.714
134.02
136.49
138.251
139.384
139.939
104.372
113.529
120.771
126.386
130.714
134.02
136.49
138.251
139.384
139.939
104.371
113.529
120.771
126.386
130.714
134.02
136.49
138.25
139.384
139.939
104.371
113.529
120.771
126.386
130.714
134.02
136.49
138.25
139.384
139.939
104.371
113.529
120.771
126.386
130.714
134.02
136.49
138.25
139.384
139.939
104.371
113.529
120.771
126.386
130.714
134.02
136.49
138.251
139.384
139.939
104.372
113.529
120.771
126.386
130.714
134.02
136.49
138.251
139.384
139.939
104.372
113.529
120.771
126.386
130.714
134.02
136.49
138.251
139.384
139.939
104.372
113.529
120.771
126.386
130.714
134.02
136.49
138.251
139.384
139.939
93.2907
100.609
106.772
111.784
115.772
118.882
121.236
122.928
124.022
124.56
93.2906
100.609
106.772
111.784
115.772
118.882
121.236
122.928
124.022
124.56
93.2905
100.608
106.772
111.784
115.772
118.882
121.236
122.928
124.022
124.56
93.2904
100.608
106.772
111.784
115.772
118.882
121.236
122.928
124.022
124.559
93.2904
100.608
106.772
111.784
115.772
118.882
121.236
122.928
124.022
124.559
93.2904
100.608
106.772
111.784
115.772
118.882
121.236
122.928
124.022
124.559
93.2904
100.608
106.772
111.784
115.772
118.882
121.236
122.928
124.022
124.559
93.2905
100.608
106.772
111.784
115.772
118.882
121.236
122.928
124.022
124.56
93.2906
100.609
106.772
111.784
115.772
118.882
121.236
122.928
124.022
124.56
93.2907
100.609
106.772
111.784
115.772
118.882
121.236
122.928
124.022
124.56
83.7906
89.6123
94.7019
98.9892
102.5
105.296
107.446
109.007
110.023
110.525
83.7905
89.6122
94.7018
98.9891
102.5
105.296
107.446
109.007
110.023
110.524
83.7904
89.6121
94.7017
98.989
102.5
105.296
107.446
109.007
110.023
110.524
83.7904
89.612
94.7016
98.989
102.5
105.296
107.446
109.007
110.023
110.524
83.7903
89.612
94.7016
98.989
102.5
105.296
107.445
109.007
110.023
110.524
83.7903
89.612
94.7016
98.989
102.5
105.296
107.445
109.007
110.023
110.524
83.7904
89.612
94.7016
98.989
102.5
105.296
107.446
109.007
110.023
110.524
83.7904
89.6121
94.7017
98.989
102.5
105.296
107.446
109.007
110.023
110.524
83.7905
89.6122
94.7018
98.9891
102.5
105.296
107.446
109.007
110.023
110.525
83.7906
89.6123
94.7019
98.9893
102.5
105.296
107.446
109.007
110.023
110.525
75.5461
80.1193
84.2145
87.7595
90.736
93.1568
95.0479
96.4375
97.3497
97.8015
75.546
80.1191
84.2143
87.7594
90.7359
93.1567
95.0478
96.4374
97.3496
97.8014
75.5459
80.1191
84.2143
87.7593
90.7358
93.1566
95.0477
96.4373
97.3495
97.8013
75.5459
80.119
84.2142
87.7593
90.7358
93.1565
95.0477
96.4373
97.3495
97.8013
75.5458
80.119
84.2142
87.7592
90.7357
93.1565
95.0477
96.4373
97.3495
97.8012
75.5459
80.119
84.2142
87.7592
90.7357
93.1565
95.0477
96.4373
97.3495
97.8013
75.5459
80.119
84.2142
87.7593
90.7358
93.1566
95.0477
96.4373
97.3495
97.8013
75.5459
80.1191
84.2143
87.7593
90.7358
93.1566
95.0478
96.4374
97.3496
97.8014
75.546
80.1192
84.2144
87.7594
90.7359
93.1567
95.0478
96.4375
97.3497
97.8014
75.5461
80.1193
84.2145
87.7595
90.736
93.1568
95.048
96.4376
97.3498
97.8016
68.3961
71.8734
75.0554
77.8842
80.3203
82.3447
83.9535
85.1508
85.9437
86.3384
68.396
71.8733
75.0553
77.8841
80.3202
82.3446
83.9534
85.1507
85.9436
86.3383
68.3959
71.8732
75.0552
77.884
80.3201
82.3445
83.9533
85.1506
85.9435
86.3382
68.3959
71.8731
75.0552
77.8839
80.32
82.3444
83.9532
85.1506
85.9435
86.3382
68.3958
71.8731
75.0551
77.8839
80.32
82.3444
83.9532
85.1506
85.9434
86.3382
68.3959
71.8731
75.0551
77.8839
80.32
82.3444
83.9532
85.1506
85.9434
86.3382
68.3959
71.8731
75.0552
77.884
80.32
82.3445
83.9533
85.1506
85.9435
86.3382
68.3959
71.8732
75.0552
77.884
80.3201
82.3445
83.9533
85.1507
85.9435
86.3383
68.396
71.8733
75.0553
77.8841
80.3202
82.3446
83.9534
85.1508
85.9436
86.3384
68.3961
71.8734
75.0554
77.8842
80.3203
82.3447
83.9535
85.1509
85.9438
86.3385
62.2356
64.6862
67.0215
69.1806
71.1012
72.7382
74.0646
75.0657
75.735
76.07