/*--------------------------------*- C++ -*----------------------------------*\
  =========                 |
  \\      /  F ield         | OpenFOAM: The Open Source CFD Toolbox
   \\    /   O peration     | Website:  https://openfoam.org
    \\  /    A nd           | Version:  6
     \\/     M anipulation  |
\*---------------------------------------------------------------------------*/
FoamFile
{
    version     2.0;
    format      ascii;
    class       volScalarField;
    location    "0.37";
    object      T;
}
// * * * * * * * * * * * * * * * * * * * * * * * * * * * * * * * * * * * * * //

dimensions      [0 0 0 1 0 0 0];

internalField   nonuniform List<scalar> 
7000
(
104.87
104.868
104.866
104.862
104.857
104.852
104.847
104.842
104.838
104.836
104.87
104.868
104.866
104.862
104.857
104.852
104.847
104.842
104.838
104.836
104.87
104.868
104.866
104.862
104.857
104.852
104.847
104.842
104.838
104.836
104.87
104.868
104.866
104.862
104.857
104.852
104.847
104.842
104.838
104.836
104.87
104.868
104.866
104.862
104.857
104.852
104.847
104.842
104.838
104.836
104.87
104.868
104.866
104.862
104.857
104.852
104.847
104.842
104.838
104.836
104.87
104.868
104.866
104.862
104.857
104.852
104.847
104.842
104.838
104.836
104.87
104.868
104.866
104.862
104.857
104.852
104.847
104.842
104.838
104.836
104.87
104.868
104.866
104.862
104.857
104.852
104.847
104.842
104.838
104.836
104.87
104.868
104.866
104.862
104.857
104.852
104.847
104.842
104.838
104.836
94.678
94.6738
94.6655
94.6536
94.6388
94.6221
94.6051
94.5897
94.5779
94.5715
94.678
94.6737
94.6655
94.6536
94.6387
94.6221
94.6051
94.5897
94.5779
94.5714
94.6779
94.6737
94.6654
94.6535
94.6387
94.622
94.6051
94.5896
94.5778
94.5714
94.6779
94.6737
94.6654
94.6535
94.6387
94.622
94.605
94.5896
94.5778
94.5714
94.6779
94.6737
94.6654
94.6535
94.6387
94.622
94.605
94.5896
94.5778
94.5714
94.6779
94.6737
94.6654
94.6535
94.6387
94.622
94.605
94.5896
94.5778
94.5714
94.6779
94.6737
94.6654
94.6535
94.6387
94.622
94.605
94.5896
94.5778
94.5714
94.6779
94.6737
94.6654
94.6535
94.6387
94.622
94.605
94.5896
94.5778
94.5714
94.6779
94.6737
94.6654
94.6535
94.6387
94.622
94.6051
94.5897
94.5778
94.5714
94.678
94.6737
94.6655
94.6536
94.6387
94.6221
94.6051
94.5897
94.5779
94.5715
84.6894
84.6818
84.6671
84.6458
84.619
84.5886
84.5573
84.5286
84.5064
84.4942
84.6893
84.6818
84.6671
84.6457
84.619
84.5886
84.5573
84.5285
84.5063
84.4941
84.6893
84.6817
84.667
84.6457
84.6189
84.5885
84.5572
84.5285
84.5063
84.4941
84.6892
84.6817
84.667
84.6457
84.6189
84.5885
84.5572
84.5285
84.5063
84.4941
84.6892
84.6817
84.667
84.6457
84.6189
84.5885
84.5572
84.5285
84.5062
84.4941
84.6892
84.6817
84.667
84.6457
84.6189
84.5885
84.5572
84.5285
84.5062
84.4941
84.6892
84.6817
84.667
84.6457
84.6189
84.5885
84.5572
84.5285
84.5063
84.4941
84.6892
84.6817
84.667
84.6457
84.6189
84.5885
84.5572
84.5285
84.5063
84.4941
84.6893
84.6817
84.667
84.6457
84.6189
84.5886
84.5573
84.5285
84.5063
84.4941
84.6893
84.6818
84.6671
84.6457
84.619
84.5886
84.5573
84.5286
84.5064
84.4942
75.0305
75.019
74.9964
74.9635
74.9216
74.8733
74.8228
74.7756
74.7384
74.7178
75.0304
75.019
74.9964
74.9634
74.9215
74.8733
74.8227
74.7755
74.7384
74.7178
75.0304
75.0189
74.9963
74.9634
74.9215
74.8732
74.8227
74.7755
74.7383
74.7177
75.0303
75.0189
74.9963
74.9633
74.9214
74.8732
74.8227
74.7755
74.7383
74.7177
75.0303
75.0189
74.9963
74.9633
74.9214
74.8732
74.8226
74.7754
74.7383
74.7177
75.0303
75.0188
74.9963
74.9633
74.9214
74.8732
74.8226
74.7754
74.7383
74.7177
75.0303
75.0189
74.9963
74.9633
74.9214
74.8732
74.8227
74.7755
74.7383
74.7177
75.0304
75.0189
74.9963
74.9633
74.9215
74.8732
74.8227
74.7755
74.7383
74.7177
75.0304
75.0189
74.9963
74.9634
74.9215
74.8733
74.8227
74.7755
74.7384
74.7178
75.0304
75.019
74.9964
74.9634
74.9216
74.8733
74.8228
74.7756
74.7384
74.7178
65.8155
65.7992
65.7669
65.7192
65.6577
65.5854
65.5079
65.4336
65.3737
65.3397
65.8154
65.7991
65.7668
65.7192
65.6576
65.5853
65.5078
65.4335
65.3736
65.3396
65.8154
65.7991
65.7668
65.7191
65.6575
65.5853
65.5078
65.4335
65.3735
65.3396
65.8153
65.799
65.7667
65.719
65.6575
65.5852
65.5077
65.4334
65.3735
65.3395
65.8153
65.799
65.7667
65.719
65.6575
65.5852
65.5077
65.4334
65.3735
65.3395
65.8153
65.799
65.7667
65.719
65.6575
65.5852
65.5077
65.4334
65.3735
65.3395
65.8153
65.799
65.7667
65.719
65.6575
65.5852
65.5077
65.4334
65.3735
65.3396
65.8153
65.799
65.7667
65.7191
65.6575
65.5853
65.5077
65.4335
65.3735
65.3396
65.8154
65.7991
65.7668
65.7191
65.6576
65.5853
65.5078
65.4335
65.3736
65.3396
65.8154
65.7991
65.7669
65.7192
65.6577
65.5854
65.5079
65.4336
65.3737
65.3397
57.1421
57.12
57.0758
57.0097
56.9227
56.818
56.7021
56.587
56.4906
56.4342
57.142
57.1199
57.0757
57.0096
56.9227
56.8179
56.702
56.587
56.4906
56.4341
57.1419
57.1198
57.0757
57.0096
56.9226
56.8178
56.7019
56.5869
56.4905
56.4341
57.1419
57.1198
57.0756
57.0095
56.9225
56.8178
56.7019
56.5869
56.4905
56.434
57.1418
57.1198
57.0756
57.0095
56.9225
56.8177
56.7019
56.5868
56.4905
56.434
57.1418
57.1198
57.0756
57.0095
56.9225
56.8177
56.7019
56.5868
56.4905
56.434
57.1418
57.1198
57.0756
57.0095
56.9225
56.8178
56.7019
56.5869
56.4905
56.434
57.1419
57.1198
57.0757
57.0096
56.9226
56.8178
56.7019
56.5869
56.4905
56.4341
57.1419
57.1199
57.0757
57.0096
56.9226
56.8179
56.702
56.587
56.4906
56.4342
57.142
57.1199
57.0758
57.0097
56.9227
56.8179
56.7021
56.5871
56.4907
56.4342
49.0888
49.0601
49.002
48.9136
48.7946
48.6467
48.4767
48.2995
48.1427
48.0456
49.0888
49.06
49.0019
48.9135
48.7945
48.6466
48.4766
48.2994
48.1426
48.0456
49.0887
49.0599
49.0018
48.9134
48.7944
48.6466
48.4765
48.2994
48.1425
48.0455
49.0886
49.0598
49.0017
48.9134
48.7944
48.6465
48.4765
48.2993
48.1425
48.0455
49.0886
49.0598
49.0017
48.9133
48.7943
48.6465
48.4765
48.2993
48.1425
48.0455
49.0886
49.0598
49.0017
48.9133
48.7943
48.6465
48.4765
48.2993
48.1425
48.0455
49.0886
49.0598
49.0017
48.9134
48.7944
48.6465
48.4765
48.2993
48.1425
48.0455
49.0886
49.0599
49.0018
48.9134
48.7944
48.6466
48.4765
48.2994
48.1425
48.0455
49.0887
49.0599
49.0018
48.9135
48.7945
48.6466
48.4766
48.2995
48.1426
48.0456
49.0888
49.06
49.0019
48.9136
48.7946
48.6467
48.4767
48.2995
48.1427
48.0457
41.7137
41.6776
41.6041
41.4903
41.3331
41.1308
40.8864
40.615
40.3545
40.1776
41.7136
41.6775
41.604
41.4902
41.333
41.1307
40.8863
40.6149
40.3544
40.1776
41.7135
41.6775
41.6039
41.4901
41.3329
41.1306
40.8863
40.6149
40.3543
40.1775
41.7135
41.6774
41.6039
41.4901
41.3329
41.1305
40.8862
40.6148
40.3543
40.1775
41.7135
41.6774
41.6038
41.4901
41.3329
41.1305
40.8862
40.6148
40.3543
40.1775
41.7135
41.6774
41.6038
41.4901
41.3329
41.1305
40.8862
40.6148
40.3543
40.1775
41.7135
41.6774
41.6039
41.4901
41.3329
41.1306
40.8862
40.6148
40.3543
40.1775
41.7135
41.6775
41.6039
41.4901
41.3329
41.1306
40.8863
40.6149
40.3544
40.1775
41.7136
41.6775
41.604
41.4902
41.333
41.1307
40.8864
40.615
40.3544
40.1776
41.7136
41.6776
41.6041
41.4903
41.3331
41.1308
40.8864
40.6151
40.3545
40.1777
35.0532
35.0099
34.9208
34.7805
34.5817
34.3156
33.9757
33.5662
33.1242
32.7714
35.0531
35.0098
34.9207
34.7804
34.5816
34.3155
33.9756
33.5661
33.1241
32.7713
35.053
35.0097
34.9206
34.7803
34.5815
34.3154
33.9756
33.566
33.124
32.7713
35.053
35.0097
34.9206
34.7803
34.5814
34.3154
33.9755
33.566
33.124
32.7712
35.0529
35.0097
34.9205
34.7803
34.5814
34.3154
33.9755
33.566
33.124
32.7712
35.0529
35.0097
34.9205
34.7803
34.5814
34.3154
33.9755
33.566
33.124
32.7712
35.053
35.0097
34.9206
34.7803
34.5814
34.3154
33.9755
33.566
33.124
32.7713
35.053
35.0097
34.9206
34.7804
34.5815
34.3154
33.9756
33.566
33.1241
32.7713
35.0531
35.0098
34.9207
34.7804
34.5816
34.3155
33.9757
33.5661
33.1241
32.7714
35.0531
35.0099
34.9208
34.7805
34.5817
34.3156
33.9758
33.5662
33.1242
32.7715
29.1228
29.0733
28.9705
28.8064
28.5683
28.238
27.7908
27.1982
26.4465
25.65
29.1227
29.0732
28.9704
28.8063
28.5682
28.2379
27.7908
27.1982
26.4464
25.6499
29.1227
29.0731
28.9704
28.8063
28.5682
28.2378
27.7907
27.1981
26.4464
25.6499
29.1226
29.0731
28.9703
28.8062
28.5681
28.2378
27.7907
27.1981
26.4464
25.6498
29.1226
29.0731
28.9703
28.8062
28.5681
28.2377
27.7906
27.198
26.4463
25.6498
29.1226
29.0731
28.9703
28.8062
28.5681
28.2377
27.7906
27.198
26.4463
25.6498
29.1226
29.0731
28.9703
28.8062
28.5681
28.2378
27.7907
27.1981
26.4464
25.6498
29.1227
29.0731
28.9704
28.8063
28.5682
28.2378
27.7907
27.1981
26.4464
25.6499
29.1227
29.0732
28.9704
28.8064
28.5683
28.2379
27.7908
27.1982
26.4465
25.65
29.1228
29.0733
28.9705
28.8065
28.5684
28.238
27.7909
27.1983
26.4466
25.6501
23.9181
23.8644
23.7523
23.5716
23.3056
22.9273
22.3927
21.6214
20.4369
18.3483
23.918
23.8643
23.7522
23.5715
23.3055
22.9272
22.3926
21.6213
20.4368
18.3483
23.918
23.8642
23.7521
23.5715
23.3054
22.9271
22.3925
21.6212
20.4368
18.3482
23.9179
23.8642
23.7521
23.5714
23.3054
22.9271
22.3925
21.6212
20.4367
18.3482
23.9179
23.8642
23.752
23.5714
23.3054
22.9271
22.3925
21.6212
20.4367
18.3482
23.9179
23.8642
23.752
23.5714
23.3054
22.9271
22.3925
21.6212
20.4367
18.3482
23.9179
23.8642
23.7521
23.5714
23.3054
22.9271
22.3925
21.6212
20.4368
18.3482
23.918
23.8642
23.7521
23.5715
23.3055
22.9272
22.3926
21.6213
20.4368
18.3482
23.918
23.8643
23.7522
23.5716
23.3055
22.9272
22.3926
21.6213
20.4369
18.3483
23.9181
23.8644
23.7523
23.5717
23.3056
22.9273
22.3927
21.6214
20.437
18.3484
19.4164
19.3612
19.2459
19.0599
18.7853
18.3943
17.8428
17.0587
15.9214
14.2455
19.4163
19.3611
19.2458
19.0598
18.7853
18.3943
17.8427
17.0586
15.9213
14.2455
19.4162
19.361
19.2458
19.0597
18.7852
18.3942
17.8427
17.0585
15.9212
14.2454
19.4162
19.361
19.2457
19.0597
18.7852
18.3942
17.8426
17.0585
15.9212
14.2454
19.4162
19.361
19.2457
19.0597
18.7851
18.3942
17.8426
17.0585
15.9212
14.2454
19.4162
19.361
19.2457
19.0597
18.7852
18.3942
17.8426
17.0585
15.9212
14.2454
19.4162
19.361
19.2457
19.0597
18.7852
18.3942
17.8426
17.0585
15.9212
14.2454
19.4162
19.361
19.2458
19.0598
18.7852
18.3942
17.8427
17.0586
15.9213
14.2454
19.4163
19.3611
19.2458
19.0598
18.7853
18.3943
17.8428
17.0586
15.9213
14.2455
19.4164
19.3612
19.2459
19.0599
18.7854
18.3944
17.8429
17.0587
15.9214
14.2456
15.5792
15.5255
15.4137
15.2342
14.9715
14.603
14.0967
13.41
12.4948
11.3289
15.5791
15.5254
15.4136
15.2341
14.9714
14.6029
14.0966
13.4099
12.4947
11.3289
15.579
15.5254
15.4136
15.234
14.9714
14.6029
14.0965
13.4098
12.4947
11.3288
15.579
15.5253
15.4135
15.234
14.9714
14.6028
14.0965
13.4098
12.4946
11.3288
15.579
15.5253
15.4135
15.234
14.9713
14.6028
14.0965
13.4098
12.4946
11.3288
15.579
15.5253
15.4135
15.234
14.9713
14.6028
14.0965
13.4098
12.4946
11.3288
15.579
15.5253
15.4135
15.234
14.9714
14.6029
14.0965
13.4098
12.4946
11.3288
15.579
15.5254
15.4136
15.2341
14.9714
14.6029
14.0966
13.4099
12.4947
11.3288
15.5791
15.5254
15.4136
15.2341
14.9715
14.603
14.0966
13.4099
12.4947
11.3289
15.5791
15.5255
15.4137
15.2342
14.9716
14.6031
14.0967
13.41
12.4948
11.329
12.3556
12.306
12.2033
12.04
11.8047
11.4822
11.0545
10.5042
9.82538
9.04839
12.3555
12.3059
12.2032
12.0399
11.8046
11.4822
11.0544
10.5041
9.82531
9.04833
12.3554
12.3059
12.2032
12.0399
11.8046
11.4821
11.0544
10.5041
9.82527
9.04828
12.3554
12.3059
12.2032
12.0399
11.8046
11.4821
11.0543
10.5041
9.82524
9.04825
12.3554
12.3058
12.2032
12.0398
11.8046
11.4821
11.0543
10.5041
9.82523
9.04824
12.3554
12.3058
12.2032
12.0399
11.8046
11.4821
11.0543
10.5041
9.82523
9.04825
12.3554
12.3059
12.2032
12.0399
11.8046
11.4821
11.0544
10.5041
9.82526
9.04827
12.3555
12.3059
12.2032
12.0399
11.8046
11.4821
11.0544
10.5041
9.8253
9.04831
12.3555
12.306
12.2033
12.04
11.8047
11.4822
11.0545
10.5042
9.82535
9.04836
12.3556
12.306
12.2034
12.0401
11.8048
11.4823
11.0545
10.5043
9.82543
9.04843
9.68603
9.6424
9.55262
9.41161
9.21223
8.94629
8.60662
8.19158
7.71345
7.21204
9.68596
9.64234
9.55256
9.41155
9.21218
8.94623
8.60657
8.19152
7.71339
7.21198
9.68592
9.6423
9.55252
9.41151
9.21213
8.94619
8.60652
8.19148
7.71335
7.21194
9.68589
9.64227
9.55249
9.41148
9.21211
8.94617
8.6065
8.19146
7.71333
7.21191
9.68588
9.64226
9.55248
9.41147
9.2121
8.94616
8.60649
8.19145
7.71332
7.2119
9.68588
9.64226
9.55248
9.41147
9.2121
8.94616
8.6065
8.19146
7.71332
7.21191
9.6859
9.64228
9.5525
9.41149
9.21212
8.94618
8.60652
8.19148
7.71334
7.21193
9.68593
9.64231
9.55254
9.41153
9.21216
8.94622
8.60655
8.19151
7.71338
7.21196
9.68598
9.64236
9.55259
9.41158
9.21221
8.94627
8.60661
8.19156
7.71343
7.21201
9.68603
9.64243
9.55266
9.41165
9.21228
8.94634
8.60667
8.19163
7.7135
7.21208
7.50623
7.46945
7.39437
7.2781
7.11711
6.90854
6.65243
6.35534
6.0356
5.72927
7.50618
7.4694
7.39432
7.27805
7.11706
6.90849
6.65238
6.35529
6.03555
5.72922
7.50614
7.46936
7.39429
7.27801
7.11703
6.90846
6.65234
6.35526
6.03552
5.72919
7.50611
7.46934
7.39426
7.27799
7.11701
6.90844
6.65232
6.35523
6.03549
5.72916
7.5061
7.46933
7.39425
7.27798
7.117
6.90843
6.65232
6.35523
6.03549
5.72915
7.50611
7.46933
7.39426
7.27799
7.117
6.90843
6.65232
6.35523
6.03549
5.72916
7.50612
7.46935
7.39427
7.27801
7.11702
6.90845
6.65234
6.35525
6.03551
5.72918
7.50615
7.46938
7.39431
7.27804
7.11705
6.90849
6.65237
6.35528
6.03554
5.72921
7.50619
7.46942
7.39435
7.27808
7.1171
6.90853
6.65242
6.35533
6.03559
5.72925
7.50624
7.46948
7.39441
7.27815
7.11716
6.90859
6.65248
6.35539
6.03564
5.72931
5.7507
5.72089
5.66059
5.56863
5.44416
5.28798
5.10448
4.90426
4.70706
4.54332
5.75065
5.72085
5.66055
5.56858
5.44412
5.28794
5.10443
4.90422
4.70702
4.54328
5.75062
5.72082
5.66052
5.56855
5.44409
5.28791
5.10441
4.90419
4.70699
4.54325
5.7506
5.7208
5.6605
5.56853
5.44407
5.28789
5.10439
4.90417
4.70697
4.54323
5.75059
5.72079
5.66049
5.56853
5.44406
5.28789
5.10438
4.90416
4.70697
4.54322
5.75059
5.72079
5.6605
5.56853
5.44407
5.28789
5.10439
4.90417
4.70697
4.54322
5.75061
5.72081
5.66051
5.56855
5.44408
5.28791
5.1044
4.90418
4.70699
4.54324
5.75063
5.72083
5.66054
5.56857
5.44411
5.28794
5.10443
4.90421
4.70701
4.54327
5.75067
5.72087
5.66058
5.56862
5.44415
5.28798
5.10447
4.90425
4.70705
4.54331
5.75071
5.72092
5.66063
5.56867
5.4442
5.28803
5.10452
4.9043
4.70711
4.54336
4.3558
4.33251
4.28583
4.2158
4.12339
4.01167
3.88754
3.7639
3.66168
3.60942
4.35577
4.33247
4.28579
4.21577
4.12336
4.01164
3.8875
3.76387
3.66164
3.60939
4.35574
4.33245
4.28577
4.21574
4.12333
4.01161
3.88748
3.76384
3.66162
3.60936
4.35572
4.33243
4.28575
4.21573
4.12332
4.0116
3.88746
3.76383
3.6616
3.60934
4.35572
4.33243
4.28574
4.21572
4.12331
4.01159
3.88746
3.76382
3.6616
3.60934
4.35572
4.33243
4.28575
4.21572
4.12332
4.0116
3.88746
3.76383
3.6616
3.60934
4.35573
4.33244
4.28576
4.21574
4.12333
4.01161
3.88748
3.76384
3.66161
3.60935
4.35575
4.33246
4.28579
4.21576
4.12336
4.01164
3.8875
3.76386
3.66164
3.60938
4.35578
4.3325
4.28582
4.2158
4.12339
4.01167
3.88754
3.7639
3.66167
3.60941
4.35582
4.33254
4.28586
4.21584
4.12344
4.01171
3.88758
3.76394
3.66172
3.60946
3.26202
3.24441
3.20945
3.15793
3.09182
3.01535
2.93663
2.87006
2.83965
2.88216
3.26199
3.24438
3.20942
3.1579
3.0918
3.01532
2.9366
2.87003
2.83962
2.88212
3.26197
3.24436
3.2094
3.15788
3.09177
3.0153
2.93658
2.87001
2.8396
2.8821
3.26196
3.24434
3.20939
3.15787
3.09176
3.01529
2.93657
2.87
2.83959
2.88209
3.26195
3.24434
3.20938
3.15787
3.09176
3.01529
2.93657
2.86999
2.83958
2.88208
3.26196
3.24434
3.20939
3.15787
3.09176
3.01529
2.93657
2.87
2.83959
2.88209
3.26197
3.24435
3.2094
3.15788
3.09177
3.0153
2.93658
2.87001
2.8396
2.8821
3.26199
3.24437
3.20942
3.1579
3.09179
3.01532
2.9366
2.87003
2.83962
2.88212
3.26201
3.2444
3.20944
3.15793
3.09182
3.01535
2.93663
2.87006
2.83965
2.88215
3.26204
3.24443
3.20948
3.15797
3.09186
3.01539
2.93667
2.8701
2.83969
2.88219
2.41544
2.40249
2.37706
2.34025
2.29434
2.24369
2.19611
2.1654
2.1775
2.29035
2.41541
2.40247
2.37704
2.34022
2.29432
2.24367
2.19608
2.16538
2.17748
2.29032
2.41539
2.40245
2.37702
2.34021
2.2943
2.24365
2.19607
2.16536
2.17746
2.2903
2.41538
2.40244
2.37701
2.3402
2.29429
2.24364
2.19606
2.16535
2.17745
2.29029
2.41538
2.40244
2.37701
2.34019
2.29429
2.24364
2.19606
2.16535
2.17745
2.29029
2.41538
2.40244
2.37701
2.3402
2.29429
2.24364
2.19606
2.16535
2.17745
2.29029
2.41539
2.40245
2.37702
2.34021
2.2943
2.24365
2.19607
2.16536
2.17746
2.2903
2.41541
2.40246
2.37704
2.34022
2.29432
2.24367
2.19609
2.16538
2.17748
2.29032
2.41543
2.40249
2.37706
2.34025
2.29434
2.2437
2.19611
2.1654
2.1775
2.29035
2.41545
2.40251
2.37709
2.34028
2.29437
2.24373
2.19614
2.16543
2.17753
2.29038
13.638
11.1972
10.1908
10.3279
11.5593
13.9897
17.8741
23.674
32.2187
45.1353
13.6379
11.1971
10.1907
10.3278
11.5592
13.9896
17.8739
23.6738
32.2185
45.1351
13.6378
11.1971
10.1906
10.3278
11.5591
13.9895
17.8738
23.6737
32.2183
45.1349
13.6378
11.197
10.1906
10.3277
11.559
13.9894
17.8737
23.6736
32.2182
45.1348
13.6378
11.197
10.1906
10.3277
11.559
13.9894
17.8737
23.6736
32.2182
45.1348
13.6378
11.197
10.1906
10.3277
11.559
13.9894
17.8737
23.6736
32.2182
45.1347
13.6378
11.197
10.1906
10.3277
11.559
13.9894
17.8737
23.6736
32.2182
45.1348
13.6379
11.1971
10.1906
10.3277
11.559
13.9894
17.8738
23.6736
32.2183
45.1349
13.6379
11.1971
10.1907
10.3278
11.5591
13.9895
17.8738
23.6737
32.2184
45.135
13.638
11.1972
10.1907
10.3279
11.5592
13.9896
17.8739
23.6738
32.2185
45.1352
11.9246
10.3215
9.62998
9.86335
11.061
13.334
16.8824
22.0099
29.1196
38.5809
11.9246
10.3214
9.6299
9.86325
11.0609
13.3339
16.8823
22.0097
29.1194
38.5806
11.9245
10.3213
9.62983
9.86319
11.0608
13.3338
16.8822
22.0096
29.1193
38.5805
11.9245
10.3213
9.62979
9.86314
11.0607
13.3337
16.8821
22.0095
29.1192
38.5804
11.9245
10.3213
9.62977
9.86312
11.0607
13.3337
16.8821
22.0094
29.1191
38.5803
11.9245
10.3213
9.62977
9.86311
11.0607
13.3337
16.8821
22.0094
29.1191
38.5803
11.9245
10.3213
9.62979
9.86313
11.0607
13.3337
16.8821
22.0095
29.1192
38.5804
11.9245
10.3213
9.62983
9.86317
11.0608
13.3338
16.8821
22.0095
29.1193
38.5805
11.9246
10.3214
9.62989
9.86323
11.0608
13.3338
16.8822
22.0096
29.1194
38.5806
11.9247
10.3215
9.62996
9.86331
11.0609
13.3339
16.8823
22.0098
29.1195
38.5808
10.0283
9.07629
8.7125
9.04932
10.1715
12.1809
15.2096
19.408
24.8882
31.5576
10.0282
9.07622
8.71242
9.04923
10.1714
12.1808
15.2094
19.4079
24.888
31.5574
10.0281
9.07617
8.71236
9.04916
10.1714
12.1807
15.2093
19.4077
24.8879
31.5572
10.0281
9.07613
8.71232
9.04912
10.1713
12.1807
15.2093
19.4077
24.8878
31.5571
10.0281
9.07611
8.7123
9.0491
10.1713
12.1807
15.2092
19.4076
24.8877
31.5571
10.0281
9.07612
8.7123
9.0491
10.1713
12.1807
15.2092
19.4076
24.8877
31.5571
10.0281
9.07614
8.71232
9.04912
10.1713
12.1807
15.2093
19.4077
24.8878
31.5571
10.0281
9.07618
8.71236
9.04916
10.1714
12.1807
15.2093
19.4077
24.8878
31.5572
10.0282
9.07623
8.71242
9.04922
10.1714
12.1808
15.2094
19.4078
24.888
31.5574
10.0283
9.07631
8.7125
9.0493
10.1715
12.1809
15.2095
19.408
24.8881
31.5575
8.28508
7.75693
7.63583
8.03698
9.04797
10.7492
13.2172
16.5064
20.601
25.3226
8.28501
7.75686
7.63576
8.0369
9.04788
10.7491
13.217
16.5063
20.6008
25.3224
8.28496
7.75681
7.6357
8.03684
9.04781
10.749
13.217
16.5062
20.6007
25.3223
8.28493
7.75678
7.63567
8.0368
9.04777
10.749
13.2169
16.5061
20.6006
25.3222
8.28492
7.75676
7.63565
8.03678
9.04774
10.7489
13.2169
16.5061
20.6006
25.3222
8.28492
7.75677
7.63565
8.03678
9.04774
10.7489
13.2169
16.5061
20.6006
25.3222
8.28494
7.75679
7.63567
8.0368
9.04776
10.749
13.2169
16.5061
20.6006
25.3222
8.28498
7.75682
7.63571
8.03684
9.04781
10.749
13.2169
16.5062
20.6007
25.3223
8.28503
7.75688
7.63577
8.0369
9.04787
10.7491
13.217
16.5063
20.6008
25.3224
8.28511
7.75695
7.63584
8.03698
9.04796
10.7492
13.2171
16.5064
20.601
25.3226
6.7696
6.50846
6.54313
6.96491
7.84548
9.24159
11.1921
13.7031
16.7192
20.0852
6.76954
6.5084
6.54306
6.96483
7.8454
9.24149
11.192
13.7029
16.719
20.0851
6.7695
6.50835
6.54301
6.96478
7.84533
9.24142
11.1919
13.7029
16.7189
20.085
6.76947
6.50832
6.54298
6.96474
7.84529
9.24138
11.1918
13.7028
16.7188
20.0849
6.76946
6.50831
6.54297
6.96473
7.84527
9.24135
11.1918
13.7028
16.7188
20.0849
6.76946
6.50831
6.54297
6.96473
7.84527
9.24135
11.1918
13.7028
16.7188
20.0849
6.76948
6.50833
6.54299
6.96475
7.84529
9.24138
11.1918
13.7028
16.7189
20.0849
6.76951
6.50837
6.54302
6.96478
7.84534
9.24142
11.1919
13.7029
16.7189
20.085
6.76956
6.50842
6.54308
6.96484
7.8454
9.24149
11.192
13.7029
16.719
20.0851
6.76963
6.50848
6.54315
6.96492
7.84548
9.24159
11.1921
13.7031
16.7192
20.0853
5.49361
5.40212
5.52964
5.94188
6.6912
7.81417
9.3264
11.2127
13.4136
15.8138
5.49356
5.40206
5.52958
5.94181
6.69112
7.81408
9.3263
11.2126
13.4134
15.8137
5.49352
5.40202
5.52953
5.94176
6.69107
7.81402
9.32623
11.2125
13.4134
15.8136
5.4935
5.40199
5.52951
5.94173
6.69103
7.81398
9.32619
11.2125
13.4133
15.8135
5.49349
5.40198
5.52949
5.94171
6.69101
7.81396
9.32616
11.2125
13.4133
15.8135
5.49349
5.40199
5.5295
5.94171
6.69102
7.81396
9.32617
11.2125
13.4133
15.8135
5.49351
5.402
5.52951
5.94173
6.69104
7.81399
9.32619
11.2125
13.4133
15.8135
5.49354
5.40204
5.52955
5.94177
6.69108
7.81403
9.32624
11.2125
13.4134
15.8136
5.49358
5.40208
5.5296
5.94182
6.69113
7.81409
9.32631
11.2126
13.4135
15.8137
5.49364
5.40214
5.52966
5.94189
6.69121
7.81418
9.32641
11.2127
13.4136
15.8139
4.45191
4.47403
4.65694
5.04622
5.6783
6.57484
7.73733
9.14114
10.731
12.4232
4.45187
4.47398
4.65688
5.04615
5.67823
6.57477
7.73724
9.14105
10.7309
12.4231
4.45183
4.47394
4.65684
5.04611
5.67818
6.57471
7.73718
9.14098
10.7309
12.423
4.45181
4.47392
4.65681
5.04608
5.67815
6.57468
7.73714
9.14093
10.7308
12.4229
4.4518
4.47391
4.6568
5.04607
5.67813
6.57466
7.73712
9.14091
10.7308
12.4229
4.45181
4.47391
4.65681
5.04607
5.67814
6.57466
7.73712
9.14092
10.7308
12.4229
4.45182
4.47393
4.65682
5.04609
5.67816
6.57468
7.73715
9.14094
10.7308
12.4229
4.45185
4.47396
4.65685
5.04612
5.67819
6.57472
7.73719
9.141
10.7309
12.423
4.45189
4.474
4.6569
5.04617
5.67825
6.57478
7.73726
9.14107
10.731
12.4231
4.45194
4.47406
4.65696
5.04623
5.67832
6.57486
7.73735
9.14117
10.7311
12.4232
3.63498
3.74411
3.96505
4.33165
4.87057
5.59382
6.4937
7.53883
8.67367
9.82757
3.63494
3.74407
3.965
4.3316
4.8705
5.59375
6.49362
7.53874
8.67358
9.82748
3.63491
3.74404
3.96496
4.33156
4.87046
5.5937
6.49357
7.53868
8.67351
9.82741
3.63489
3.74402
3.96494
4.33153
4.87043
5.59367
6.49353
7.53864
8.67347
9.82736
3.63488
3.74401
3.96493
4.33152
4.87042
5.59366
6.49352
7.53863
8.67345
9.82734
3.63489
3.74401
3.96493
4.33152
4.87042
5.59366
6.49352
7.53863
8.67346
9.82735
3.6349
3.74403
3.96495
4.33154
4.87044
5.59368
6.49354
7.53866
8.67348
9.82738
3.63493
3.74405
3.96498
4.33157
4.87047
5.59372
6.49359
7.5387
8.67354
9.82744
3.63496
3.74409
3.96502
4.33162
4.87052
5.59378
6.49365
7.53877
8.67361
9.82752
3.63501
3.74414
3.96508
4.33168
4.87059
5.59385
6.49373
7.53886
8.67371
9.82763
3.03684
3.2281
3.48206
3.83446
4.30999
4.91592
5.63801
6.43648
7.24354
7.96973
3.03681
3.22806
3.48201
3.83441
4.30994
4.91586
5.63794
6.4364
7.24346
7.96964
3.03678
3.22803
3.48198
3.83438
4.3099
4.91582
5.63789
6.43635
7.2434
7.96959
3.03677
3.22801
3.48196
3.83436
4.30987
4.91579
5.63786
6.43632
7.24337
7.96955
3.03676
3.22801
3.48195
3.83435
4.30986
4.91578
5.63785
6.4363
7.24335
7.96953
3.03676
3.22801
3.48196
3.83435
4.30987
4.91578
5.63785
6.43631
7.24336
7.96954
3.03678
3.22802
3.48197
3.83437
4.30989
4.9158
5.63787
6.43633
7.24339
7.96957
3.0368
3.22805
3.482
3.8344
4.30992
4.91584
5.63791
6.43638
7.24343
7.96962
3.03683
3.22808
3.48204
3.83444
4.30997
4.91589
5.63797
6.43644
7.2435
7.96969
3.03688
3.22813
3.48209
3.83449
4.31003
4.91596
5.63805
6.43652
7.24359
7.96979
2.6748
2.94953
3.23107
3.57896
4.02299
4.56949
5.20024
5.8669
6.47919
6.87697
2.67477
2.9495
3.23103
3.57893
4.02295
4.56944
5.20019
5.86685
6.47913
6.8769
2.67475
2.94948
3.231
3.5789
4.02292
4.5694
5.20015
5.8668
6.47909
6.87685
2.67474
2.94946
3.23099
3.57888
4.02289
4.56938
5.20012
5.86677
6.47905
6.87682
2.67473
2.94946
3.23098
3.57887
4.02288
4.56937
5.20011
5.86676
6.47904
6.87681
2.67474
2.94946
3.23098
3.57887
4.02289
4.56937
5.20011
5.86677
6.47905
6.87681
2.67475
2.94947
3.231
3.57889
4.02291
4.56939
5.20013
5.86679
6.47907
6.87684
2.67477
2.9495
3.23102
3.57892
4.02294
4.56943
5.20017
5.86683
6.47912
6.87689
2.6748
2.94953
3.23106
3.57896
4.02298
4.56948
5.20023
5.86689
6.47918
6.87696
2.67484
2.94957
3.23111
3.57901
4.02304
4.56954
5.2003
5.86697
6.47927
6.87704
66.1176
75.5579
80.942
84.4367
86.8388
88.5211
89.692
90.4797
90.9651
91.1966
66.1173
75.5576
80.9417
84.4363
86.8384
88.5207
89.6916
90.4793
90.9648
91.1963
66.1171
75.5574
80.9415
84.4361
86.8381
88.5204
89.6913
90.4791
90.9646
91.1961
66.117
75.5572
80.9413
84.4359
86.838
88.5203
89.6912
90.4789
90.9644
91.196
66.1169
75.5571
80.9412
84.4359
86.8379
88.5202
89.6911
90.4789
90.9644
91.1959
66.1169
75.5571
80.9412
84.4359
86.8379
88.5202
89.6912
90.4789
90.9644
91.196
66.117
75.5572
80.9413
84.436
86.838
88.5203
89.6913
90.479
90.9645
91.1961
66.1171
75.5573
80.9415
84.4361
86.8382
88.5205
89.6915
90.4792
90.9647
91.1963
66.1173
75.5575
80.9417
84.4364
86.8384
88.5208
89.6917
90.4795
90.965
91.1966
66.1175
75.5578
80.9419
84.4366
86.8387
88.5211
89.692
90.4798
90.9653
91.1969
49.9303
57.9179
63.2685
66.9111
69.4387
71.206
72.4311
73.2522
73.7567
73.9969
49.93
57.9177
63.2682
66.9108
69.4383
71.2057
72.4308
73.2519
73.7564
73.9966
49.9298
57.9175
63.268
66.9106
69.4381
71.2054
72.4306
73.2517
73.7562
73.9964
49.9297
57.9173
63.2679
66.9104
69.438
71.2053
72.4305
73.2515
73.7561
73.9963
49.9296
57.9173
63.2678
66.9104
69.4379
71.2052
72.4304
73.2515
73.756
73.9963
49.9296
57.9173
63.2678
66.9104
69.4379
71.2053
72.4304
73.2515
73.7561
73.9963
49.9297
57.9173
63.2679
66.9105
69.438
71.2054
72.4305
73.2516
73.7562
73.9964
49.9298
57.9175
63.268
66.9106
69.4382
71.2055
72.4307
73.2518
73.7564
73.9966
49.93
57.9176
63.2682
66.9108
69.4384
71.2058
72.4309
73.252
73.7566
73.9969
49.9302
57.9179
63.2685
66.9111
69.4387
71.2061
72.4313
73.2524
73.757
73.9972
38.7382
44.7156
49.2329
52.533
54.9133
56.6127
57.8041
58.6075
59.1029
59.3391
38.738
44.7154
49.2326
52.5328
54.913
56.6124
57.8038
58.6073
59.1026
59.3389
38.7378
44.7152
49.2324
52.5326
54.9128
56.6122
57.8036
58.6071
59.1025
59.3387
38.7377
44.7151
49.2323
52.5325
54.9127
56.6121
57.8035
58.6069
59.1023
59.3386
38.7376
44.715
49.2322
52.5324
54.9126
56.612
57.8034
58.6069
59.1023
59.3386
38.7376
44.715
49.2323
52.5324
54.9126
56.612
57.8035
58.6069
59.1023
59.3386
38.7377
44.7151
49.2323
52.5325
54.9127
56.6121
57.8036
58.607
59.1024
59.3387
38.7378
44.7152
49.2325
52.5326
54.9129
56.6123
57.8037
58.6072
59.1026
59.3389
38.7379
44.7154
49.2327
52.5328
54.9131
56.6125
57.804
58.6074
59.1029
59.3392
38.7382
44.7156
49.2329
52.5331
54.9134
56.6128
57.8043
58.6078
59.1032
59.3395
30.2167
34.5887
38.1531
40.9151
42.9913
44.5154
45.6039
46.3468
46.8083
47.0293
30.2166
34.5885
38.1529
40.9149
42.991
44.5152
45.6037
46.3466
46.8081
47.0291
30.2164
34.5883
38.1527
40.9147
42.9909
44.515
45.6035
46.3464
46.8079
47.0289
30.2163
34.5882
38.1526
40.9146
42.9908
44.5149
45.6034
46.3463
46.8078
47.0289
30.2163
34.5882
38.1526
40.9146
42.9907
44.5149
45.6034
46.3463
46.8078
47.0288
30.2163
34.5882
38.1526
40.9146
42.9907
44.5149
45.6034
46.3463
46.8078
47.0289
30.2163
34.5882
38.1526
40.9147
42.9908
44.515
45.6035
46.3464
46.8079
47.029
30.2164
34.5883
38.1527
40.9148
42.9909
44.5151
45.6036
46.3465
46.8081
47.0291
30.2166
34.5885
38.1529
40.915
42.9911
44.5153
45.6038
46.3468
46.8083
47.0294
30.2168
34.5887
38.1532
40.9152
42.9914
44.5156
45.6041
46.3471
46.8086
47.0297
23.5252
26.7036
29.421
31.6224
33.3385
34.6339
35.5782
36.2322
36.6424
36.8399
23.525
26.7034
29.4208
31.6222
33.3383
34.6337
35.578
36.232
36.6422
36.8397
23.5249
26.7033
29.4207
31.6221
33.3381
34.6335
35.5779
36.2318
36.642
36.8396
23.5248
26.7032
29.4206
31.622
33.338
34.6334
35.5778
36.2317
36.642
36.8395
23.5248
26.7032
29.4205
31.622
33.338
34.6334
35.5777
36.2317
36.6419
36.8395
23.5248
26.7032
29.4205
31.622
33.338
34.6334
35.5778
36.2317
36.642
36.8395
23.5248
26.7032
29.4206
31.622
33.3381
34.6335
35.5778
36.2318
36.642
36.8396
23.5249
26.7033
29.4207
31.6222
33.3382
34.6336
35.578
36.232
36.6422
36.8397
23.5251
26.7035
29.4209
31.6223
33.3384
34.6338
35.5782
36.2322
36.6424
36.84
23.5252
26.7037
29.4211
31.6226
33.3386
34.6341
35.5784
36.2324
36.6427
36.8402
18.248
20.5387
22.5598
24.2534
25.6148
26.6694
27.4539
28.0056
28.3553
28.5247
18.2478
20.5386
22.5596
24.2532
25.6146
26.6692
27.4538
28.0054
28.3551
28.5246
18.2477
20.5385
22.5595
24.2531
25.6145
26.6691
27.4536
28.0053
28.355
28.5245
18.2477
20.5384
22.5594
24.253
25.6144
26.669
27.4535
28.0052
28.3549
28.5244
18.2476
20.5383
22.5594
24.253
25.6144
26.6689
27.4535
28.0052
28.3549
28.5244
18.2476
20.5384
22.5594
24.253
25.6144
26.669
27.4535
28.0052
28.355
28.5244
18.2477
20.5384
22.5594
24.253
25.6145
26.669
27.4536
28.0053
28.355
28.5245
18.2478
20.5385
22.5595
24.2531
25.6146
26.6692
27.4537
28.0054
28.3552
28.5246
18.2479
20.5386
22.5597
24.2533
25.6148
26.6693
27.4539
28.0056
28.3553
28.5248
18.248
20.5388
22.5599
24.2535
25.615
26.6695
27.4541
28.0058
28.3556
28.5251
14.1202
15.7365
17.1987
18.46
19.5024
20.3297
20.9575
21.4057
21.6929
21.833
14.1201
15.7363
17.1985
18.4598
19.5023
20.3295
20.9573
21.4055
21.6928
21.8329
14.12
15.7362
17.1984
18.4597
19.5022
20.3294
20.9572
21.4054
21.6927
21.8328
14.1199
15.7362
17.1984
18.4597
19.5021
20.3293
20.9571
21.4054
21.6926
21.8327
14.1199
15.7362
17.1983
18.4596
19.5021
20.3293
20.9571
21.4053
21.6926
21.8327
14.1199
15.7362
17.1983
18.4597
19.5021
20.3293
20.9571
21.4054
21.6926
21.8327
14.1199
15.7362
17.1984
18.4597
19.5022
20.3294
20.9572
21.4054
21.6927
21.8328
14.12
15.7363
17.1985
18.4598
19.5023
20.3295
20.9573
21.4055
21.6928
21.8329
14.1201
15.7364
17.1986
18.4599
19.5024
20.3296
20.9574
21.4057
21.693
21.8331
14.1203
15.7365
17.1988
18.4601
19.5026
20.3298
20.9576
21.4059
21.6932
21.8333
10.944
12.0271
13.041
13.9458
14.7163
15.3432
15.8286
16.1806
16.4087
16.5206
10.9439
12.027
13.0409