/*--------------------------------*- C++ -*----------------------------------*\
  =========                 |
  \\      /  F ield         | OpenFOAM: The Open Source CFD Toolbox
   \\    /   O peration     | Website:  https://openfoam.org
    \\  /    A nd           | Version:  6
     \\/     M anipulation  |
\*---------------------------------------------------------------------------*/
FoamFile
{
    version     2.0;
    format      ascii;
    class       surfaceScalarField;
    location    "0.084";
    object      phi;
}
// * * * * * * * * * * * * * * * * * * * * * * * * * * * * * * * * * * * * * //

dimensions      [0 3 -1 0 0 0 0];

internalField   nonuniform List<scalar> 
162000
(
-8.93509e-14
1.53111e-12
5.40934e-07
1.60956e-12
5.40934e-07
-1.96728e-14
3.95282e-12
8.30824e-07
3.971e-12
8.30824e-07
-3.63423e-15
6.12833e-12
9.08507e-07
6.13577e-12
9.08507e-07
-1.48535e-15
7.67148e-12
9.29333e-07
7.67429e-12
9.29333e-07
-5.44175e-16
8.37143e-12
9.34927e-07
8.37241e-12
9.34927e-07
-1.13643e-16
8.14856e-12
9.36439e-07
8.1489e-12
9.36439e-07
4.42629e-17
7.03408e-12
9.36858e-07
7.0342e-12
9.36858e-07
9.90062e-17
5.15628e-12
9.3698e-07
5.15632e-12
9.3698e-07
1.1481e-16
2.72263e-12
9.3702e-07
2.72264e-12
9.3702e-07
1.14154e-16
-3.51399e-15
9.37033e-07
-3.52154e-15
9.37033e-07
1.05985e-16
-2.72991e-12
9.37033e-07
-2.72992e-12
9.37033e-07
9.38998e-17
-5.16434e-12
9.3702e-07
-5.16436e-12
9.3702e-07
8.03954e-17
-7.04355e-12
9.3698e-07
-7.04357e-12
9.3698e-07
6.26473e-17
-8.16032e-12
9.36858e-07
-8.16035e-12
9.36858e-07
4.06384e-17
-8.38694e-12
9.36439e-07
-8.387e-12
9.36439e-07
1.28872e-17
-7.69342e-12
9.34927e-07
-7.6934e-12
9.34927e-07
7.05569e-17
-6.16191e-12
9.29333e-07
-6.1622e-12
9.29333e-07
-2.04367e-16
-4.00836e-12
9.08507e-07
-4.00902e-12
9.08507e-07
-8.63669e-16
-1.65315e-12
8.30824e-07
-1.65335e-12
8.30824e-07
-9.6541e-16
5.40934e-07
5.40934e-07
-1.99516e-14
5.09621e-12
5.40929e-07
5.11333e-12
5.40929e-07
-6.86316e-15
1.24223e-11
8.30816e-07
1.24313e-11
8.30816e-07
-1.61692e-15
1.91218e-11
9.085e-07
1.91258e-11
9.085e-07
-5.87579e-17
2.38803e-11
9.29328e-07
2.3882e-11
9.29328e-07
6.55817e-16
2.60309e-11
9.34925e-07
2.60315e-11
9.34925e-07
9.72336e-16
2.5322e-11
9.3644e-07
2.53223e-11
9.3644e-07
1.09942e-15
2.18502e-11
9.36861e-07
2.18503e-11
9.36861e-07
1.14928e-15
1.6014e-11
9.36986e-07
1.6014e-11
9.36986e-07
1.16662e-15
8.4572e-12
9.37028e-07
8.45721e-12
9.37028e-07
1.1684e-15
-4.39282e-15
9.37042e-07
-4.39825e-15
9.37042e-07
1.16209e-15
-8.46621e-12
9.37042e-07
-8.46622e-12
9.37042e-07
1.15082e-15
-1.60237e-11
9.37028e-07
-1.60237e-11
9.37028e-07
1.13487e-15
-2.18611e-11
9.36986e-07
-2.18611e-11
9.36986e-07
1.11446e-15
-2.53349e-11
9.36861e-07
-2.5335e-11
9.36861e-07
1.08564e-15
-2.60466e-11
9.3644e-07
-2.60467e-11
9.3644e-07
1.05054e-15
-2.39004e-11
9.34925e-07
-2.39005e-11
9.34925e-07
9.67617e-16
-1.91482e-11
9.29328e-07
-1.91483e-11
9.29328e-07
1.00606e-15
-1.24573e-11
9.085e-07
-1.24572e-11
9.085e-07
1.21888e-15
-5.13665e-12
8.30816e-07
-5.13694e-12
8.30816e-07
9.17635e-16
5.40929e-07
5.40929e-07
-2.08114e-15
9.16676e-12
5.4092e-07
9.16972e-12
5.4092e-07
-1.40239e-16
2.22384e-11
8.30803e-07
2.22413e-11
8.30803e-07
1.17311e-15
3.41795e-11
9.08488e-07
3.41814e-11
9.08488e-07
1.98966e-15
4.26464e-11
9.2932e-07
4.26473e-11
9.2932e-07
2.45338e-15
4.64521e-11
9.34921e-07
4.64525e-11
9.34921e-07
2.68636e-15
4.51573e-11
9.36441e-07
4.51576e-11
9.36441e-07
2.79984e-15
3.89443e-11
9.36867e-07
3.89444e-11
9.36867e-07
2.85477e-15
2.85306e-11
9.36997e-07
2.85307e-11
9.36997e-07
2.87946e-15
1.50645e-11
9.37041e-07
1.50645e-11
9.37041e-07
2.88712e-15
-5.08193e-15
9.37057e-07
-5.08414e-15
9.37057e-07
2.88402e-15
-1.50748e-11
9.37057e-07
-1.50749e-11
9.37057e-07
2.8725e-15
-2.85415e-11
9.37041e-07
-2.85415e-11
9.37041e-07
2.85168e-15
-3.89561e-11
9.36997e-07
-3.89561e-11
9.36997e-07
2.8184e-15
-4.51704e-11
9.36867e-07
-4.51705e-11
9.36867e-07
2.76162e-15
-4.64669e-11
9.36441e-07
-4.6467e-11
9.36441e-07
2.69095e-15
-4.26631e-11
9.34921e-07
-4.26633e-11
9.34921e-07
2.61052e-15
-3.41981e-11
9.2932e-07
-3.41985e-11
9.2932e-07
2.30682e-15
-2.22577e-11
9.08488e-07
-2.22585e-11
9.08488e-07
1.60873e-15
-9.18122e-12
8.30803e-07
-9.18187e-12
8.30803e-07
8.70722e-16
5.4092e-07
5.4092e-07
8.85831e-16
1.42224e-11
5.40906e-07
1.42245e-11
5.40906e-07
2.69453e-15
3.4471e-11
8.30783e-07
3.44733e-11
8.30783e-07
4.26327e-15
5.29334e-11
9.0847e-07
5.2935e-11
9.0847e-07
5.20175e-15
6.59829e-11
9.29307e-07
6.59839e-11
9.29307e-07
5.71388e-15
7.17999e-11
9.34915e-07
7.18004e-11
9.34915e-07
5.99444e-15
6.97319e-11
9.36444e-07
6.97322e-11
9.36444e-07
6.14864e-15
6.00873e-11
9.36877e-07
6.00874e-11
9.36877e-07
6.23173e-15
4.39916e-11
9.37013e-07
4.39917e-11
9.37013e-07
6.27351e-15
2.32194e-11
9.37062e-07
2.32195e-11
9.37062e-07
6.28986e-15
-5.61796e-15
9.3708e-07
-5.6186e-15
9.3708e-07
6.28839e-15
-2.32308e-11
9.3708e-07
-2.32308e-11
9.3708e-07
6.27051e-15
-4.40033e-11
9.37062e-07
-4.40034e-11
9.37062e-07
6.23186e-15
-6.00996e-11
9.37013e-07
-6.00997e-11
9.37013e-07
6.16285e-15
-6.97449e-11
9.36877e-07
-6.97452e-11
9.36877e-07
6.04768e-15
-7.18138e-11
9.36444e-07
-7.18141e-11
9.36444e-07
5.85711e-15
-6.59977e-11
9.34915e-07
-6.59983e-11
9.34915e-07
5.53e-15
-5.29486e-11
9.29307e-07
-5.29492e-11
9.29307e-07
5.20467e-15
-3.44848e-11
9.0847e-07
-3.44854e-11
9.0847e-07
4.94091e-15
-1.4231e-11
8.30783e-07
-1.42319e-11
8.30783e-07
3.82794e-15
5.40906e-07
5.40906e-07
8.43089e-15
2.08464e-11
5.40885e-07
2.08492e-11
5.40885e-07
1.16001e-14
5.04842e-11
8.30753e-07
5.0487e-11
8.30753e-07
1.33409e-14
7.74414e-11
9.08443e-07
7.74436e-11
9.08443e-07
1.46013e-14
9.64097e-11
9.29288e-07
9.64113e-11
9.29288e-07
1.54156e-14
1.04764e-10
9.34907e-07
1.04765e-10
9.34907e-07
1.59156e-14
1.0161e-10
9.36447e-07
1.0161e-10
9.36447e-07
1.62107e-14
8.74522e-11
9.36891e-07
8.74525e-11
9.36891e-07
1.63772e-14
6.39674e-11
9.37036e-07
6.39676e-11
9.37036e-07
1.64645e-14
3.37441e-11
9.37092e-07
3.37442e-11
9.37092e-07
1.6502e-14
-6.052e-15
9.37114e-07
-6.04964e-15
9.37114e-07
1.65033e-14
-3.37563e-11
9.37114e-07
-3.37563e-11
9.37114e-07
1.64692e-14
-6.39798e-11
9.37092e-07
-6.39799e-11
9.37092e-07
1.63882e-14
-8.74648e-11
9.37036e-07
-8.74651e-11
9.37036e-07
1.62337e-14
-1.01623e-10
9.36891e-07
-1.01623e-10
9.36891e-07
1.59602e-14
-1.04777e-10
9.36447e-07
-1.04778e-10
9.36447e-07
1.55128e-14
-9.64226e-11
9.34907e-07
-9.64239e-11
9.34907e-07
1.48273e-14
-7.74532e-11
9.29288e-07
-7.74552e-11
9.29288e-07
1.35552e-14
-5.04939e-11
9.08443e-07
-5.04969e-11
9.08443e-07
1.14411e-14
-2.08522e-11
8.30753e-07
-2.08549e-11
8.30753e-07
8.21411e-15
5.40885e-07
5.40885e-07
2.17878e-14
2.97966e-11
5.40855e-07
2.98033e-11
5.40855e-07
2.99244e-14
7.20881e-11
8.30711e-07
7.20951e-11
8.30711e-07
3.46247e-14
1.10427e-10
9.08404e-07
1.10432e-10
9.08405e-07
3.76762e-14
1.37236e-10
9.29261e-07
1.37239e-10
9.29261e-07
3.95326e-14
1.48847e-10
9.34895e-07
1.48849e-10
9.34895e-07
4.06533e-14
1.44099e-10
9.36451e-07
1.44101e-10
9.36451e-07
4.13084e-14
1.23821e-10
9.36911e-07
1.23822e-10
9.36912e-07
4.16737e-14
9.04564e-11
9.37069e-07
9.04567e-11
9.3707e-07
4.18635e-14
4.76806e-11
9.37135e-07
4.76807e-11
9.37135e-07
4.19447e-14
-6.42083e-15
9.37161e-07
-6.41604e-15
9.37162e-07
4.19482e-14
-4.76934e-11
9.37161e-07
-4.76936e-11
9.37162e-07
4.18743e-14
-9.04693e-11
9.37135e-07
-9.04696e-11
9.37135e-07
4.16935e-14
-1.23834e-10
9.37069e-07
-1.23835e-10
9.3707e-07
4.13413e-14
-1.44112e-10
9.36911e-07
-1.44114e-10
9.36912e-07
4.07096e-14
-1.4886e-10
9.36451e-07
-1.48862e-10
9.36451e-07
3.96264e-14
-1.37248e-10
9.34895e-07
-1.37251e-10
9.34895e-07
3.78201e-14
-1.10438e-10
9.29261e-07
-1.10443e-10
9.29261e-07
3.50978e-14
-7.20971e-11
9.08404e-07
-7.21032e-11
9.08405e-07
3.11686e-14
-2.98013e-11
8.30711e-07
-2.98078e-11
8.30711e-07
2.3196e-14
5.40855e-07
5.40855e-07
5.94432e-14
4.2128e-11
5.40813e-07
4.21447e-11
5.40813e-07
8.02857e-14
1.01785e-10
8.30651e-07
1.01801e-10
8.30652e-07
9.10523e-14
1.55618e-10
9.08351e-07
1.5563e-10
9.08351e-07
9.81217e-14
1.92941e-10
9.29224e-07
1.92949e-10
9.29224e-07
1.02447e-13
2.08733e-10
9.34879e-07
2.08738e-10
9.34879e-07
1.05032e-13
2.01578e-10
9.36458e-07
2.01581e-10
9.36459e-07
1.06519e-13
1.72839e-10
9.3694e-07
1.7284e-10
9.3694e-07
1.07331e-13
1.26056e-10
9.37116e-07
1.26057e-10
9.37117e-07
1.07744e-13
6.63769e-11
9.37195e-07
6.63773e-11
9.37195e-07
1.07918e-13
-6.75465e-15
9.37228e-07
-6.74693e-15
9.37228e-07
1.07924e-13
-6.63904e-11
9.37228e-07
-6.63907e-11
9.37228e-07
1.07762e-13
-1.2607e-10
9.37195e-07
-1.2607e-10
9.37195e-07
1.07361e-13
-1.72852e-10
9.37116e-07
-1.72854e-10
9.37117e-07
1.06564e-13
-2.01591e-10
9.3694e-07
-2.01594e-10
9.3694e-07
1.05094e-13
-2.08746e-10
9.36458e-07
-2.08751e-10
9.36459e-07
1.02536e-13
-1.92953e-10
9.34879e-07
-1.92961e-10
9.34879e-07
9.82768e-14
-1.55627e-10
9.29224e-07
-1.5564e-10
9.29224e-07
9.10631e-14
-1.01792e-10
9.08351e-07
-1.01809e-10
9.08351e-07
7.96739e-14
-4.21323e-11
8.30651e-07
-4.21492e-11
8.30652e-07
5.85513e-14
5.40813e-07
5.40813e-07
1.51974e-13
5.93436e-11
5.40753e-07
5.93865e-11
5.40754e-07
2.06047e-13
1.43113e-10
8.30567e-07
1.43155e-10
8.30568e-07
2.34009e-13
2.18231e-10
9.08275e-07
2.1826e-10
9.08276e-07
2.51658e-13
2.69708e-10
9.29172e-07
2.69728e-10
9.29173e-07
2.62071e-13
2.90792e-10
9.34858e-07
2.90804e-10
9.34859e-07
2.68116e-13
2.79911e-10
9.36469e-07
2.79917e-10
9.3647e-07
2.71498e-13
2.39325e-10
9.3698e-07
2.39329e-10
9.36981e-07
2.73296e-13
1.74168e-10
9.37181e-07
1.7417e-10
9.37182e-07
2.74189e-13
9.1587e-11
9.37277e-07
9.15878e-11
9.37278e-07
2.74555e-13
-7.06977e-15
9.37319e-07
-7.05875e-15
9.3732e-07
2.74564e-13
-9.16011e-11
9.37319e-07
-9.16018e-11
9.3732e-07
2.74215e-13
-1.74182e-10
9.37277e-07
-1.74184e-10
9.37278e-07
2.7334e-13
-2.39339e-10
9.37181e-07
-2.39343e-10
9.37182e-07
2.71561e-13
-2.79924e-10
9.3698e-07
-2.79931e-10
9.36981e-07
2.68205e-13
-2.90805e-10
9.36469e-07
-2.90817e-10
9.3647e-07
2.62191e-13
-2.6972e-10
9.34858e-07
-2.69739e-10
9.34859e-07
2.51803e-13
-2.18241e-10
9.29172e-07
-2.1827e-10
9.29173e-07
2.34426e-13
-1.43121e-10
9.08275e-07
-1.43162e-10
9.08276e-07
2.07114e-13
-5.93481e-11
8.30567e-07
-5.93908e-11
8.30568e-07
1.53112e-13
5.40753e-07
5.40754e-07
3.94048e-13
8.36446e-11
5.40669e-07
8.37535e-11
5.4067e-07
5.32813e-13
2.01191e-10
8.30449e-07
2.01295e-10
8.30451e-07
6.02298e-13
3.05688e-10
9.0817e-07
3.05761e-10
9.08172e-07
6.45319e-13
3.76172e-10
9.29101e-07
3.76218e-10
9.29103e-07
6.70082e-13
4.0375e-10
9.34829e-07
4.03776e-10
9.34832e-07
6.84057e-13
3.8698e-10
9.36485e-07
3.86995e-10
9.36487e-07
6.91651e-13
3.29656e-10
9.37037e-07
3.29663e-10
9.37039e-07
6.95569e-13
2.39233e-10
9.37271e-07
2.39237e-10
9.37273e-07
6.97457e-13
1.25582e-10
9.3739e-07
1.25584e-10
9.37392e-07
6.98212e-13
-7.37102e-15
9.37444e-07
-7.35756e-15
9.37446e-07
6.98222e-13
-1.25597e-10
9.37444e-07
-1.25598e-10
9.37446e-07
6.97488e-13
-2.39248e-10
9.3739e-07
-2.39251e-10
9.37392e-07
6.95622e-13
-3.2967e-10
9.37271e-07
-3.29678e-10
9.37273e-07
6.91725e-13
-3.86994e-10
9.37037e-07
-3.87009e-10
9.37039e-07
6.84153e-13
-4.03763e-10
9.36485e-07
-4.0379e-10
9.36487e-07
6.70209e-13
-3.76184e-10
9.34829e-07
-3.7623e-10
9.34832e-07
6.45511e-13
-3.05698e-10
9.29101e-07
-3.05771e-10
9.29103e-07
6.02335e-13
-2.01199e-10
9.0817e-07
-2.01303e-10
9.08172e-07
5.32189e-13
-8.36493e-11
8.30449e-07
-8.37586e-11
8.30451e-07
3.9307e-13
5.40669e-07
5.4067e-07
1.01283e-12
1.18325e-10
5.4055e-07
1.18603e-10
5.40553e-07
1.36887e-12
2.83562e-10
8.30283e-07
2.83821e-10
8.30287e-07
1.54412e-12
4.28709e-10
9.08023e-07
4.28885e-10
9.08029e-07
1.64956e-12
5.24505e-10
9.29003e-07
5.24614e-10
9.29009e-07
1.70821e-12
5.59598e-10
9.34793e-07
5.5966e-10
9.34798e-07
1.74022e-12
5.33366e-10
9.3651e-07
5.33399e-10
9.36515e-07
1.75703e-12
4.52201e-10
9.37116e-07
4.52218e-10
9.37122e-07
1.76541e-12
3.26985e-10
9.37394e-07
3.26993e-10
9.374e-07
1.76932e-12
1.71263e-10
9.37544e-07
1.71266e-10
9.3755e-07
1.77083e-12
-7.65771e-15
9.37613e-07
-7.64062e-15
9.37619e-07
1.77085e-12
-1.71278e-10
9.37613e-07
-1.71281e-10
9.37619e-07
1.76936e-12
-3.27e-10
9.37544e-07
-3.27008e-10
9.3755e-07
1.76548e-12
-4.52216e-10
9.37394e-07
-4.52233e-10
9.374e-07
1.75712e-12
-5.3338e-10
9.37116e-07
-5.33414e-10
9.37122e-07
1.74035e-12
-5.59612e-10
9.3651e-07
-5.59674e-10
9.36515e-07
1.70839e-12
-5.24518e-10
9.34793e-07
-5.24626e-10
9.34798e-07
1.64976e-12
-4.2872e-10
9.29003e-07
-4.28896e-10
9.29009e-07
1.54462e-12
-2.83572e-10
9.08023e-07
-2.8383e-10
9.08029e-07
1.36997e-12
-1.18331e-10
8.30283e-07
-1.18608e-10
8.30287e-07
1.01395e-12
5.4055e-07
5.40553e-07
2.61012e-12
1.68462e-10
5.40379e-07
1.69166e-10
5.40386e-07
3.52285e-12
4.01593e-10
8.30046e-07
4.02235e-10
8.30058e-07
3.96084e-12
6.02999e-10
9.07818e-07
6.03426e-10
9.07831e-07
4.21679e-12
7.31996e-10
9.2887e-07
7.32251e-10
9.28884e-07
4.35419e-12
7.74827e-10
9.34745e-07
7.74968e-10
9.3476e-07
4.42638e-12
7.33158e-10
9.36547e-07
7.3323e-10
9.36561e-07
4.46289e-12
6.17802e-10
9.37227e-07
6.17837e-10
9.37242e-07
4.48038e-12
4.44683e-10
9.37563e-07
4.44699e-10
9.37578e-07
4.48822e-12
2.32249e-10
9.37752e-07
2.32255e-10
9.37766e-07
4.49116e-12
-7.91491e-15
9.37841e-07
-7.89634e-15
9.37856e-07
4.49117e-12
-2.32264e-10
9.37841e-07
-2.32271e-10
9.37856e-07
4.48826e-12
-4.44699e-10
9.37752e-07
-4.44715e-10
9.37766e-07
4.48045e-12
-6.17817e-10
9.37563e-07
-6.17853e-10
9.37578e-07
4.46299e-12
-7.33173e-10
9.37227e-07
-7.33246e-10
9.37242e-07
4.42652e-12
-7.74842e-10
9.36547e-07
-7.74982e-10
9.36561e-07
4.35437e-12
-7.3201e-10
9.34745e-07
-7.32264e-10
9.3476e-07
4.21706e-12
-6.03011e-10
9.2887e-07
-6.03438e-10
9.28884e-07
3.961e-12
-4.01602e-10
9.07818e-07
-4.02244e-10
9.07831e-07
3.52236e-12
-1.68468e-10
8.30046e-07
-1.69172e-10
8.30058e-07
2.60918e-12
5.40379e-07
5.40386e-07
6.73225e-12
2.42132e-10
5.4013e-07
2.43916e-10
5.40149e-07
9.08433e-12
5.72833e-10
8.29706e-07
5.74424e-10
8.29736e-07
1.0184e-11
8.51954e-10
9.07529e-07
8.52979e-10
9.07563e-07
1.08041e-11
1.02337e-09
9.28688e-07
1.02396e-09
9.28724e-07
1.1123e-11
1.07204e-09
9.34686e-07
1.07236e-09
9.34723e-07
1.12833e-11
1.00489e-09
9.36603e-07
1.00505e-09
9.3664e-07
1.13608e-11
8.40188e-10
9.37381e-07
8.40262e-10
9.37418e-07
1.13962e-11
6.01243e-10
9.3779e-07
6.01275e-10
9.37828e-07
1.14113e-11
3.12895e-10
9.38029e-07
3.12907e-10
9.38066e-07
1.14168e-11
-8.13096e-15
9.38143e-07
-8.10915e-15
9.3818e-07
1.14168e-11
-3.12911e-10
9.38143e-07
-3.12923e-10
9.3818e-07
1.14114e-11
-6.01259e-10
9.38029e-07
-6.01291e-10
9.38066e-07
1.13963e-11
-8.40204e-10
9.3779e-07
-8.40278e-10
9.37828e-07
1.1361e-11
-1.0049e-09
9.37381e-07
-1.00506e-09
9.37418e-07
1.12835e-11
-1.07206e-09
9.36603e-07
-1.07237e-09
9.3664e-07
1.11233e-11
-1.02339e-09
9.34686e-07
-1.02398e-09
9.34723e-07
1.08044e-11
-8.51967e-10
9.28688e-07
-8.52991e-10
9.28724e-07
1.01846e-11
-5.72843e-10
9.07529e-07
-5.74434e-10
9.07563e-07
9.08554e-12
-2.42138e-10
8.29706e-07
-2.43923e-10
8.29736e-07
6.73341e-12
5.4013e-07
5.40149e-07
1.74178e-11
3.52695e-10
5.3976e-07
3.57233e-10
5.39809e-07
2.3514e-11
8.25167e-10
8.2921e-07
8.29095e-10
8.29288e-07
2.62886e-11
1.21103e-09
9.07116e-07
1.21347e-09
9.07205e-07
2.77912e-11
1.43421e-09
9.28437e-07
1.43557e-09
9.2853e-07
2.85255e-11
1.48204e-09
9.34609e-07
1.48273e-09
9.34704e-07
2.88752e-11
1.37247e-09
9.36683e-07
1.3728e-09
9.36779e-07
2.90352e-11
1.13618e-09
9.37588e-07
1.13633e-09
9.37684e-07
2.91041e-11
8.07118e-10
9.3809e-07
8.0718e-10
9.38186e-07
2.91316e-11
4.18158e-10
9.38388e-07
4.1818e-10
9.38484e-07
2.91409e-11
-8.27492e-15
9.38532e-07
-8.25242e-15
9.38628e-07
2.91409e-11
-4.18174e-10
9.38532e-07
-4.18196e-10
9.38628e-07
2.91316e-11
-8.07135e-10
9.38388e-07
-8.07197e-10
9.38484e-07
2.91041e-11
-1.1362e-09
9.3809e-07
-1.13634e-09
9.38186e-07
2.90353e-11
-1.37248e-09
9.37588e-07
-1.37281e-09
9.37684e-07
2.88754e-11
-1.48206e-09
9.36683e-07
-1.48275e-09
9.36779e-07
2.85257e-11
-1.43423e-09
9.34609e-07
-1.43558e-09
9.34704e-07
2.77917e-11
-1.21104e-09
9.28437e-07
-1.21349e-09
9.2853e-07
2.6289e-11
-8.25177e-10
9.07116e-07
-8.29106e-10
9.07205e-07
2.35137e-11
-3.52702e-10
8.2921e-07
-3.5724e-10
8.29288e-07
1.7417e-11
5.3976e-07
5.39809e-07
4.4995e-11
5.23183e-10
5.39192e-07
5.34692e-10
5.3932e-07
6.08084e-11
1.20426e-09
8.28468e-07
1.21387e-09
8.28669e-07
6.77983e-11
1.73501e-09
9.06518e-07
1.74075e-09
9.06746e-07
7.14261e-11
2.016e-09
9.28084e-07
2.01905e-09
9.28323e-07
7.31003e-11
2.04636e-09
9.34506e-07
2.04786e-09
9.34748e-07
7.38477e-11
1.86584e-09
9.3679e-07
1.86652e-09
9.37034e-07
7.41669e-11
1.52535e-09
9.37854e-07
1.52565e-09
9.38099e-07
7.42939e-11
1.07369e-09
9.38468e-07
1.07381e-09
9.38712e-07
7.43402e-11
5.53177e-10
9.38834e-07
5.53219e-10
9.39079e-07
7.43545e-11
-8.3235e-15
9.3901e-07
-8.29949e-15
9.39255e-07
7.43545e-11
-5.53193e-10
9.3901e-07
-5.53236e-10
9.39255e-07
7.43403e-11
-1.07371e-09
9.38834e-07
-1.07383e-09
9.39079e-07
7.4294e-11
-1.52537e-09
9.38468e-07
-1.52566e-09
9.38712e-07
7.4167e-11
-1.86586e-09
9.37854e-07
-1.86654e-09
9.38099e-07
7.38479e-11
-2.04638e-09
9.3679e-07
-2.04787e-09
9.37034e-07
7.31006e-11
-2.01602e-09
9.34506e-07
-2.01907e-09
9.34748e-07
7.14266e-11
-1.73502e-09
9.28084e-07
-1.74076e-09
9.28323e-07
6.77991e-11
-1.20427e-09
9.06518e-07
-1.21389e-09
9.06746e-07
6.08097e-11
-5.23191e-10
8.28468e-07
-5.34699e-10
8.28669e-07
4.49961e-11
5.39192e-07
5.3932e-07
1.16885e-10
7.95556e-10
5.38279e-07
8.24404e-10
5.38612e-07
1.59202e-10
1.78808e-09
8.27316e-07
1.81121e-09
8.27842e-07
1.77006e-10
2.5106e-09
9.05618e-07
2.5239e-09
9.0621e-07
1.85767e-10
2.84374e-09
9.27565e-07
2.85055e-09
9.28182e-07
1.89569e-10
2.82026e-09
9.3434e-07
2.82348e-09
9.34965e-07
1.91142e-10
2.52104e-09
9.36898e-07
2.52248e-09
9.37526e-07
1.91755e-10
2.02878e-09
9.38155e-07
2.02941e-09
9.38783e-07
1.91973e-10
1.41189e-09
9.38892e-07
1.41216e-09
9.39522e-07
1.92041e-10
7.22443e-10
9.39332e-07
7.22543e-10
9.39961e-07
1.92058e-10
-8.22685e-15
9.39541e-07
-8.2017e-15
9.4017e-07
1.92058e-10
-7.22459e-10
9.39541e-07
-7.2256e-10
9.4017e-07
1.92041e-10
-1.41191e-09
9.39332e-07
-1.41218e-09
9.39961e-07
1.91973e-10
-2.02879e-09
9.38892e-07
-2.02943e-09
9.39522e-07
1.91755e-10
-2.52105e-09
9.38155e-07
-2.5225e-09
9.38783e-07
1.91142e-10
-2.82028e-09
9.36898e-07
-2.8235e-09
9.37526e-07
1.89569e-10
-2.84376e-09
9.3434e-07
-2.85057e-09
9.34965e-07
1.85768e-10
-2.51061e-09
9.27565e-07
-2.52392e-09
9.28182e-07
1.77006e-10
-1.78809e-09
9.05618e-07
-1.81123e-09
9.0621e-07
1.59202e-10
-7.95563e-10
8.27316e-07
-8.24412e-10
8.27842e-07
1.16884e-10
5.38279e-07
5.38612e-07
3.18225e-10
1.25363e-09
5.36707e-07
1.32764e-09
5.37603e-07
4.45655e-10
2.71782e-09
8.25407e-07
2.77463e-09
8.2684e-07
4.96519e-10
3.67971e-09
9.0416e-07
3.71119e-09
9.0577e-07
5.19472e-10
4.02796e-09
9.26698e-07
4.04366e-09
9.28369e-07
5.28618e-10
3.87622e-09
9.33963e-07
3.88365e-09
9.35654e-07
5.32036e-10
3.37917e-09
9.36863e-07
3.38268e-09
9.38559e-07
5.33201e-10
2.66655e-09
9.38334e-07
2.66827e-09
9.40031e-07
5.33532e-10
1.82993e-09
9.39196e-07
1.83079e-09
9.40893e-07
5.33592e-10
9.2853e-10
9.397e-07
9.28896e-10
9.41396e-07
5.3359e-10
-7.93917e-15
9.39936e-07
-7.9168e-15
9.41632e-07
5.3359e-10
-9.28546e-10
9.39936e-07
-9.28912e-10
9.41632e-07
5.33592e-10
-1.82995e-09
9.397e-07
-1.83081e-09
9.41396e-07
5.33532e-10
-2.66657e-09
9.39196e-07
-2.66829e-09
9.40893e-07
5.33201e-10
-3.37919e-09
9.38334e-07
-3.3827e-09
9.40031e-07
5.32036e-10
-3.87624e-09
9.36863e-07
-3.88367e-09
9.38559e-07
5.28619e-10
-4.02798e-09
9.33963e-07
-4.04367e-09
9.35654e-07
5.19473e-10
-3.67973e-09
9.26698e-07
-3.7112e-09
9.28369e-07
4.9652e-10
-2.71783e-09
9.0416e-07
-2.77465e-09
9.0577e-07
4.45656e-10
-1.25363e-09
8.25407e-07
-1.32765e-09
8.2684e-07
3.18225e-10
5.36707e-07
5.37603e-07
9.10793e-10
2.07028e-09
5.33726e-07
2.27727e-09
5.36236e-07
1.3266e-09
4.25109e-09
8.21899e-07
4.39991e-09
8.26044e-07
1.49275e-09
5.47584e-09
9.01442e-07
5.55466e-09
9.06108e-07
1.56152e-09
5.73185e-09
9.2488e-07
5.77169e-09
9.29713e-07
1.58613e-09
5.30856e-09
9.328e-07
5.32917e-09
9.37682e-07
1.59421e-09
4.48544e-09
9.36092e-07
4.49687e-09
9.40986e-07
1.59648e-09
3.4554e-09
9.37767e-07
3.46219e-09
9.42662e-07
1.59686e-09
2.33137e-09
9.38723e-07
2.33535e-09
9.43616e-07
1.59674e-09
1.17109e-09
9.39263e-07
1.17297e-09
9.44155e-07
1.59662e-09
-7.37483e-15
9.3951e-07
-7.35062e-15
9.44402e-07
1.59662e-09
-1.17111e-09
9.3951e-07
-1.17299e-09
9.44402e-07
1.59675e-09
-2.33138e-09
9.39263e-07
-2.33537e-09
9.44155e-07
1.59686e-09
-3.45542e-09
9.38723e-07
-3.4622e-09
9.43616e-07
1.59648e-09
-4.48546e-09
9.37767e-07
-4.49689e-09
9.42662e-07
1.59421e-09
-5.30858e-09
9.36092e-07
-5.32919e-09
9.40986e-07
1.58613e-09
-5.73187e-09
9.328e-07
-5.77171e-09
9.37682e-07
1.56152e-09
-5.47585e-09
9.2488e-07
-5.55467e-09
9.29713e-07
1.49275e-09
-4.2511e-09
9.01442e-07
-4.39992e-09
9.06108e-07
1.3266e-09
-2.07028e-09
8.21899e-07
-2.27728e-09
8.26044e-07
9.10791e-10
5.33726e-07
5.36236e-07
2.48516e-09
3.54735e-09
5.27694e-07
4.10617e-09
5.34615e-07
3.74488e-09
6.82551e-09
8.14876e-07
7.19015e-09
8.26705e-07
4.24522e-09
8.27757e-09
8.95745e-07
8.47475e-09
9.09068e-07
4.44537e-09
8.20042e-09
9.20512e-07
8.31634e-09
9.34317e-07
4.51224e-09
7.24704e-09
9.29241e-07
7.32191e-09
9.43189e-07
4.5319e-09
5.89664e-09
9.3291e-07
5.948e-09
9.46891e-07
4.53651e-09
4.41425e-09
9.34713e-07
4.44965e-09
9.48697e-07
4.53673e-09
2.91938e-09
9.35681e-07
2.94195e-09
9.49661e-07
4.53606e-09
1.4493e-09
9.36197e-07
1.46034e-09
9.50173e-07
4.53558e-09
-6.42883e-15
9.36424e-07
-6.40697e-15
9.50398e-07
4.53558e-09
-1.44931e-09
9.36424e-07
-1.46035e-09
9.50398e-07
4.53606e-09
-2.91939e-09
9.36197e-07
-2.94196e-09
9.50173e-07
4.53673e-09
-4.41427e-09
9.35681e-07
-4.44967e-09
9.49661e-07
4.53651e-09
-5.89666e-09
9.34713e-07
-5.94802e-09
9.48697e-07
4.5319e-09
-7.24706e-09
9.3291e-07
-7.32193e-09
9.46891e-07
4.51224e-09
-8.20044e-09
9.29241e-07
-8.31636e-09
9.43189e-07
4.44537e-09
-8.27759e-09
9.20512e-07
-8.47477e-09
9.34317e-07
4.24522e-09
-6.82553e-09
8.95745e-07
-7.19016e-09
9.09068e-07
3.74488e-09
-3.54736e-09
8.14876e-07
-4.10618e-09
8.26705e-07
2.48516e-09
5.27694e-07
5.34615e-07
7.89392e-09
6.29178e-09
5.13508e-07
7.00256e-09
5.35506e-07
1.27018e-08
1.14074e-08
7.97058e-07
1.21306e-08
8.34279e-07
1.43667e-08
1.28389e-08
8.79947e-07
1.34119e-08
9.22154e-07
1.50107e-08
1.18817e-08
9.06458e-07
1.234e-08
9.504e-07
1.52268e-08
9.92804e-09
9.15968e-07
1.02935e-08
9.60462e-07
1.52884e-08
7.73259e-09
9.19817e-07
8.01439e-09
9.64459e-07
1.53017e-08
5.6044e-09
9.2154e-07
5.80919e-09
9.66204e-07
1.53017e-08
3.6254e-09
9.22358e-07
3.75864e-09
9.67013e-07
1.52991e-08
1.77682e-09
9.22747e-07
1.84241e-09
9.67388e-07
1.52973e-08
-4.90023e-15
9.22903e-07
-4.84588e-15
9.67537e-07
1.52973e-08
-1.77683e-09
9.22903e-07
-1.84242e-09
9.67537e-07
1.52991e-08
-3.62541e-09
9.22747e-07
-3.75865e-09
9.67388e-07
1.53017e-08
-5.60441e-09
9.22358e-07
-5.80921e-09
9.67013e-07
1.53017e-08
-7.73261e-09
9.2154e-07
-8.0144e-09
9.66204e-07
1.52884e-08
-9.92806e-09
9.19817e-07
-1.02936e-08
9.64459e-07
1.52268e-08
-1.18817e-08
9.15968e-07
-1.234e-08
9.60462e-07
1.50107e-08
-1.28389e-08
9.06458e-07
-1.34119e-08
9.504e-07
1.43667e-08
-1.14074e-08
8.79947e-07
-1.21306e-08
9.22154e-07
1.27018e-08
-6.2918e-09
7.97058e-07
-7.00258e-09
8.34279e-07
7.89392e-09
5.13508e-07
5.35506e-07
4.48741e-08
1.4241e-08
4.54393e-07
1.75512e-08
5.62829e-07
7.5292e-08
2.10453e-08
7.14962e-07
2.51431e-08
9.01979e-07
8.51092e-08
2.08304e-08
7.95052e-07
2.42792e-08
1.00813e-06
8.85392e-08
1.76448e-08
8.21105e-07
2.04093e-08
1.04281e-06
8.96674e-08
1.38409e-08
8.30104e-07
1.60225e-08
1.05452e-06
8.99854e-08
1.03064e-08
8.33366e-07
1.19693e-08
1.0585e-06
9.00424e-08
7.24112e-09
8.34562e-07
8.43778e-09
1.05978e-06
9.00266e-08
4.59031e-09
8.34982e-07
5.36343e-09
1.06011e-06
9.00005e-08
2.22429e-09
8.35112e-07
2.60338e-09
1.06015e-06
8.99845e-08
-2.34142e-15
8.35143e-07
-1.72466e-15
1.06013e-06
8.99845e-08
-2.2243e-09
8.35143e-07
-2.60338e-09
1.06013e-06
9.00005e-08
-4.59032e-09
8.35112e-07
-5.36344e-09
1.06015e-06
9.00266e-08
-7.24113e-09
8.34982e-07
-8.43779e-09
1.06011e-06
9.00424e-08
-1.03064e-08
8.34562e-07
-1.19693e-08
1.05978e-06
8.99854e-08
-1.38409e-08
8.33366e-07
-1.60225e-08
1.0585e-06
8.96674e-08
-1.76448e-08
8.30104e-07
-2.04094e-08
1.05452e-06
8.85392e-08
-2.08304e-08
8.21105e-07
-2.42793e-08
1.04281e-06
8.51092e-08
-2.10453e-08
7.95052e-07
-2.51431e-08
1.00813e-06
7.5292e-08
-1.4241e-08
7.14962e-07
-1.75513e-08
9.01979e-07
4.48741e-08
4.54393e-07
5.62829e-07
1.31685e-07
2.60065e-08
2.96701e-07
3.38197e-08
3.7944e-07
2.81255e-07
2.23103e-07
3.29163e-08
4.8495e-07
4.85321e-08
6.635e-07
4.46869e-07
2.53055e-07
3.03952e-08
5.44518e-07
4.72269e-08
7.61575e-07
5.00912e-07
2.63025e-07
2.4798e-08
5.63676e-07
3.99087e-08
7.9442e-07
5.18732e-07
2.66179e-07
1.90004e-08
5.69722e-07
3.14207e-08
8.04842e-07
5.24341e-07
2.67002e-07
1.39367e-08
5.71428e-07
2.35311e-08
8.0764e-07
5.25748e-07
2.67075e-07
9.70014e-09
5.71724e-07
1.66315e-08
8.07974e-07
5.25778e-07
2.66954e-07
6.11552e-09
5.71613e-07
1.05971e-08
8.07638e-07
5.25464e-07
2.66827e-07
2.9551e-09
5.71445e-07
5.15262e-09
8.07253e-07
5.25166e-07
2.66755e-07
1.64251e-15
5.71343e-07
8.83464e-15
8.0703e-07
5.25003e-07
2.66755e-07
-2.9551e-09
5.71343e-07
-5.1526e-09
8.0703e-07
5.25003e-07
2.66827e-07
-6.11552e-09
5.71445e-07
-1.05971e-08
8.07253e-07
5.25166e-07
2.66954e-07
-9.70014e-09
5.71613e-07
-1.66315e-08
8.07638e-07
5.25464e-07
2.67075e-07
-1.39367e-08
5.71724e-07
-2.35311e-08
8.07974e-07
5.25778e-07
2.67002e-07
-1.90005e-08
5.71428e-07
-3.14208e-08
8.0764e-07
5.25748e-07
2.66179e-07
-2.4798e-08
5.69722e-07
-3.99088e-08
8.04842e-07
5.24341e-07
2.63025e-07
-3.03952e-08
5.63676e-07
-4.7227e-08
7.9442e-07
5.18732e-07
2.53055e-07
-3.29163e-08
5.44518e-07
-4.85322e-08
7.61575e-07
5.00912e-07
2.23103e-07
-2.60066e-08
4.8495e-07
-3.38197e-08
6.635e-07
4.46869e-07
1.31685e-07
2.96701e-07
3.7944e-07
2.81255e-07
9.27583e-08
2.08228e-08
1.8312e-07
2.48254e-08
2.49389e-07
1.97984e-07
1.68018e-07
3.06472e-08
3.07107e-07
4.65724e-08
4.57728e-07
3.52043e-07
1.95021e-07
3.07885e-08
3.49355e-07
5.16754e-08
5.38995e-07
4.12498e-07
2.04821e-07
2.64779e-08
3.63166e-07
4.73065e-08
5.68109e-07
4.355e-07
2.08056e-07
2.10347e-08
3.67109e-07
3.93086e-08
5.77234e-07
4.43662e-07
2.08885e-07
1.58243e-08
3.67753e-07
3.05607e-08
5.79151e-07
4.46122e-07
2.08917e-07
1.12089e-08
3.67422e-07
2.21643e-08
5.78751e-07
4.46536e-07
2.08749e-07
7.14921e-09
3.66924e-07
1.43639e-08
5.77845e-07
4.46342e-07
2.08588e-07
3.47767e-09
3.66529e-07
7.05185e-09
5.77079e-07
4.46075e-07
2.085e-07
5.02377e-15
3.6632e-07
1.69568e-14
5.76665e-07
4.45916e-07
2.085e-07
-3.47766e-09
3.6632e-07
-7.05182e-09
5.76665e-07
4.45916e-07
2.08588e-07
-7.1492e-09
3.66529e-07
-1.43638e-08
5.77079e-07
4.46075e-07
2.08749e-07
-1.12089e-08
3.66924e-07
-2.21643e-08
5.77845e-07
4.46342e-07
2.08917e-07
-1.58243e-08
3.67422e-07
-3.05607e-08
5.78751e-07
4.46536e-07
2.08885e-07
-2.10347e-08
3.67753e-07
-3.93087e-08
5.79151e-07
4.46122e-07
2.08056e-07
-2.64779e-08
3.67109e-07
-4.73066e-08
5.77234e-07
4.43662e-07
2.04821e-07
-3.07885e-08
3.63166e-07
-5.16755e-08
5.68109e-07
4.355e-07
1.95021e-07
-3.06472e-08
3.49355e-07
-4.65725e-08
5.38995e-07
4.12498e-07
1.68018e-07
-2.08228e-08
3.07107e-07
-2.48254e-08
4.57728e-07
3.52043e-07
9.27583e-08
1.8312e-07
2.49389e-07
1.97984e-07
5.59287e-08
1.65704e-08
1.1062e-07
2.12233e-08
1.61138e-07
1.22956e-07
1.07843e-07
2.59607e-08
1.89873e-07
4.06929e-08
3.0793e-07
2.38171e-07
1.2921e-07
2.75831e-08
2.18523e-07
4.7929e-08
3.70316e-07
2.90652e-07
1.3784e-07
2.48471e-08
2.28061e-07
4.6333e-08
3.94213e-07
3.13333e-07
1.40984e-07
2.04867e-08
2.30485e-07
4.02159e-08
4.01833e-07
3.22502e-07
1.4193e-07
1.5862e-08
2.30448e-07
3.23269e-08
4.03109e-07
3.25861e-07
1.42079e-07
1.14771e-08
2.29728e-07
2.40235e-08
4.02255e-07
3.26878e-07
1.41993e-07
7.42765e-09
2.2898e-07
1.58277e-08
4.00985e-07
3.27049e-07
1.41882e-07
3.64387e-09
2.2843e-07
7.84488e-09
3.99958e-07
3.26986e-07
1.41817e-07
7.51174e-15
2.28147e-07
2.35713e-14
3.99409e-07
3.26918e-07
1.41817e-07
-3.64385e-09
2.28147e-07
-7.84484e-09
3.99409e-07
3.26918e-07
1.41882e-07
-7.42764e-09
2.2843e-07
-1.58277e-08
3.99958e-07
3.26986e-07
1.41993e-07
-1.14771e-08
2.2898e-07
-2.40235e-08
4.00985e-07
3.27049e-07
1.42079e-07
-1.5862e-08
2.29728e-07
-3.23269e-08
4.02255e-07
3.26878e-07
1.4193e-07
-2.04867e-08
2.30448e-07
-4.0216e-08
4.03109e-07
3.25861e-07
1.40984e-07
-2.48472e-08
2.30485e-07
-4.63331e-08
4.01833e-07
3.22502e-07
1.3784e-07
-2.75831e-08
2.28061e-07
-4.79291e-08
3.94213e-07
3.13333e-07
1.2921e-07
-2.59607e-08
2.18523e-07
-4.0693e-08
3.70317e-07
2.90652e-07
1.07843e-07
-1.65704e-08
1.89873e-07
-2.12233e-08
3.0793e-07
2.38171e-07
5.59287e-08
1.1062e-07
1.61138e-07
1.22956e-07
3.23869e-08
1.23785e-08
6.58551e-08
1.63804e-08
1.02499e-07
7.46462e-08
6.60142e-08
2.05388e-08
1.15699e-07
3.27691e-08
2.02726e-07
1.54829e-07
8.15461e-08
2.28803e-08
1.34635e-07
4.05039e-08
2.48331e-07
1.95796e-07
8.84789e-08
2.14724e-08
1.4099e-07
4.09111e-08
2.66774e-07
2.1551e-07
9.12924e-08
1.83202e-08
1.42345e-07
3.68338e-08
2.72756e-07
2.24447e-07
9.22954e-08
1.45765e-08
1.41897e-07
3.04776e-08
2.73513e-07
2.28247e-07
9.257e-08
1.07656e-08
1.40969e-07
2.31439e-08
2.72421e-07
2.29738e-07
9.25893e-08
7.06685e-09
1.4009e-07
1.54763e-08
2.70982e-07
2.3026e-07
9.25467e-08
3.49581e-09
1.39455e-07
7.73726e-09
2.69829e-07
2.30414e-07
9.25144e-08
9.13861e-15
1.39128e-07
2.82217e-14
2.69212e-07
2.30448e-07
9.25144e-08
-3.4958e-09
1.39128e-07
-7.7372e-09
2.69212e-07
2.30448e-07
9.25467e-08
-7.06684e-09
1.39455e-07
-1.54762e-08
2.69829e-07
2.30414e-07
9.25893e-08
-1.07656e-08
1.4009e-07
-2.31439e-08
2.70982e-07
2.3026e-07
9.25701e-08
-1.45765e-08
1.40969e-07
-3.04776e-08
2.72421e-07
2.29738e-07
9.22954e-08
-1.83203e-08
1.41897e-07
-3.68338e-08
2.73513e-07
2.28247e-07
9.12924e-08
-2.14725e-08
1.42345e-07
-4.09112e-08
2.72756e-07
2.24447e-07
8.84789e-08
-2.28803e-08
1.4099e-07
-4.05039e-08
2.66774e-07
2.1551e-07
8.15461e-08
-2.05389e-08
1.34635e-07
-3.27692e-08
2.48331e-07
1.95796e-07
6.60142e-08
-1.23786e-08
1.15699e-07
-1.63804e-08
2.02726e-07