/*--------------------------------*- C++ -*----------------------------------*\
  =========                 |
  \\      /  F ield         | OpenFOAM: The Open Source CFD Toolbox
   \\    /   O peration     | Website:  https://openfoam.org
    \\  /    A nd           | Version:  6
     \\/     M anipulation  |
\*---------------------------------------------------------------------------*/
FoamFile
{
    version     2.0;
    format      ascii;
    class       volScalarField;
    location    "0.315";
    object      T;
}
// * * * * * * * * * * * * * * * * * * * * * * * * * * * * * * * * * * * * * //

dimensions      [0 0 0 1 0 0 0];

internalField   nonuniform List<scalar> 
7000
(
104.45
104.449
104.447
104.444
104.441
104.437
104.433
104.43
104.427
104.426
104.45
104.449
104.447
104.444
104.441
104.437
104.433
104.43
104.427
104.426
104.45
104.449
104.447
104.444
104.441
104.437
104.433
104.43
104.427
104.426
104.45
104.449
104.447
104.444
104.441
104.437
104.433
104.43
104.427
104.426
104.45
104.449
104.447
104.444
104.441
104.437
104.433
104.43
104.427
104.426
104.45
104.449
104.447
104.444
104.441
104.437
104.433
104.43
104.427
104.426
104.45
104.449
104.447
104.444
104.441
104.437
104.433
104.43
104.427
104.426
104.45
104.449
104.447
104.444
104.441
104.437
104.433
104.43
104.427
104.426
104.45
104.449
104.447
104.444
104.441
104.437
104.433
104.43
104.427
104.426
104.45
104.449
104.447
104.444
104.441
104.437
104.433
104.43
104.427
104.426
93.4365
93.4336
93.428
93.4198
93.4095
93.3978
93.3857
93.3746
93.366
93.3613
93.4365
93.4336
93.4279
93.4198
93.4095
93.3978
93.3856
93.3745
93.3659
93.3612
93.4364
93.4335
93.4279
93.4197
93.4095
93.3977
93.3856
93.3745
93.3659
93.3612
93.4364
93.4335
93.4279
93.4197
93.4094
93.3977
93.3856
93.3745
93.3659
93.3612
93.4364
93.4335
93.4279
93.4197
93.4094
93.3977
93.3856
93.3745
93.3659
93.3612
93.4364
93.4335
93.4279
93.4197
93.4094
93.3977
93.3856
93.3745
93.3659
93.3612
93.4364
93.4335
93.4279
93.4197
93.4094
93.3977
93.3856
93.3745
93.3659
93.3612
93.4364
93.4335
93.4279
93.4197
93.4094
93.3977
93.3856
93.3745
93.3659
93.3612
93.4364
93.4335
93.4279
93.4198
93.4095
93.3977
93.3856
93.3745
93.3659
93.3612
93.4364
93.4336
93.4279
93.4198
93.4095
93.3978
93.3857
93.3745
93.3659
93.3613
82.6826
82.6775
82.6673
82.6525
82.6336
82.6118
82.5891
82.568
82.5514
82.5423
82.6826
82.6774
82.6672
82.6524
82.6335
82.6118
82.589
82.5679
82.5514
82.5422
82.6825
82.6773
82.6672
82.6523
82.6335
82.6117
82.589
82.5678
82.5513
82.5422
82.6825
82.6773
82.6672
82.6523
82.6334
82.6117
82.589
82.5678
82.5513
82.5422
82.6825
82.6773
82.6671
82.6523
82.6334
82.6117
82.5889
82.5678
82.5513
82.5422
82.6825
82.6773
82.6671
82.6523
82.6334
82.6117
82.5889
82.5678
82.5513
82.5422
82.6825
82.6773
82.6671
82.6523
82.6334
82.6117
82.589
82.5678
82.5513
82.5422
82.6825
82.6773
82.6672
82.6523
82.6335
82.6117
82.589
82.5678
82.5513
82.5422
82.6825
82.6773
82.6672
82.6524
82.6335
82.6118
82.589
82.5679
82.5514
82.5422
82.6825
82.6774
82.6672
82.6524
82.6335
82.6118
82.5891
82.5679
82.5514
82.5423
72.3473
72.3393
72.3234
72.3001
72.2699
72.2346
72.197
72.1614
72.1329
72.117
72.3472
72.3392
72.3234
72.3
72.2698
72.2345
72.1969
72.1613
72.1329
72.117
72.3471
72.3391
72.3233
72.2999
72.2698
72.2345
72.1969
72.1612
72.1328
72.1169
72.3471
72.3391
72.3232
72.2999
72.2697
72.2344
72.1968
72.1612
72.1328
72.1169
72.3471
72.3391
72.3232
72.2998
72.2697
72.2344
72.1968
72.1612
72.1328
72.1169
72.3471
72.339
72.3232
72.2998
72.2697
72.2344
72.1968
72.1612
72.1328
72.1169
72.3471
72.3391
72.3232
72.2999
72.2697
72.2344
72.1968
72.1612
72.1328
72.1169
72.3471
72.3391
72.3233
72.2999
72.2697
72.2345
72.1969
72.1612
72.1328
72.1169
72.3471
72.3391
72.3233
72.2999
72.2698
72.2345
72.1969
72.1613
72.1329
72.117
72.3472
72.3392
72.3234
72.3
72.2699
72.2346
72.197
72.1613
72.1329
72.1171
62.5707
62.5591
62.5361
62.5015
62.4562
62.402
62.3428
62.285
62.2377
62.2106
62.5706
62.559
62.5359
62.5014
62.4561
62.4019
62.3427
62.2849
62.2376
62.2106
62.5705
62.5589
62.5359
62.5014
62.456
62.4018
62.3426
62.2848
62.2375
62.2105
62.5705
62.5589
62.5358
62.5013
62.456
62.4018
62.3425
62.2848
62.2375
62.2105
62.5704
62.5589
62.5358
62.5013
62.456
62.4018
62.3425
62.2848
62.2375
62.2104
62.5704
62.5589
62.5358
62.5013
62.456
62.4018
62.3425
62.2848
62.2375
62.2104
62.5704
62.5589
62.5358
62.5013
62.456
62.4018
62.3425
62.2848
62.2375
62.2105
62.5705
62.5589
62.5358
62.5013
62.456
62.4018
62.3426
62.2848
62.2376
62.2105
62.5705
62.559
62.5359
62.5014
62.4561
62.4019
62.3427
62.2849
62.2376
62.2106
62.5706
62.5591
62.536
62.5015
62.4562
62.402
62.3427
62.285
62.2377
62.2107
53.4686
53.4526
53.4205
53.3716
53.3061
53.2255
53.1344
53.0422
52.9637
52.9171
53.4685
53.4525
53.4203
53.3715
53.3059
53.2253
53.1343
53.0421
52.9636
52.917
53.4684
53.4524
53.4203
53.3714
53.3059
53.2253
53.1342
53.042
52.9635
52.917
53.4683
53.4524
53.4202
53.3713
53.3058
53.2252
53.1342
53.042
52.9635
52.9169
53.4683
53.4523
53.4202
53.3713
53.3058
53.2252
53.1342
53.042
52.9634
52.9169
53.4683
53.4523
53.4202
53.3713
53.3058
53.2252
53.1342
53.042
52.9634
52.9169
53.4683
53.4524
53.4202
53.3713
53.3058
53.2252
53.1342
53.042
52.9635
52.917
53.4684
53.4524
53.4202
53.3714
53.3059
53.2253
53.1342
53.0421
52.9635
52.917
53.4684
53.4525
53.4203
53.3715
53.3059
53.2254
53.1343
53.0421
52.9636
52.9171
53.4685
53.4526
53.4204
53.3716
53.306
53.2255
53.1344
53.0422
52.9637
52.9172
45.1285
45.1073
45.0642
44.9976
44.906
44.7895
44.6523
44.5062
44.3743
44.2915
45.1284
45.1072
45.0641
44.9975
44.9059
44.7894
44.6522
44.5061
44.3742
44.2914
45.1283
45.1071
45.064
44.9974
44.9058
44.7893
44.6521
44.506
44.3741
44.2913
45.1282
45.1071
45.064
44.9973
44.9057
44.7893
44.6521
44.5059
44.374
44.2913
45.1282
45.107
45.0639
44.9973
44.9057
44.7892
44.6521
44.5059
44.374
44.2913
45.1282
45.107
45.0639
44.9973
44.9057
44.7892
44.6521
44.5059
44.374
44.2913
45.1282
45.1071
45.064
44.9973
44.9057
44.7893
44.6521
44.506
44.3741
44.2913
45.1283
45.1071
45.064
44.9974
44.9058
44.7893
44.6522
44.506
44.3741
44.2914
45.1283
45.1072
45.0641
44.9975
44.9059
44.7894
44.6523
44.5061
44.3742
44.2915
45.1284
45.1073
45.0642
44.9976
44.906
44.7895
44.6524
44.5062
44.3743
44.2916
37.6082
37.5813
37.5259
37.4386
37.3152
37.1523
36.9504
36.7205
36.4948
36.3391
37.608
37.5812
37.5257
37.4385
37.3151
37.1522
36.9503
36.7203
36.4947
36.339
37.6079
37.5811
37.5257
37.4384
37.315
37.1521
36.9502
36.7203
36.4947
36.3389
37.6079
37.581
37.5256
37.4383
37.3149
37.152
36.9501
36.7202
36.4946
36.3389
37.6078
37.581
37.5256
37.4383
37.3149
37.152
36.9501
36.7202
36.4946
36.3389
37.6078
37.581
37.5256
37.4383
37.3149
37.152
36.9501
36.7202
36.4946
36.3389
37.6079
37.581
37.5256
37.4383
37.315
37.1521
36.9501
36.7202
36.4947
36.3389
37.6079
37.5811
37.5257
37.4384
37.315
37.1521
36.9502
36.7203
36.4947
36.339
37.608
37.5811
37.5257
37.4385
37.3151
37.1522
36.9503
36.7204
36.4948
36.3391
37.6081
37.5812
37.5259
37.4386
37.3152
37.1523
36.9504
36.7205
36.4949
36.3392
30.9357
30.9031
30.8351
30.726
30.5674
30.3492
30.0625
29.7075
29.3148
28.9952
30.9356
30.9029
30.835
30.7258
30.5673
30.3491
30.0624
29.7074
29.3147
28.9951
30.9355
30.9029
30.8349
30.7258
30.5672
30.349
30.0624
29.7073
29.3147
28.9951
30.9354
30.9028
30.8348
30.7257
30.5671
30.349
30.0623
29.7073
29.3146
28.995
30.9354
30.9028
30.8348
30.7257
30.5671
30.349
30.0623
29.7072
29.3146
28.995
30.9354
30.9028
30.8348
30.7257
30.5671
30.349
30.0623
29.7072
29.3146
28.995
30.9354
30.9028
30.8348
30.7257
30.5671
30.349
30.0623
29.7073
29.3147
28.995
30.9355
30.9029
30.8349
30.7258
30.5672
30.3491
30.0624
29.7073
29.3147
28.9951
30.9355
30.9029
30.835
30.7259
30.5673
30.3492
30.0625
29.7074
29.3148
28.9952
30.9356
30.903
30.8351
30.726
30.5674
30.3493
30.0626
29.7075
29.3149
28.9953
25.1114
25.0737
24.9947
24.8657
24.6736
24.399
24.0158
23.4925
22.8108
22.0726
25.1112
25.0736
24.9945
24.8656
24.6735
24.3989
24.0157
23.4924
22.8108
22.0726
25.1112
25.0736
24.9945
24.8655
24.6734
24.3988
24.0156
23.4924
22.8107
22.0725
25.1111
25.0735
24.9944
24.8655
24.6734
24.3988
24.0156
23.4923
22.8107
22.0725
25.1111
25.0735
24.9944
24.8654
24.6733
24.3988
24.0155
23.4923
22.8106
22.0724
25.1111
25.0735
24.9944
24.8655
24.6733
24.3988
24.0155
23.4923
22.8107
22.0725
25.1111
25.0735
24.9944
24.8655
24.6734
24.3988
24.0156
23.4923
22.8107
22.0725
25.1112
25.0736
24.9945
24.8655
24.6734
24.3989
24.0156
23.4924
22.8107
22.0725
25.1112
25.0736
24.9946
24.8656
24.6735
24.3989
24.0157
23.4925
22.8108
22.0726
25.1113
25.0737
24.9947
24.8657
24.6736
24.3991
24.0158
23.4926
22.8109
22.0727
20.1105
20.0696
19.9829
19.8402
19.6241
19.3072
18.8446
18.1555
17.066
15.0996
20.1104
20.0695
19.9828
19.8401
19.624
19.3071
18.8445
18.1554
17.0659
15.0995
20.1104
20.0694
19.9827
19.84
19.624
19.307
18.8444
18.1554
17.0659
15.0995
20.1103
20.0693
19.9827
19.84
19.6239
19.307
18.8444
18.1553
17.0658
15.0994
20.1103
20.0693
19.9827
19.84
19.6239
19.307
18.8444
18.1553
17.0658
15.0994
20.1103
20.0693
19.9827
19.84
19.6239
19.307
18.8444
18.1553
17.0658
15.0994
20.1103
20.0693
19.9827
19.84
19.6239
19.307
18.8444
18.1553
17.0659
15.0995
20.1104
20.0694
19.9827
19.84
19.624
19.3071
18.8445
18.1554
17.0659
15.0995
20.1104
20.0695
19.9828
19.8401
19.6241
19.3072
18.8446
18.1555
17.066
15.0996
20.1105
20.0696
19.9829
19.8402
19.6242
19.3073
18.8447
18.1556
17.0661
15.0997
15.8877
15.8456
15.7564
15.6094
15.3862
15.0584
14.5808
13.8803
12.8356
11.2606
15.8876
15.8455
15.7563
15.6093
15.3862
15.0583
14.5807
13.8802
12.8356
11.2605
15.8875
15.8454
15.7563
15.6092
15.3861
15.0582
14.5806
13.8802
12.8355
11.2605
15.8874
15.8454
15.7562
15.6092
15.3861
15.0582
14.5806
13.8802
12.8355
11.2605
15.8874
15.8453
15.7562
15.6092
15.386
15.0582
14.5806
13.8801
12.8355
11.2605
15.8874
15.8454
15.7562
15.6092
15.386
15.0582
14.5806
13.8802
12.8355
11.2605
15.8875
15.8454
15.7563
15.6092
15.3861
15.0582
14.5806
13.8802
12.8355
11.2605
15.8875
15.8454
15.7563
15.6093
15.3861
15.0583
14.5807
13.8802
12.8356
11.2605
15.8876
15.8455
15.7564
15.6093
15.3862
15.0584
14.5808
13.8803
12.8356
11.2606
15.8876
15.8456
15.7565
15.6094
15.3863
15.0585
14.5809
13.8804
12.8357
11.2607
12.3807
12.3399
12.2538
12.1124
11.8998
11.5921
11.1556
10.5449
9.70738
8.61193
12.3806
12.3398
12.2537
12.1123
11.8997
11.592
11.1555
10.5448
9.70731
8.61187
12.3805
12.3398
12.2536
12.1123
11.8996
11.5919
11.1554
10.5448
9.70726
8.61182
12.3805
12.3397
12.2536
12.1122
11.8996
11.5919
11.1554
10.5448
9.70723
8.6118
12.3805
12.3397
12.2536
12.1122
11.8996
11.5919
11.1554
10.5448
9.70722
8.61179
12.3805
12.3397
12.2536
12.1122
11.8996
11.5919
11.1554
10.5448
9.70723
8.61179
12.3805
12.3397
12.2536
12.1123
11.8996
11.5919
11.1554
10.5448
9.70726
8.61182
12.3806
12.3398
12.2537
12.1123
11.8997
11.592
11.1555
10.5448
9.7073
8.61186
12.3806
12.3399
12.2537
12.1124
11.8997
11.592
11.1555
10.5449
9.70737
8.61192
12.3807
12.3399
12.2538
12.1125
11.8998
11.5921
11.1556
10.545
9.70745
8.612
9.51629
9.47891
9.40034
9.27265
9.08352
8.81617
8.44988
7.96316
7.34326
6.6097
9.51622
9.47884
9.40027
9.27258
9.08346
8.8161
8.44982
7.9631
7.3432
6.60965
9.51617
9.47879
9.40022
9.27253
9.08341
8.81606
8.44978
7.96306
7.34316
6.60961
9.51614
9.47875
9.40019
9.2725
9.08338
8.81603
8.44975
7.96303
7.34313
6.60958
9.51612
9.47874
9.40018
9.27249
9.08337
8.81602
8.44974
7.96302
7.34312
6.60957
9.51613
9.47874
9.40018
9.27249
9.08338
8.81603
8.44975
7.96303
7.34313
6.60958
9.51615
9.47877
9.40021
9.27252
9.0834
8.81605
8.44978
7.96306
7.34315
6.6096
9.51619
9.47881
9.40025
9.27256
9.08344
8.8161
8.44982
7.9631
7.34319
6.60964
9.51624
9.47887
9.40031
9.27262
9.08351
8.81616
8.44988
7.96316
7.34325
6.60969
9.5163
9.47894
9.40039
9.27271
9.08359
8.81624
8.44996
7.96323
7.34332
6.60976
7.21499
7.18238
7.11434
7.0051
6.84631
6.62764
6.33865
5.97264
5.53452
5.05366
7.21493
7.18232
7.11428
7.00505
6.84625
6.62759
6.33859
5.97259
5.53447
5.05361
7.21488
7.18228
7.11424
7.00501
6.84621
6.62755
6.33856
5.97255
5.53444
5.05358
7.21486
7.18225
7.11421
7.00498
6.84619
6.62752
6.33853
5.97253
5.53442
5.05356
7.21485
7.18224
7.1142
7.00497
6.84618
6.62752
6.33853
5.97252
5.53441
5.05355
7.21485
7.18225
7.11421
7.00498
6.84618
6.62752
6.33853
5.97253
5.53442
5.05355
7.21487
7.18227
7.11423
7.005
6.84621
6.62755
6.33856
5.97255
5.53444
5.05357
7.2149
7.1823
7.11426
7.00504
6.84624
6.62758
6.33859
5.97259
5.53447
5.05361
7.21495
7.18235
7.11432
7.00509
6.8463
6.62764
6.33864
5.97264
5.53452
5.05365
7.215
7.18242
7.11439
7.00516
6.84637
6.62771
6.33871
5.97271
5.53459
5.05372
5.39591
5.36873
5.31246
5.22334
5.09634
4.92613
4.70898
4.44602
4.14822
3.84231
5.39586
5.36868
5.31241
5.2233
5.0963
4.92609
4.70893
4.44598
4.14818
3.84227
5.39582
5.36864
5.31237
5.22326
5.09627
4.92605
4.7089
4.44595
4.14815
3.84224
5.3958
5.36862
5.31235
5.22324
5.09625
4.92603
4.70888
4.44593
4.14813
3.84222
5.39579
5.36861
5.31234
5.22323
5.09624
4.92603
4.70888
4.44593
4.14813
3.84222
5.3958
5.36862
5.31235
5.22324
5.09625
4.92603
4.70888
4.44593
4.14813
3.84222
5.39581
5.36863
5.31237
5.22326
5.09626
4.92605
4.7089
4.44595
4.14815
3.84224
5.39584
5.36866
5.3124
5.22329
5.0963
4.92609
4.70893
4.44598
4.14818
3.84227
5.39588
5.36871
5.31244
5.22334
5.09634
4.92613
4.70898
4.44603
4.14822
3.84231
5.39593
5.36876
5.3125
5.2234
5.0964
4.92619
4.70904
4.44608
4.14828
3.84236
3.98086
3.95911
3.91446
3.84475
3.74744
3.62059
3.4645
3.2841
3.09172
2.90924
3.98082
3.95907
3.91442
3.84471
3.7474
3.62055
3.46447
3.28407
3.09168
2.9092
3.98079
3.95904
3.91439
3.84469
3.74738
3.62052
3.46444
3.28404
3.09166
2.90918
3.98077
3.95902
3.91437
3.84467
3.74736
3.62051
3.46443
3.28403
3.09164
2.90916
3.98077
3.95902
3.91437
3.84467
3.74736
3.6205
3.46442
3.28403
3.09164
2.90916
3.98077
3.95902
3.91437
3.84467
3.74736
3.62051
3.46443
3.28403
3.09164
2.90916
3.98078
3.95903
3.91439
3.84469
3.74738
3.62052
3.46444
3.28405
3.09166
2.90918
3.98081
3.95906
3.91441
3.84471
3.7474
3.62055
3.46447
3.28407
3.09168
2.9092
3.98084
3.9591
3.91445
3.84475
3.74744
3.62059
3.46451
3.28411
3.09172
2.90924
3.98088
3.95914
3.9145
3.8448
3.74749
3.62064
3.46455
3.28416
3.09176
2.90928
2.89732
2.88055
2.84642
2.79394
2.72223
2.63151
2.52441
2.40774
2.29432
2.20335
2.89728
2.88051
2.84639
2.79391
2.7222
2.63148
2.52438
2.40771
2.29429
2.20332
2.89726
2.88049
2.84637
2.79388
2.72218
2.63146
2.52436
2.40769
2.29427
2.2033
2.89725
2.88048
2.84636
2.79387
2.72217
2.63145
2.52435
2.40768
2.29426
2.20329
2.89724
2.88047
2.84635
2.79387
2.72216
2.63145
2.52435
2.40768
2.29426
2.20328
2.89725
2.88048
2.84636
2.79387
2.72217
2.63145
2.52435
2.40768
2.29426
2.20329
2.89726
2.88049
2.84637
2.79388
2.72218
2.63147
2.52436
2.4077
2.29427
2.2033
2.89728
2.88051
2.84639
2.79391
2.7222
2.63149
2.52439
2.40772
2.2943
2.20332
2.8973
2.88054
2.84642
2.79394
2.72224
2.63152
2.52442
2.40775
2.29433
2.20335
2.89734
2.88058
2.84646
2.79398
2.72228
2.63156
2.52446
2.40779
2.29436
2.20339
2.08039
2.06789
2.04269
2.00452
1.95355
1.89121
1.8213
1.75177
1.69688
1.67921
2.08036
2.06787
2.04267
2.00449
1.95353
1.89118
1.82128
1.75175
1.69686
1.67918
2.08035
2.06785
2.04265
2.00448
1.95351
1.89117
1.82127
1.75173
1.69684
1.67916
2.08034
2.06784
2.04264
2.00447
1.9535
1.89116
1.82126
1.75172
1.69683
1.67915
2.08033
2.06784
2.04264
2.00446
1.9535
1.89116
1.82125
1.75172
1.69683
1.67915
2.08033
2.06784
2.04264
2.00447
1.9535
1.89116
1.82126
1.75173
1.69684
1.67915
2.08034
2.06785
2.04265
2.00448
1.95352
1.89117
1.82127
1.75174
1.69685
1.67917
2.08036
2.06787
2.04267
2.0045
1.95353
1.89119
1.82129
1.75175
1.69686
1.67918
2.08038
2.06789
2.04269
2.00452
1.95356
1.89121
1.82131
1.75178
1.69689
1.67921
2.08041
2.06792
2.04272
2.00455
1.95359
1.89125
1.82134
1.75181
1.69692
1.67924
1.47382
1.46479
1.44674
1.41982
1.38471
1.34327
1.29949
1.26122
1.24383
1.28153
1.4738
1.46477
1.44672
1.4198
1.38469
1.34325
1.29947
1.2612
1.24382
1.28151
1.47379
1.46476
1.44671
1.41979
1.38468
1.34324
1.29946
1.26119
1.2438
1.2815
1.47378
1.46475
1.4467
1.41978
1.38467
1.34323
1.29945
1.26118
1.2438
1.28149
1.47378
1.46475
1.4467
1.41978
1.38467
1.34323
1.29945
1.26118
1.24379
1.28149
1.47378
1.46475
1.4467
1.41978
1.38468
1.34323
1.29945
1.26118
1.2438
1.28149
1.47379
1.46476
1.44671
1.41979
1.38468
1.34324
1.29946
1.26119
1.24381
1.2815
1.4738
1.46477
1.44672
1.4198
1.3847
1.34326
1.29948
1.2612
1.24382
1.28152
1.47382
1.46479
1.44674
1.41982
1.38472
1.34328
1.29949
1.26122
1.24384
1.28154
1.47384
1.46481
1.44677
1.41985
1.38474
1.3433
1.29952
1.26125
1.24387
1.28156
10.6042
8.21939
7.12621
7.03094
7.8744
9.74863
12.8929
17.7479
25.1083
36.5291
10.6041
8.21932
7.12613
7.03085
7.8743
9.74851
12.8927
17.7477
25.1081
36.5289
10.6041
8.21926
7.12608
7.03079
7.87422
9.74842
12.8926
17.7476
25.1079
36.5287
10.6041
8.21923
7.12604
7.03075
7.87418
9.74836
12.8926
17.7475
25.1078
36.5286
10.604
8.21921
7.12602
7.03073
7.87415
9.74833
12.8925
17.7474
25.1078
36.5285
10.604
8.21922
7.12603
7.03072
7.87415
9.74833
12.8925
17.7474
25.1078
36.5285
10.6041
8.21924
7.12605
7.03074
7.87417
9.74835
12.8925
17.7475
25.1078
36.5285
10.6041
8.21928
7.12608
7.03078
7.87421
9.74839
12.8926
17.7475
25.1079
36.5286
10.6042
8.21933
7.12613
7.03083
7.87426
9.74846
12.8927
17.7476
25.108
36.5288
10.6042
8.21939
7.12619
7.03089
7.87432
9.74853
12.8927
17.7477
25.1081
36.529
9.03908
7.44905
6.65585
6.65639
7.47686
9.21616
12.063
16.3107
22.3558
30.5751
9.03901
7.44898
6.65577
6.65631
7.47677
9.21605
12.0628
16.3105
22.3556
30.5749
9.03896
7.44893
6.65572
6.65625
7.4767
9.21597
12.0627
16.3104
22.3554
30.5747
9.03893
7.4489
6.65568
6.65621
7.47665
9.21591
12.0627
16.3103
22.3553
30.5746
9.03892
7.44889
6.65567
6.65619
7.47663
9.21588
12.0626
16.3103
22.3553
30.5746
9.03893
7.44889
6.65567
6.65619
7.47663
9.21588
12.0626
16.3103
22.3553
30.5746
9.03895
7.44891
6.65569
6.65621
7.47665
9.2159
12.0627
16.3103
22.3553
30.5746
9.03899
7.44895
6.65573
6.65625
7.47669
9.21595
12.0627
16.3104
22.3554
30.5747
9.03905
7.449
6.65578
6.6563
7.47674
9.21601
12.0628
16.3105
22.3555
30.5749
9.03913
7.44908
6.65585
6.65637
7.47682
9.2161
12.0629
16.3106
22.3557
30.575
7.35535
6.38124
5.90116
6.00848
6.77406
8.28945
10.6806
14.098
18.6645
24.3211
7.35529
6.38117
5.90109
6.00841
6.77397
8.28935
10.6805
14.0979
18.6643
24.3209
7.35524
6.38113
5.90104
6.00835
6.77391
8.28927
10.6804
14.0978
18.6642
24.3207
7.35522
6.3811
5.90101
6.00832
6.77387
8.28922
10.6803
14.0977
18.6641
24.3206
7.3552
6.38109
5.90099
6.0083
6.77384
8.2892
10.6803
14.0977
18.6641
24.3206
7.35521
6.38109
5.901
6.0083
6.77384
8.2892
10.6803
14.0977
18.6641
24.3206
7.35523
6.38111
5.90102
6.00832
6.77386
8.28922
10.6803
14.0977
18.6641
24.3206
7.35527
6.38115
5.90105
6.00835
6.7739
8.28926
10.6804
14.0978
18.6642
24.3207
7.35533
6.3812
5.9011
6.00841
6.77396
8.28933
10.6805
14.0979
18.6643
24.3209
7.3554
6.38127
5.90117
6.00848
6.77404
8.28942
10.6806
14.098
18.6645
24.321
5.85705
5.28245
5.03611
5.21633
5.8985
7.15558
9.06224
11.6789
15.0069
18.902
5.85699
5.28239
5.03604
5.21626
5.89842
7.15549
9.06213
11.6788
15.0067
18.9019
5.85695
5.28235
5.036
5.21621
5.89836
7.15542
9.06205
11.6787
15.0066
18.9017
5.85692
5.28232
5.03597
5.21617
5.89832
7.15538
9.062
11.6787
15.0065
18.9017
5.85692
5.28231
5.03596
5.21616
5.89831
7.15536
9.06197
11.6786
15.0065
18.9016
5.85692
5.28232
5.03596
5.21616
5.89831
7.15536
9.06197
11.6786
15.0065
18.9016
5.85694
5.28234
5.03598
5.21618
5.89833
7.15538
9.062
11.6787
15.0065
18.9017
5.85698
5.28237
5.03601
5.21621
5.89836
7.15542
9.06205
11.6787
15.0066
18.9018
5.85703
5.28242
5.03606
5.21627
5.89842
7.15549
9.06213
11.6788
15.0067
18.9019
5.8571
5.28249
5.03613
5.21634
5.8985
7.15557
9.06223
11.6789
15.0069
18.9021
4.59836
4.27429
4.17998
4.39344
4.9769
5.98239
7.44991
9.39408
11.7772
14.4723
4.59831
4.27424
4.17993
4.39338
4.97683
5.9823
7.44981
9.39397
11.777
14.4721
4.59827
4.27421
4.17989
4.39334
4.97678
5.98224
7.44974
9.39389
11.7769
14.472
4.59825
4.27418
4.17986
4.39331
4.97674
5.9822
7.44969
9.39384
11.7769
14.4719
4.59824
4.27417
4.17985
4.39329
4.97673
5.98219
7.44967
9.39381
11.7768
14.4719
4.59825
4.27418
4.17985
4.3933
4.97673
5.98219
7.44967
9.39381
11.7768
14.4719
4.59827
4.27419
4.17987
4.39331
4.97675
5.98221
7.4497
9.39384
11.7769
14.4719
4.5983
4.27423
4.1799
4.39335
4.97678
5.98225
7.44975
9.3939
11.7769
14.472
4.59835
4.27427
4.17995
4.39339
4.97684
5.98231
7.44982
9.39398
11.777
14.4721
4.59841
4.27433
4.18001
4.39346
4.97691
5.98239
7.44991
9.39409
11.7772
14.4723
3.57482
3.40805
3.40573
3.62383
4.108
4.89243
5.99588
7.41267
9.09941
10.9629
3.57477
3.40801
3.40568
3.62378
4.10794
4.89236
5.9958
7.41258
9.0993
10.9628
3.57474
3.40798
3.40565
3.62374
4.10789
4.89231
5.99574
7.41251
9.09922
10.9627
3.57472
3.40796
3.40563
3.62371
4.10786
4.89228
5.9957
7.41247
9.09917
10.9626
3.57472
3.40795
3.40562
3.6237
4.10785
4.89226
5.99568
7.41244
9.09915
10.9626
3.57472
3.40795
3.40562
3.6237
4.10785
4.89226
5.99568
7.41245
9.09916
10.9626
3.57474
3.40797
3.40564
3.62372
4.10787
4.89228
5.99571
7.41247
9.09919
10.9627
3.57477
3.408
3.40567
3.62375
4.1079
4.89232
5.99575
7.41252
9.09924
10.9627
3.57481
3.40804
3.40571
3.62379
4.10795
4.89237
5.99581
7.4126
9.09933
10.9628
3.57486
3.40809
3.40576
3.62385
4.10801
4.89245
5.9959
7.41269
9.09944
10.9629
2.76762
2.70269
2.75493
2.96311
3.35903
3.96377
4.78345
5.80371
6.98448
8.2594
2.76758
2.70265
2.75489
2.96306
3.35897
3.96371
4.78338
5.80363
6.98439
8.2593
2.76756
2.70262
2.75486
2.96303
3.35893
3.96366
4.78333
5.80357
6.98433
8.25922
2.76754
2.7026
2.75484
2.96301
3.35891
3.96363
4.78329
5.80354
6.98428
8.25918
2.76754
2.7026
2.75483
2.963
3.3589
3.96362
4.78328
5.80352
6.98427
8.25916
2.76754
2.7026
2.75484
2.963
3.3589
3.96362
4.78328
5.80352
6.98427
8.25916
2.76756
2.70262
2.75485
2.96302
3.35892
3.96364
4.7833
5.80355
6.9843
8.2592
2.76758
2.70264
2.75488
2.96304
3.35895
3.96368
4.78334
5.80359
6.98435
8.25926
2.76761
2.70268
2.75492
2.96308
3.35899
3.96372
4.7834
5.80366
6.98442
8.25934
2.76766
2.70272
2.75496
2.96313
3.35905
3.96379
4.78347
5.80374
6.98452
8.25945
2.15599
2.16315
2.25012
2.44523
2.7714
3.24118
3.85288
4.58689
5.40414
6.25108
2.15596
2.16311
2.25008
2.44519
2.77135
3.24113
3.85282
4.58683
5.40407
6.251
2.15594
2.16309
2.25006
2.44516
2.77132
3.24109
3.85277
4.58678
5.40401
6.25094
2.15593
2.16307
2.25004
2.44514
2.7713
3.24107
3.85274
4.58675
5.40398
6.2509
2.15592
2.16307
2.25004
2.44514
2.77129
3.24106
3.85273
4.58673
5.40397
6.25088
2.15592
2.16307
2.25004
2.44514
2.77129
3.24106
3.85274
4.58674
5.40397
6.25089
2.15594
2.16308
2.25005
2.44515
2.7713
3.24108
3.85276
4.58676
5.404
6.25092
2.15596
2.16311
2.25008
2.44518
2.77133
3.24111
3.85279
4.5868
5.40404
6.25097
2.15599
2.16314
2.25011
2.44521
2.77137
3.24115
3.85284
4.58686
5.4041
6.25104
2.15603
2.16318
2.25015
2.44526
2.77142
3.24121
3.8529
4.58693
5.40419
6.25114
1.72369
1.79117
1.90411
2.09005
2.36891
2.74876
3.22273
3.76554
4.33102
4.85536
1.72367
1.79114
1.90408
2.09001
2.36886
2.74872
3.22268
3.76549
4.33095
4.85529
1.72365
1.79112
1.90405
2.08999
2.36884
2.74868
3.22264
3.76545
4.33091
4.85524
1.72364
1.79111
1.90404
2.08997
2.36882
2.74866
3.22262
3.76542
4.33088
4.85521
1.72363
1.79111
1.90404
2.08997
2.36881
2.74866
3.22261
3.76541
4.33087
4.8552
1.72364
1.79111
1.90404
2.08997
2.36881
2.74866
3.22261
3.76541
4.33087
4.85521
1.72365
1.79112
1.90405
2.08998
2.36883
2.74867
3.22263
3.76544
4.3309
4.85523
1.72367
1.79114
1.90407
2.09
2.36885
2.7487
3.22266
3.76547
4.33094
4.85527
1.72369
1.79117
1.9041
2.09004
2.36889
2.74874
3.2227
3.76552
4.33099
4.85534
1.72373
1.79121
1.90414
2.09008
2.36893
2.74879
3.22276
3.76559
4.33107
4.85542
1.47195
1.59461
1.72666
1.90928
2.16461
2.4994
2.90378
3.34686
3.76807
4.0575
1.47193
1.59459
1.72663
1.90925
2.16458
2.49937
2.90374
3.34682
3.76802
4.05745
1.47192
1.59457
1.72661
1.90923
2.16455
2.49934
2.90371
3.34678
3.76799
4.05741
1.47191
1.59456
1.7266
1.90922
2.16454
2.49932
2.90369
3.34676
3.76796
4.05738
1.47191
1.59455
1.7266
1.90921
2.16453
2.49932
2.90368
3.34675
3.76795
4.05737
1.47191
1.59456
1.7266
1.90922
2.16454
2.49932
2.90369
3.34676
3.76796
4.05738
1.47192
1.59457
1.72661
1.90923
2.16455
2.49934
2.9037
3.34678
3.76798
4.0574
1.47194
1.59459
1.72663
1.90925
2.16457
2.49936
2.90373
3.34681
3.76802
4.05744
1.47196
1.59461
1.72666
1.90928
2.16461
2.4994
2.90378
3.34686
3.76807
4.0575
1.47199
1.59465
1.72669
1.90932
2.16465
2.49945
2.90383
3.34692
3.76814
4.05757
55.5205
63.8932
68.5389
71.4646
73.4145
74.7393
75.6354
76.2231
76.5781
76.7452
55.5202
63.8928
68.5385
71.4641
73.414
74.7389
75.6349
76.2227
76.5777
76.7449
55.5199
63.8926
68.5382
71.4639
73.4138
74.7386
75.6346
76.2224
76.5774
76.7446
55.5198
63.8924
68.5381
71.4637
73.4136
74.7384
75.6345
76.2222
76.5773
76.7445
55.5197
63.8923
68.538
71.4636
73.4135
74.7383
75.6344
76.2222
76.5772
76.7444
55.5197
63.8923
68.538
71.4636
73.4135
74.7384
75.6344
76.2222
76.5773
76.7445
55.5198
63.8924
68.5381
71.4637
73.4136
74.7385
75.6346
76.2223
76.5774
76.7446
55.5199
63.8926
68.5383
71.4639
73.4138
74.7387
75.6348
76.2226
76.5776
76.7449
55.5201
63.8928
68.5385
71.4642
73.4141
74.739
75.6351
76.2229
76.5779
76.7452
55.5204
63.8931
68.5388
71.4645
73.4145
74.7394
75.6355
76.2232
76.5783
76.7455
40.5832
47.5329
52.0894
55.1117
57.1501
58.5346
59.4678
60.0777
60.4451
60.6178
40.583
47.5326
52.0891
55.1114
57.1498
58.5342
59.4674
60.0774
60.4448
60.6175
40.5828
47.5324
52.0889
55.1112
57.1495
58.534
59.4672
60.0771
60.4446
60.6173
40.5826
47.5322
52.0887
55.111
57.1494
58.5338
59.467
60.077
60.4444
60.6172
40.5826
47.5322
52.0886
55.1109
57.1493
58.5338
59.467
60.0769
60.4444
60.6172
40.5826
47.5322
52.0886
55.111
57.1493
58.5338
59.467
60.077
60.4444
60.6172
40.5826
47.5322
52.0887
55.1111
57.1494
58.5339
59.4671
60.0771
60.4445
60.6173
40.5828
47.5324
52.0889
55.1112
57.1496
58.5341
59.4673
60.0773
60.4448
60.6175
40.5829
47.5326
52.0891
55.1115
57.1499
58.5344
59.4676
60.0776
60.4451
60.6178
40.5832
47.5329
52.0894
55.1118
57.1502
58.5347
59.468
60.078
60.4454
60.6182
30.4695
35.5429
39.3112
42.0032
43.8957
45.2109
46.1088
46.6999
47.0574
47.2258
30.4693
35.5426
39.3109
42.0029
43.8954
45.2106
46.1085
46.6996
47.0572
47.2256
30.4691
35.5424
39.3108
42.0027
43.8952
45.2103
46.1083
46.6994
47.057
47.2254
30.469
35.5423
39.3106
42.0026
43.895
45.2102
46.1082
46.6993
47.0569
47.2253
30.469
35.5422
39.3106
42.0025
43.895
45.2102
46.1081
46.6993
47.0568
47.2253
30.469
35.5423
39.3106
42.0025
43.895
45.2102
46.1081
46.6993
47.0569
47.2253
30.469
35.5423
39.3107
42.0026
43.8951
45.2103
46.1082
46.6994
47.057
47.2254
30.4691
35.5425
39.3108
42.0028
43.8953
45.2105
46.1084
46.6996
47.0572
47.2256
30.4693
35.5426
39.311
42.003
43.8955
45.2107
46.1087
46.6999
47.0574
47.2259
30.4695
35.5429
39.3113
42.0033
43.8958
45.2111
46.109
46.7002
47.0578
47.2263
22.9662
26.5748
29.4755
31.6797
33.2988
34.4583
35.266
35.8049
36.1336
36.2891
22.966
26.5746
29.4753
31.6795
33.2986
34.458
35.2658
35.8047
36.1334
36.2889
22.9658
26.5744
29.4751
31.6793
33.2984
34.4578
35.2656
35.8045
36.1332
36.2888
22.9657
26.5743
29.475
31.6792
33.2983
34.4577
35.2655
35.8044
36.1331
36.2887
22.9657
26.5743
29.4749
31.6791
33.2982
34.4577
35.2654
35.8043
36.1331
36.2887
22.9657
26.5743
29.4749
31.6791
33.2982
34.4577
35.2654
35.8044
36.1331
36.2887
22.9658
26.5743
29.475
31.6792
33.2983
34.4578
35.2655
35.8045
36.1332
36.2888
22.9659
26.5744
29.4751
31.6794
33.2985
34.4579
35.2657
35.8047
36.1334
36.289
22.966
26.5746
29.4753
31.6796
33.2987
34.4582
35.2659
35.8049
36.1336
36.2892
22.9662
26.5748
29.4756
31.6798
33.299
34.4585
35.2663
35.8052
36.1339
36.2896
17.2411
19.7882
21.9402
23.6537
24.9617
25.9267
26.6141
27.0801
27.3673
27.5041
17.2409
19.788
21.94
23.6535
24.9615
25.9265
26.6139
27.0799
27.3671
27.5039
17.2408
19.7879
21.9398
23.6533
24.9614
25.9264
26.6137
27.0797
27.367
27.5038
17.2407
19.7878
21.9397
23.6533
24.9613
25.9263
26.6137
27.0796
27.3669
27.5037
17.2407
19.7878
21.9397
23.6532
24.9612
25.9262
26.6136
27.0796
27.3669
27.5037
17.2407
19.7878
21.9397
23.6532
24.9613
25.9263
26.6136
27.0796
27.3669
27.5037
17.2407
19.7878
21.9398
23.6533
24.9613
25.9263
26.6137
27.0797
27.367
27.5038
17.2408
19.7879
21.9399
23.6534
24.9615
25.9265
26.6139
27.0799
27.3672
27.504
17.241
19.7881
21.9401
23.6536
24.9617
25.9267
26.6141
27.0801
27.3674
27.5042
17.2411
19.7883
21.9403
23.6538
24.9619
25.9269
26.6143
27.0804
27.3677
27.5045
12.8626
14.6445
16.2004
17.4839
18.4959
19.2631
19.8217
20.2066
20.4466
20.5617
12.8624
14.6443
16.2003
17.4838
18.4958
19.263
19.8215
20.2064
20.4464
20.5616
12.8623
14.6442
16.2001
17.4837
18.4956
19.2628
19.8214
20.2063
20.4463
20.5615
12.8623
14.6442
16.2001
17.4836
18.4956
19.2628
19.8213
20.2062
20.4463
20.5614
12.8623
14.6441
16.2
17.4836
18.4955
19.2627
19.8213
20.2062
20.4463
20.5614
12.8623
14.6442
16.2001
17.4836
18.4955
19.2628
19.8213
20.2062
20.4463
20.5614
12.8623
14.6442
16.2001
17.4836
18.4956
19.2628
19.8214
20.2063
20.4464
20.5615
12.8624
14.6443
16.2002
17.4837
18.4957
19.2629
19.8215
20.2064
20.4465
20.5616
12.8625
14.6444
16.2003
17.4839
18.4959
19.2631
19.8217
20.2066
20.4467
20.5618
12.8626
14.6446
16.2005
17.4841
18.4961
19.2633
19.8219
20.2068
20.4469
20.5621
9.54635
10.7689
11.8639
12.7942
13.5489
14.1356
14.5717
14.8772
15.0699
15.163
9.54624
10.7687
11.8637
12.7941
13.5487
14.1354
14.5715
14.877
15.0698
15.1629
9.54616
10.7687
11.8637
12.794
13.5486
14.1353
14.5714
14.8769
15.0697
15.1628
9.54611
10.7686
11.8636
12.7939
13.5486
14.1353
14.5714
14.8769
15.0697
15.1628
9.54609
10.7686
11.8636
12.7939
13.5486
14.1353
14.5714
14.8769
15.0696
15.1627
9.5461
10.7686
11.8636
12.7939
13.5486
14.1353
14.5714
14.8769
15.0697
15.1628
9.54614
10.7686
11.8636
12.794
13.5486
14.1353
14.5714
14.877
15.0697
15.1628
9.5462
10.7687
11.8637
12.7941
13.5487
14.1354
14.5716
14.8771
15.0698
15.163
9.5463
10.7688
11.8638
12.7942
13.5489
14.1356
14.5717
14.8772
15.07
15.1631
9.54642
10.7689
11.864
12.7943
13.549
14.1358
14.5719
14.8774
15.0702
15.1633
7.07943
7.88011
8.62058
9.27055
9.81353
10.2464
10.5749
10.8088
10.9581
11.0307