/*--------------------------------*- C++ -*----------------------------------*\
  =========                 |
  \\      /  F ield         | OpenFOAM: The Open Source CFD Toolbox
   \\    /   O peration     | Website:  https://openfoam.org
    \\  /    A nd           | Version:  6
     \\/     M anipulation  |
\*---------------------------------------------------------------------------*/
FoamFile
{
    version     2.0;
    format      ascii;
    class       volScalarField;
    location    "0.575";
    object      T;
}
// * * * * * * * * * * * * * * * * * * * * * * * * * * * * * * * * * * * * * //

dimensions      [0 0 0 1 0 0 0];

internalField   nonuniform List<scalar> 
7000
(
105.832
105.829
105.825
105.819
105.812
105.803
105.795
105.788
105.783
105.78
105.832
105.829
105.825
105.819
105.812
105.803
105.795
105.788
105.783
105.78
105.832
105.829
105.825
105.819
105.812
105.803
105.795
105.788
105.783
105.78
105.832
105.829
105.825
105.819
105.812
105.803
105.795
105.788
105.783
105.78
105.832
105.829
105.825
105.819
105.812
105.803
105.795
105.788
105.783
105.78
105.832
105.829
105.825
105.819
105.812
105.803
105.795
105.788
105.783
105.78
105.832
105.829
105.825
105.819
105.812
105.803
105.795
105.788
105.783
105.78
105.832
105.829
105.825
105.819
105.812
105.803
105.795
105.788
105.783
105.78
105.832
105.829
105.825
105.819
105.812
105.803
105.795
105.788
105.783
105.78
105.832
105.829
105.825
105.819
105.812
105.803
105.795
105.788
105.783
105.78
97.5306
97.5237
97.5105
97.4918
97.4688
97.4435
97.4183
97.3958
97.3788
97.3696
97.5305
97.5237
97.5105
97.4917
97.4688
97.4435
97.4183
97.3958
97.3788
97.3696
97.5305
97.5237
97.5105
97.4917
97.4688
97.4435
97.4182
97.3958
97.3788
97.3696
97.5305
97.5237
97.5105
97.4917
97.4688
97.4435
97.4182
97.3957
97.3788
97.3696
97.5305
97.5237
97.5105
97.4917
97.4688
97.4435
97.4182
97.3957
97.3788
97.3696
97.5305
97.5237
97.5105
97.4917
97.4688
97.4435
97.4182
97.3957
97.3788
97.3696
97.5305
97.5237
97.5105
97.4917
97.4688
97.4435
97.4182
97.3957
97.3788
97.3696
97.5305
97.5237
97.5105
97.4917
97.4688
97.4435
97.4182
97.3958
97.3788
97.3696
97.5305
97.5237
97.5105
97.4917
97.4688
97.4435
97.4182
97.3958
97.3788
97.3696
97.5305
97.5237
97.5105
97.4917
97.4688
97.4435
97.4183
97.3958
97.3788
97.3696
89.3351
89.3232
89.3002
89.2675
89.2271
89.1824
89.1373
89.0968
89.0659
89.0492
89.3351
89.3232
89.3002
89.2674
89.2271
89.1823
89.1372
89.0967
89.0659
89.0492
89.335
89.3232
89.3002
89.2674
89.2271
89.1823
89.1372
89.0967
89.0659
89.0492
89.335
89.3232
89.3002
89.2674
89.2271
89.1823
89.1372
89.0967
89.0659
89.0492
89.335
89.3232
89.3002
89.2674
89.227
89.1823
89.1372
89.0967
89.0659
89.0492
89.335
89.3232
89.3002
89.2674
89.227
89.1823
89.1372
89.0967
89.0659
89.0492
89.335
89.3232
89.3002
89.2674
89.227
89.1823
89.1372
89.0967
89.0659
89.0492
89.335
89.3232
89.3002
89.2674
89.2271
89.1823
89.1372
89.0967
89.0659
89.0492
89.335
89.3232
89.3002
89.2674
89.2271
89.1823
89.1372
89.0967
89.0659
89.0492
89.335
89.3232
89.3002
89.2674
89.2271
89.1823
89.1373
89.0967
89.0659
89.0492
81.3133
81.2958
81.2616
81.2126
81.1517
81.0834
81.0137
80.9501
80.901
80.8741
81.3132
81.2957
81.2616
81.2125
81.1517
81.0833
81.0136
80.9501
80.901
80.8741
81.3132
81.2957
81.2615
81.2125
81.1516
81.0833
81.0136
80.95
80.901
80.8741
81.3132
81.2957
81.2615
81.2125
81.1516
81.0833
81.0136
80.95
80.901
80.8741
81.3132
81.2957
81.2615
81.2125
81.1516
81.0833
81.0136
80.95
80.901
80.8741
81.3132
81.2957
81.2615
81.2125
81.1516
81.0833
81.0136
80.95
80.901
80.8741
81.3132
81.2957
81.2615
81.2125
81.1516
81.0833
81.0136
80.95
80.901
80.8741
81.3132
81.2957
81.2615
81.2125
81.1516
81.0833
81.0136
80.95
80.901
80.8741
81.3132
81.2957
81.2615
81.2125
81.1517
81.0833
81.0136
80.95
80.901
80.8741
81.3132
81.2957
81.2616
81.2126
81.1517
81.0834
81.0136
80.9501
80.901
80.8741
73.5297
73.5056
73.4585
73.3903
73.3046
73.2068
73.105
73.0102
72.9355
72.8938
73.5296
73.5056
73.4585
73.3903
73.3045
73.2067
73.105
73.0102
72.9355
72.8938
73.5296
73.5055
73.4584
73.3903
73.3045
73.2067
73.105
73.0102
72.9354
72.8937
73.5296
73.5055
73.4584
73.3902
73.3045
73.2067
73.1049
73.0101
72.9354
72.8937
73.5295
73.5055
73.4584
73.3902
73.3045
73.2067
73.1049
73.0101
72.9354
72.8937
73.5295
73.5055
73.4584
73.3902
73.3045
73.2067
73.1049
73.0101
72.9354
72.8937
73.5295
73.5055
73.4584
73.3902
73.3045
73.2067
73.1049
73.0101
72.9354
72.8937
73.5296
73.5055
73.4584
73.3902
73.3045
73.2067
73.105
73.0102
72.9354
72.8937
73.5296
73.5056
73.4584
73.3903
73.3045
73.2067
73.105
73.0102
72.9355
72.8938
73.5296
73.5056
73.4585
73.3903
73.3046
73.2068
73.105
73.0102
72.9355
72.8938
66.044
66.0125
65.9505
65.8598
65.7439
65.6089
65.4646
65.3259
65.2129
65.148
66.0439
66.0125
65.9505
65.8598
65.7439
65.6089
65.4646
65.3259
65.2128
65.1479
66.0439
66.0124
65.9505
65.8598
65.7438
65.6088
65.4645
65.3258
65.2128
65.1479
66.0438
66.0124
65.9504
65.8597
65.7438
65.6088
65.4645
65.3258
65.2128
65.1479
66.0438
66.0124
65.9504
65.8597
65.7438
65.6088
65.4645
65.3258
65.2128
65.1479
66.0438
66.0124
65.9504
65.8597
65.7438
65.6088
65.4645
65.3258
65.2128
65.1479
66.0438
66.0124
65.9504
65.8597
65.7438
65.6088
65.4645
65.3258
65.2128
65.1479
66.0438
66.0124
65.9504
65.8597
65.7438
65.6088
65.4645
65.3258
65.2128
65.1479
66.0439
66.0125
65.9505
65.8598
65.7439
65.6088
65.4646
65.3259
65.2128
65.1479
66.0439
66.0125
65.9505
65.8598
65.7439
65.6089
65.4646
65.3259
65.2129
65.148
58.91
58.8705
58.792
58.6755
58.5239
58.3424
58.1415
57.9398
57.7668
57.6623
58.9099
58.8704
58.7919
58.6755
58.5238
58.3423
58.1415
57.9398
57.7667
57.6622
58.9099
58.8704
58.7919
58.6755
58.5238
58.3423
58.1414
57.9397
57.7667
57.6622
58.9099
58.8704
58.7918
58.6754
58.5238
58.3423
58.1414
57.9397
57.7667
57.6622
58.9099
58.8704
58.7918
58.6754
58.5237
58.3423
58.1414
57.9397
57.7667
57.6621
58.9099
58.8703
58.7918
58.6754
58.5237
58.3423
58.1414
57.9397
57.7667
57.6621
58.9099
58.8704
58.7918
58.6754
58.5237
58.3423
58.1414
57.9397
57.7667
57.6622
58.9099
58.8704
58.7918
58.6754
58.5238
58.3423
58.1414
57.9397
57.7667
57.6622
58.9099
58.8704
58.7919
58.6755
58.5238
58.3423
58.1415
57.9398
57.7667
57.6622
58.9099
58.8705
58.7919
58.6755
58.5239
58.3424
58.1415
57.9398
57.7668
57.6623
52.1747
52.1269
52.031
51.8868
51.6948
51.4577
51.1832
50.8905
50.6193
50.44
52.1747
52.1268
52.0309
51.8868
51.6948
51.4576
51.1832
50.8905
50.6192
50.44
52.1746
52.1268
52.0309
51.8867
51.6947
51.4576
51.1831
50.8904
50.6192
50.4399
52.1746
52.1267
52.0309
51.8867
51.6947
51.4575
51.1831
50.8904
50.6191
50.4399
52.1746
52.1267
52.0308
51.8867
51.6947
51.4575
51.1831
50.8904
50.6191
50.4399
52.1746
52.1267
52.0308
51.8867
51.6947
51.4575
51.1831
50.8904
50.6191
50.4399
52.1746
52.1267
52.0309
51.8867
51.6947
51.4575
51.1831
50.8904
50.6191
50.4399
52.1746
52.1267
52.0309
51.8867
51.6947
51.4576
51.1831
50.8904
50.6192
50.4399
52.1746
52.1268
52.0309
51.8868
51.6948
51.4576
51.1832
50.8905
50.6192
50.44
52.1747
52.1268
52.031
51.8868
51.6948
51.4577
51.1832
50.8905
50.6193
50.44
45.877
45.8214
45.709
45.5376
45.304
45.0052
44.6408
44.2203
43.783
43.4438
45.877
45.8213
45.7089
45.5375
45.304
45.0052
44.6407
44.2202
43.783
43.4437
45.8769
45.8213
45.7089
45.5375
45.3039
45.0051
44.6407
44.2202
43.7829
43.4437
45.8769
45.8213
45.7089
45.5374
45.3039
45.0051
44.6406
44.2201
43.7829
43.4436
45.8769
45.8212
45.7089
45.5374
45.3039
45.0051
44.6406
44.2201
43.7829
43.4436
45.8769
45.8212
45.7088
45.5374
45.3039
45.0051
44.6406
44.2201
43.7829
43.4436
45.8769
45.8212
45.7089
45.5374
45.3039
45.0051
44.6406
44.2201
43.7829
43.4436
45.8769
45.8213
45.7089
45.5375
45.3039
45.0051
44.6407
44.2202
43.7829
43.4437
45.8769
45.8213
45.7089
45.5375
45.3039
45.0052
44.6407
44.2202
43.783
43.4437
45.877
45.8214
45.709
45.5376
45.304
45.0052
44.6408
44.2203
43.783
43.4438
40.0469
39.9851
39.8593
39.6652
39.3953
39.0383
38.5783
37.9955
37.2829
36.5464
40.0469
39.985
39.8593
39.6651
39.3952
39.0382
38.5782
37.9954
37.2828
36.5463
40.0468
39.985
39.8592
39.6651
39.3951
39.0382
38.5781
37.9953
37.2828
36.5463
40.0468
39.9849
39.8592
39.665
39.3951
39.0382
38.5781
37.9953
37.2827
36.5462
40.0468
39.9849
39.8592
39.665
39.3951
39.0381
38.5781
37.9953
37.2827
36.5462
40.0468
39.9849
39.8592
39.665
39.3951
39.0381
38.5781
37.9953
37.2827
36.5462
40.0468
39.9849
39.8592
39.665
39.3951
39.0381
38.5781
37.9953
37.2827
36.5462
40.0468
39.985
39.8592
39.6651
39.3951
39.0382
38.5781
37.9953
37.2828
36.5463
40.0468
39.985
39.8592
39.6651
39.3952
39.0382
38.5782
37.9954
37.2828
36.5463
40.0469
39.985
39.8593
39.6652
39.3952
39.0383
38.5783
37.9955
37.2829
36.5464
34.7044
34.639
34.5055
34.298
34.006
33.6112
33.0812
32.3509
31.2667
29.3821
34.7043
34.6389
34.5055
34.298
34.0059
33.6111
33.0811
32.3508
31.2666
29.382
34.7042
34.6388
34.5054
34.2979
34.0059
33.6111
33.081
32.3507
31.2666
29.3819
34.7042
34.6388
34.5054
34.2979
34.0058
33.611
33.081
32.3507
31.2665
29.3819
34.7042
34.6388
34.5054
34.2979
34.0058
33.611
33.081
32.3507
31.2665
29.3819
34.7042
34.6388
34.5054
34.2979
34.0058
33.611
33.081
32.3507
31.2665
29.3819
34.7042
34.6388
34.5054
34.2979
34.0058
33.611
33.081
32.3507
31.2665
29.3819
34.7042
34.6388
34.5054
34.2979
34.0059
33.6111
33.081
32.3507
31.2666
29.3819
34.7043
34.6389
34.5054
34.298
34.0059
33.6111
33.0811
32.3508
31.2666
29.382
34.7043
34.6389
34.5055
34.298
34.006
33.6112
33.0812
32.3509
31.2667
29.382
29.8585
29.793
29.6594
29.4517
29.1595
28.7651
28.2381
27.5252
26.5321
25.1128
29.8584
29.7929
29.6593
29.4516
29.1594
28.765
28.238
27.5251
26.532
25.1127
29.8584
29.7929
29.6593
29.4516
29.1594
28.765
28.238
27.5251
26.5319
25.1127
29.8583
29.7928
29.6592
29.4516
29.1594
28.7649
28.2379
27.525
26.5319
25.1126
29.8583
29.7928
29.6592
29.4515
29.1593
28.7649
28.2379
27.525
26.5319
25.1126
29.8583
29.7928
29.6592
29.4515
29.1593
28.7649
28.2379
27.525
26.5319
25.1126
29.8583
29.7928
29.6592
29.4516
29.1594
28.7649
28.2379
27.525
26.5319
25.1126
29.8584
29.7929
29.6593
29.4516
29.1594
28.765
28.238
27.5251
26.5319
25.1126
29.8584
29.7929
29.6593
29.4516
29.1594
28.765
28.238
27.5251
26.532
25.1127
29.8584
29.793
29.6594
29.4517
29.1595
28.7651
28.2381
27.5252
26.5321
25.1128
25.5075
25.4455
25.3195
25.1253
24.8554
24.4985
24.0377
23.4502
22.7133
21.8373
25.5074
25.4454
25.3194
25.1252
24.8553
24.4984
24.0376
23.4501
22.7133
21.8372
25.5074
25.4454
25.3194
25.1251
24.8553
24.4984
24.0376
23.4501
22.7132
21.8371
25.5073
25.4453
25.3194
25.1251
24.8552
24.4984
24.0376
23.45
22.7132
21.8371
25.5073
25.4453
25.3194
25.1251
24.8552
24.4983
24.0375
23.45
22.7132
21.8371
25.5073
25.4453
25.3194
25.1251
24.8552
24.4983
24.0375
23.45
22.7132
21.8371
25.5073
25.4453
25.3194
25.1251
24.8552
24.4984
24.0376
23.45
22.7132
21.8371
25.5074
25.4454
25.3194
25.1251
24.8553
24.4984
24.0376
23.4501
22.7132
21.8371
25.5074
25.4454
25.3194
25.1252
24.8553
24.4984
24.0376
23.4501
22.7133
21.8372
25.5074
25.4454
25.3195
25.1253
24.8554
24.4985
24.0377
23.4502
22.7133
21.8373
21.6391
21.5837
21.4719
21.302
21.0714
20.7769
20.4162
19.9919
19.5217
19.0634
21.6391
21.5836
21.4718
21.302
21.0713
20.7768
20.4161
19.9918
19.5217
19.0633
21.639
21.5836
21.4718
21.3019
21.0713
20.7768
20.4161
19.9918
19.5216
19.0633
21.639
21.5835
21.4718
21.3019
21.0712
20.7767
20.4161
19.9917
19.5216
19.0632
21.639
21.5835
21.4718
21.3019
21.0712
20.7767
20.416
19.9917
19.5216
19.0632
21.639
21.5835
21.4718
21.3019
21.0712
20.7767
20.416
19.9917
19.5216
19.0632
21.639
21.5835
21.4718
21.3019
21.0712
20.7767
20.4161
19.9917
19.5216
19.0632
21.639
21.5836
21.4718
21.3019
21.0713
20.7768
20.4161
19.9918
19.5216
19.0633
21.6391
21.5836
21.4718
21.302
21.0713
20.7768
20.4161
19.9918
19.5217
19.0633
21.6391
21.5837
21.4719
21.302
21.0714
20.7769
20.4162
19.9919
19.5217
19.0634
18.2323
18.1854
18.0922
17.9534
17.7712
17.55
17.299
17.0363
16.7966
16.6431
18.2322
18.1854
18.0921
17.9533
17.7711
17.5499
17.299
17.0363
16.7965
16.643
18.2322
18.1853
18.0921
17.9533
17.7711
17.5499
17.2989
17.0362
16.7965
16.6429
18.2321
18.1853
18.092
17.9532
17.771
17.5499
17.2989
17.0362
16.7965
16.6429
18.2321
18.1853
18.092
17.9532
17.771
17.5498
17.2989
17.0362
16.7964
16.6429
18.2321
18.1853
18.092
17.9532
17.771
17.5498
17.2989
17.0362
16.7964
16.6429
18.2321
18.1853
18.092
17.9532
17.771
17.5499
17.2989
17.0362
16.7965
16.6429
18.2322
18.1853
18.0921
17.9533
17.7711
17.5499
17.2989
17.0362
16.7965
16.6429
18.2322
18.1854
18.0921
17.9533
17.7711
17.5499
17.299
17.0363
16.7965
16.643
18.2322
18.1854
18.0922
17.9534
17.7712
17.55
17.299
17.0363
16.7966
16.6431
15.2587
15.2214
15.1484
15.043
14.9113
14.7637
14.6171
14.4983
14.4479
14.5228
15.2586
15.2214
15.1484
15.043
14.9113
14.7636
14.617
14.4983
14.4478
14.5227
15.2586
15.2213
15.1483
15.0429
14.9112
14.7636
14.617
14.4982
14.4478
14.5227
15.2586
15.2213
15.1483
15.0429
14.9112
14.7636
14.617
14.4982
14.4477
14.5226
15.2586
15.2213
15.1483
15.0429
14.9112
14.7636
14.6169
14.4982
14.4477
14.5226
15.2586
15.2213
15.1483
15.0429
14.9112
14.7636
14.6169
14.4982
14.4477
14.5226
15.2586
15.2213
15.1483
15.0429
14.9112
14.7636
14.617
14.4982
14.4477
14.5226
15.2586
15.2213
15.1483
15.0429
14.9112
14.7636
14.617
14.4982
14.4478
14.5227
15.2586
15.2214
15.1484
15.043
14.9113
14.7636
14.617
14.4983
14.4478
14.5227
15.2587
15.2214
15.1484
15.043
14.9113
14.7637
14.6171
14.4983
14.4479
14.5228
12.6854
12.6576
12.6043
12.5309
12.4462
12.3648
12.309
12.3114
12.416
12.6752
12.6853
12.6575
12.6043
12.5308
12.4461
12.3648
12.309
12.3114
12.4159
12.6751
12.6853
12.6575
12.6043
12.5308
12.4461
12.3647
12.309
12.3113
12.4159
12.6751
12.6853
12.6575
12.6042
12.5308
12.4461
12.3647
12.3089
12.3113
12.4159
12.675
12.6853
12.6575
12.6042
12.5308
12.4461
12.3647
12.3089
12.3113
12.4158
12.675
12.6853
12.6575
12.6042
12.5308
12.4461
12.3647
12.3089
12.3113
12.4159
12.675
12.6853
12.6575
12.6042
12.5308
12.4461
12.3647
12.3089
12.3113
12.4159
12.675
12.6853
12.6575
12.6043
12.5308
12.4461
12.3647
12.309
12.3113
12.4159
12.6751
12.6853
12.6575
12.6043
12.5308
12.4461
12.3648
12.309
12.3114
12.4159
12.6751
12.6854
12.6576
12.6044
12.5309
12.4462
12.3648
12.3091
12.3114
12.416
12.6752
10.4767
10.4573
10.4216
10.3757
10.3305
10.303
10.3191
10.4167
10.6475
11.0723
10.4766
10.4573
10.4215
10.3756
10.3304
10.3029
10.319
10.4166
10.6475
11.0722
10.4766
10.4572
10.4215
10.3756
10.3304
10.3029
10.319
10.4166
10.6474
11.0722
10.4766
10.4572
10.4215
10.3756
10.3304
10.3029
10.319
10.4165
10.6474
11.0721
10.4765
10.4572
10.4215
10.3756
10.3304
10.3028
10.319
10.4165
10.6474
11.0721
10.4765
10.4572
10.4215
10.3756
10.3304
10.3028
10.319
10.4165
10.6474
11.0721
10.4766
10.4572
10.4215
10.3756
10.3304
10.3029
10.319
10.4166
10.6474
11.0721
10.4766
10.4572
10.4215
10.3756
10.3304
10.3029
10.319
10.4166
10.6475
11.0722
10.4766
10.4573
10.4215
10.3757
10.3304
10.3029
10.319
10.4166
10.6475
11.0722
10.4766
10.4573
10.4216
10.3757
10.3305
10.303
10.3191
10.4167
10.6476
11.0723
8.59587
8.58346
8.56175
8.53733
8.52138
8.53157
8.59519
8.75449
9.07558
9.65827
8.59583
8.58342
8.56171
8.53729
8.52134
8.53153
8.59515
8.75444
9.07553
9.65821
8.5958
8.5834
8.56168
8.53726
8.52131
8.5315
8.59511
8.7544
9.0755
9.65817
8.59578
8.58338
8.56167
8.53724
8.52129
8.53148
8.59509
8.75438
9.07547
9.65815
8.59577
8.58337
8.56166
8.53723
8.52128
8.53147
8.59508
8.75437
9.07546
9.65814
8.59577
8.58337
8.56166
8.53723
8.52128
8.53147
8.59509
8.75437
9.07546
9.65814
8.59578
8.58338
8.56167
8.53724
8.52129
8.53149
8.5951
8.75439
9.07548
9.65815
8.5958
8.5834
8.56169
8.53727
8.52132
8.53151
8.59513
8.75441
9.07551
9.65819
8.59583
8.58343
8.56172
8.5373
8.52135
8.53155
8.59516
8.75445
9.07555
9.65823
8.59586
8.58347
8.56177
8.53734
8.5214
8.53159
8.59521
8.75451
9.0756
9.65829
7.00708
6.99984
6.98827
6.97846
6.98059
7.01039
7.09202
7.2645
7.60052
8.2741
7.00704
6.9998
6.98823
6.97842
6.98055
7.01035
7.09198
7.26446
7.60047
8.27406
7.00701
6.99978
6.9882
6.9784
6.98053
7.01032
7.09195
7.26443
7.60044
8.27402
7.007
6.99976
6.98819
6.97838
6.98051
7.01031
7.09193
7.26441
7.60042
8.274
7.00699
6.99975
6.98818
6.97837
6.9805
7.0103
7.09192
7.2644
7.60041
8.27399
7.00699
6.99975
6.98818
6.97838
6.9805
7.0103
7.09192
7.26441
7.60041
8.274
7.007
6.99976
6.98819
6.97839
6.98051
7.01031
7.09194
7.26442
7.60043
8.27401
7.00702
6.99978
6.98821
6.97841
6.98054
7.01034
7.09196
7.26444
7.60045
8.27404
7.00704
6.99981
6.98824
6.97844
6.98057
7.01037
7.09199
7.26448
7.60049
8.27408
7.00707
6.99984
6.98828
6.97848
6.98061
7.01041
7.09204
7.26453
7.60054
8.27413
25.1086
23.2816
23.1118
24.3403
26.941
31.0366
36.8963
44.9988
56.2066
72.234
25.1085
23.2815
23.1117
24.3402
26.9409
31.0364
36.8962
44.9987
56.2064
72.2338
25.1084
23.2814
23.1116
24.3401
26.9408
31.0364
36.8961
44.9986
56.2063
72.2337
25.1084
23.2813
23.1116
24.34
26.9407
31.0363
36.896
44.9985
56.2062
72.2336
25.1084
23.2813
23.1115
24.34
26.9407
31.0362
36.8959
44.9984
56.2062
72.2336
25.1084
23.2813
23.1115
24.34
26.9407
31.0362
36.8959
44.9984
56.2062
72.2336
25.1084
23.2813
23.1116
24.34
26.9407
31.0363
36.896
44.9985
56.2062
72.2336
25.1084
23.2814
23.1116
24.34
26.9408
31.0363
36.896
44.9985
56.2063
72.2337
25.1085
23.2814
23.1116
24.3401
26.9408
31.0364
36.8961
44.9986
56.2063
72.2338
25.1085
23.2815
23.1117
24.3402
26.9409
31.0365
36.8962
44.9987
56.2064
72.2339
23.2167
22.2257
22.3646
23.6734
26.2115
30.1035
35.5561
42.8733
52.4492
64.6169
23.2166
22.2256
22.3645
23.6733
26.2114
30.1034
35.556
42.8731
52.449
64.6167
23.2165
22.2255
22.3644
23.6732
26.2113
30.1033
35.5559
42.873
52.4489
64.6166
23.2165
22.2255
22.3644
23.6731
26.2113
30.1032
35.5558
42.8729
52.4488
64.6165
23.2165
22.2254
22.3644
23.6731
26.2112
30.1032
35.5558
42.8729
52.4488
64.6164
23.2165
22.2254
22.3644
23.6731
26.2112
30.1032
35.5558
42.8729
52.4488
64.6164
23.2165
22.2255
22.3644
23.6731
26.2112
30.1032
35.5558
42.8729
52.4488
64.6165
23.2165
22.2255
22.3644
23.6732
26.2113
30.1032
35.5558
42.873
52.4489
64.6165
23.2166
22.2255
22.3645
23.6732
26.2114
30.1033
35.5559
42.8731
52.449
64.6167
23.2167
22.2256
22.3646
23.6733
26.2115
30.1034
35.556
42.8732
52.4491
64.6168
20.9748
20.6383
21.0942
22.477
24.887
28.433
33.2444
39.4565
47.1461
56.1483
20.9747
20.6382
21.0941
22.4769
24.8869
28.4328
33.2442
39.4564
47.1459
56.1481
20.9747
20.6381
21.094
22.4768
24.8868
28.4327
33.2441
39.4563
47.1458
56.148
20.9746
20.6381
21.0939
22.4768
24.8867
28.4327
33.2441
39.4562
47.1457
56.1479
20.9746
20.6381
21.0939
22.4768
24.8867
28.4326
33.244
39.4562
47.1457
56.1478
20.9746
20.6381
21.0939
22.4768
24.8867
28.4326
33.244
39.4561
47.1457
56.1478
20.9746
20.6381
21.0939
22.4768
24.8867
28.4327
33.244
39.4562
47.1457
56.1479
20.9747
20.6381
21.094
22.4768
24.8868
28.4327
33.2441
39.4562
47.1458
56.1479
20.9747
20.6382
21.094
22.4769
24.8868
28.4328
33.2442
39.4563
47.1459
56.1481
20.9748
20.6383
21.0941
22.477
24.8869
28.4329
33.2443
39.4565
47.146
56.1482
18.757
18.8493
19.5339
20.9424
23.1724
26.305
30.4066
35.5074
41.5483
48.2813
18.757
18.8492
19.5338
20.9423
23.1723
26.3049
30.4065
35.5073
41.5481
48.2811
18.7569
18.8492
19.5337
20.9423
23.1722
26.3048
30.4064
35.5072
41.548
48.281
18.7569
18.8491
19.5336
20.9422
23.1722
26.3047
30.4063
35.5071
41.548
48.2809
18.7568
18.8491
19.5336
20.9422
23.1721
26.3047
30.4063
35.5071
41.5479
48.2809
18.7568
18.8491
19.5336
20.9422
23.1721
26.3047
30.4063
35.5071
41.5479
48.2809
18.7568
18.8491
19.5336
20.9422
23.1721
26.3047
30.4063
35.5071
41.548
48.2809
18.7569
18.8492
19.5337
20.9423
23.1722
26.3048
30.4063
35.5072
41.548
48.281
18.7569
18.8492
19.5337
20.9423
23.1723
26.3049
30.4064
35.5073
41.5481
48.2811
18.757
18.8493
19.5338
20.9424
23.1724
26.305
30.4066
35.5074
41.5483
48.2813
16.6797
17.0467
17.8729
19.2599
21.2833
23.9954
27.4195
31.5337
36.2402
41.327
16.6796
17.0466
17.8728
19.2598
21.2832
23.9952
27.4194
31.5335
36.2401
41.3268
16.6796
17.0465
17.8727
19.2597
21.2831
23.9952
27.4193
31.5334
36.24
41.3267
16.6795
17.0465
17.8727
19.2596
21.2831
23.9951
27.4192
31.5334
36.2399
41.3266
16.6795
17.0465
17.8727
19.2596
21.283
23.9951
27.4192
31.5333
36.2399
41.3266
16.6795
17.0465
17.8727
19.2596
21.283
23.9951
27.4192
31.5333
36.2399
41.3266
16.6795
17.0465
17.8727
19.2596
21.2831
23.9951
27.4192
31.5334
36.2399
41.3266
16.6796
17.0465
17.8727
19.2597
21.2831
23.9951
27.4193
31.5334
36.24
41.3267
16.6796
17.0466
17.8728
19.2598
21.2832
23.9952
27.4193
31.5335
36.2401
41.3268
16.6797
17.0467
17.8729
19.2599
21.2833
23.9953
27.4195
31.5337
36.2402
41.327
14.7956
15.3472
16.2574
17.5955
19.4126
21.7364
24.5633
27.8484
31.4926
35.3365
14.7956
15.3471
16.2573
17.5954
19.4125
21.7363
24.5632
27.8482
31.4925
35.3364
14.7955
15.347
16.2572
17.5953
19.4124
21.7362
24.5631
27.8481
31.4924
35.3363
14.7955
15.347
16.2572
17.5952
19.4124
21.7362
24.5631
27.8481
31.4923
35.3362
14.7954
15.347
16.2572
17.5952
19.4124
21.7361
24.5631
27.848
31.4923
35.3362
14.7954
15.347
16.2572
17.5952
19.4124
21.7361
24.5631
27.848
31.4923
35.3362
14.7955
15.347
16.2572
17.5952
19.4124
21.7362
24.5631
27.8481
31.4923
35.3362
14.7955
15.347
16.2572
17.5953
19.4124
21.7362
24.5631
27.8481
31.4924
35.3363
14.7956
15.3471
16.2573
17.5954
19.4125
21.7363
24.5632
27.8482
31.4925
35.3364
14.7956
15.3472
16.2574
17.5955
19.4126
21.7364
24.5633
27.8484
31.4926
35.3365
13.1376
13.8328
14.8013
16.0863
17.7197
19.7111
22.0397
24.6482
27.4427
30.3029
13.1375
13.8327
14.8012
16.0862
17.7196
19.711
22.0396
24.6481
27.4426
30.3027
13.1374
13.8326
14.8011
16.0861
17.7195
19.711
22.0395
24.648
27.4425
30.3027
13.1374
13.8326
14.8011
16.0861
17.7195
19.7109
22.0394
24.648
27.4424
30.3026
13.1374
13.8326
14.8011
16.0861
17.7195
19.7109
22.0394
24.6479
27.4424
30.3026
13.1374
13.8326
14.8011
16.0861
17.7195
19.7109
22.0394
24.6479
27.4424
30.3026
13.1374
13.8326
14.8011
16.0861
17.7195
19.7109
22.0394
24.648
27.4424
30.3026
13.1374
13.8326
14.8011
16.0861
17.7195
19.711
22.0395
24.648
27.4425
30.3027
13.1375
13.8327
14.8012
16.0862
17.7196
19.711
22.0396
24.6481
27.4426
30.3028
13.1376
13.8328
14.8013
16.0863
17.7197
19.7111
22.0397
24.6482
27.4427
30.3029
11.7303
12.5692
13.5966
14.843
16.3313
18.0605
19.9971
22.0712
24.1815
26.2178
11.7303
12.5692
13.5965
14.8429
16.3312
18.0604
19.9969
22.0711
24.1814
26.2177
11.7302
12.5691
13.5964
14.8428
16.3312
18.0604
19.9969
22.071
24.1813
26.2176
11.7302
12.5691
13.5964
14.8428
16.3311
18.0603
19.9968
22.071
24.1813
26.2175
11.7302
12.569
13.5964
14.8428
16.3311
18.0603
19.9968
22.0709
24.1812
26.2175
11.7302
12.569
13.5964
14.8428
16.3311
18.0603
19.9968
22.0709
24.1813
26.2175
11.7302
12.5691
13.5964
14.8428
16.3311
18.0603
19.9968
22.071
24.1813
26.2176
11.7302
12.5691
13.5964
14.8428
16.3312
18.0604
19.9969
22.071
24.1813
26.2176
11.7303
12.5692
13.5965
14.8429
16.3313
18.0605
19.997
22.0711
24.1814
26.2177
11.7303
12.5692
13.5966
14.843
16.3313
18.0606
19.9971
22.0712
24.1816
26.2178
10.604
11.6223
12.723
13.9543
15.3455
16.8926
18.552
20.2355
21.8098
23.1132
10.604
11.6222
12.7229
13.9542
15.3455
16.8926
18.5519
20.2354
21.8097
23.1131
10.6039
11.6222
12.7229
13.9542
15.3454
16.8925
18.5518
20.2354
21.8096
23.113
10.6039
11.6222
12.7228
13.9542
15.3454
16.8924
18.5518
20.2353
21.8096
23.113
10.6039
11.6221
12.7228
13.9541
15.3453
16.8924
18.5518
20.2353
21.8096
23.113
10.6039
11.6221
12.7228
13.9541
15.3453
16.8924
18.5518
20.2353
21.8096
23.113
10.6039
11.6222
12.7229
13.9542
15.3454
16.8925
18.5518
20.2353
21.8096
23.113
10.604
11.6222
12.7229
13.9542
15.3454
16.8925
18.5518
20.2354
21.8097
23.1131
10.604
11.6223
12.723
13.9543
15.3455
16.8926
18.5519
20.2355
21.8098
23.1132
10.6041
11.6223
12.723
13.9544
15.3456
16.8927
18.552
20.2356
21.8099
23.1133
9.84567
11.0817
12.2551
13.4889
14.8331
16.2864
17.7985
19.2624
20.4927
21.1702
9.84562
11.0816
12.2551
13.4889
14.833
16.2863
17.7984
19.2623
20.4926
21.1701
9.84558
11.0816
12.255
13.4888
14.833
16.2863
17.7984
19.2623
20.4925
21.17
9.84555
11.0815
12.255
13.4888
14.833
16.2862
17.7983
19.2622
20.4925
21.17
9.84554
11.0815
12.255
13.4888
14.8329
16.2862
17.7983
19.2622
20.4925
21.1699
9.84554
11.0815
12.255
13.4888
14.8329
16.2862
17.7983
19.2622
20.4925
21.1699
9.84556
11.0815
12.255
13.4888
14.833
16.2862
17.7984
19.2622
20.4925
21.17
9.84559
11.0816
12.255
13.4888
14.833
16.2863
17.7984
19.2623
20.4926
21.17
9.84564
11.0816
12.2551
13.4889
14.8331
16.2864
17.7985
19.2624
20.4926
21.1701
9.8457
11.0817
12.2552
13.489
14.8332
16.2865
17.7986
19.2625
20.4928
21.1702
97.0296
108.644
115.629
120.426
123.913
126.488
128.369
129.688
130.527
130.936
97.0294
108.643
115.629
120.426
123.912
126.487
128.369
129.688
130.527
130.935
97.0293
108.643
115.628
120.426
123.912
126.487
128.368
129.688
130.527
130.935
97.0292
108.643
115.628
120.426
123.912
126.487
128.368
129.687
130.527
130.935
97.0291
108.643
115.628
120.426
123.912
126.487
128.368
129.687
130.527
130.935
97.0291
108.643
115.628
120.426
123.912
126.487
128.368
129.687
130.527
130.935
97.0291
108.643
115.628
120.426
123.912
126.487
128.368
129.688
130.527
130.935
97.0292
108.643
115.628
120.426
123.912
126.487
128.368
129.688
130.527
130.935
97.0293
108.643
115.629
120.426
123.912
126.487
128.369
129.688
130.527
130.936
97.0295
108.644
115.629
120.426
123.913
126.488
128.369
129.688
130.527
130.936
78.763
88.9722
96.0927
101.179
104.894
107.627
109.613
111
111.88
112.307
78.7628
88.972
96.0925
101.179
104.894
107.627
109.613
111
111.88
112.307
78.7627
88.9719
96.0923
101.179
104.894
107.627
109.613
111
111.88
112.307
78.7626
88.9718
96.0922
101.179
104.894
107.627
109.613
111
111.88
112.307
78.7625
88.9717
96.0922
101.179
104.894
107.627
109.613
111
111.88
112.307
78.7625
88.9717
96.0922
101.179
104.894
107.627
109.613
111
111.88
112.307
78.7626
88.9717
96.0922
101.179
104.894
107.627
109.613
111
111.88
112.307
78.7627
88.9718
96.0923
101.179
104.894
107.627
109.613
111
111.88
112.307
78.7628
88.972
96.0925
101.179
104.894
107.627
109.613
111
111.88
112.307
78.7629
88.9721
96.0926
101.179
104.894
107.627
109.614
111
111.88
112.307
65.6399
73.6603
79.9143
84.6724
88.2636
90.9502
92.9195
94.3006
95.1785
95.6053
65.6397
73.6601
79.9141
84.6722
88.2634
90.95
92.9193
94.3004
95.1784
95.6052
65.6396
73.66
79.914
84.672
88.2633
90.9498
92.9192
94.3002
95.1782
95.605
65.6395
73.6599
79.9139
84.6719
88.2632
90.9497
92.9191
94.3002
95.1781
95.605
65.6395
73.6599
79.9138
84.6719
88.2631
90.9497
92.9191
94.3001
95.1781
95.6049
65.6395
73.6599
79.9138
84.6719
88.2631
90.9497
92.9191
94.3001
95.1781
95.605
65.6395
73.6599
79.9139
84.6719
88.2632
90.9497
92.9191
94.3002
95.1782
95.605
65.6396
73.66
79.914
84.672
88.2633
90.9498
92.9192
94.3003
95.1783
95.6051
65.6397
73.6601
79.9141
84.6722
88.2634
90.95
92.9194
94.3005
95.1785
95.6053
65.6399
73.6603
79.9143
84.6724
88.2636
90.9502
92.9196
94.3007
95.1787
95.6055
55.1495
61.3385
66.5089
70.6552
73.8995
76.3844
78.2339
79.5433
80.3806
80.789
55.1493
61.3383
66.5088
70.6551
73.8993
76.3842
78.2337
79.5431
80.3805
80.7888
55.1492
61.3382
66.5086
70.6549
73.8992
76.3841
78.2335
79.543
80.3803
80.7887
55.1491
61.3381
66.5085
70.6548
73.8991
76.384
78.2334
79.5429
80.3803
80.7886
55.1491
61.3381
66.5085
70.6548
73.8991
76.384
78.2334
79.5429
80.3802
80.7886
55.1491
61.3381
66.5085
70.6548
73.8991
76.384
78.2334
79.5429
80.3802
80.7886
55.1491
61.3381
66.5085
70.6548
73.8991
76.384
78.2335
79.5429
80.3803
80.7887
55.1492
61.3382
66.5086
70.6549
73.8992
76.3842
78.2336
79.5431
80.3804
80.7888
55.1493
61.3383
66.5088
70.6551
73.8994
76.3843
78.2337
79.5432
80.3806
80.789
55.1495
61.3385
66.509
70.6553
73.8996
76.3845
78.2339
79.5434
80.3808
80.7892
46.4492
51.2036
55.3473
58.8044
61.5972
63.7885
65.4481
66.6374
67.4039
67.7793
46.449
51.2034
55.3472
58.8042
61.597
63.7884
65.4479
66.6372
67.4037
67.7792
46.4489
51.2033
55.347
58.8041
61.5969
63.7882
65.4478
66.6371
67.4036
67.7791
46.4488
51.2032
55.347
58.804
61.5968
63.7881
65.4477
66.637
67.4035
67.779
46.4488
51.2032
55.3469
58.804
61.5968
63.7881
65.4477
66.637
67.4035
67.779
46.4488
51.2032
55.3469
58.804
61.5968
63.7881
65.4477
66.637
67.4035
67.779
46.4488
51.2032
55.347
58.804
61.5969
63.7882
65.4477
66.637
67.4036
67.7791
46.4489
51.2033
55.3471
58.8041
61.5969
63.7883
65.4478
66.6371
67.4037
67.7792
46.449
51.2034
55.3472
58.8042
61.5971
63.7884
65.448
66.6373
67.4039
67.7794
46.4492
51.2036
55.3474
58.8044
61.5973
63.7886
65.4482
66.6375
67.4041
67.7796
39.1718
42.7862
46.026
48.8127
51.1273
52.9855
54.4181
55.4583
56.1347
56.4677
39.1716
42.7861
46.0258
48.8125
51.1272
52.9854
54.418
55.4581
56.1346
56.4676
39.1715
42.786
46.0257
48.8124
51.127
52.9853
54.4178
55.458
56.1344
56.4675
39.1715
42.7859
46.0256
48.8124
51.127
52.9852
54.4178
55.458
56.1344
56.4674
39.1714
42.7859
46.0256
48.8123
51.1269
52.9852
54.4177
55.4579
56.1344
56.4674
39.1714
42.7859
46.0256
48.8123
51.1269
52.9852
54.4178
55.458
56.1344
56.4674
39.1715
42.7859
46.0257
48.8124
51.127
52.9852
54.4178
55.458
56.1344
56.4675
39.1715
42.786
46.0257
48.8125
51.1271
52.9853
54.4179
55.4581
56.1345
56.4676
39.1716
42.7861
46.0259
48.8126
51.1272
52.9855
54.4181
55.4583
56.1347
56.4678
39.1718
42.7863
46.026
48.8128
51.1274
52.9856
54.4182
55.4584
56.1349
56.4679
33.1112
35.7842
38.2391
40.4113
42.2644
43.7864
44.9813
45.8609
46.4383
46.7241
33.1111
35.784
38.2389
40.4112
42.2643
43.7862
44.9811
45.8607
46.4381
46.724
33.111
35.7839
38.2388
40.4111
42.2642
43.7861
44.981
45.8606
46.438
46.7239
33.1109
35.7838
38.2387
40.411
42.2641
43.7861
44.981
45.8605
46.438
46.7239
33.1109
35.7838
38.2387
40.411
42.2641
43.786
44.9809
45.8605
46.4379
46.7239
33.1109
35.7838
38.2387
40.411
42.2641
43.786
44.981
45.8605
46.438
46.7239
33.1109
35.7839
38.2388
40.411
42.2641
43.7861
44.981
45.8606
46.438
46.7239
33.111
35.7839
38.2388
40.4111
42.2642
43.7862
44.9811
45.8607
46.4381
46.724
33.1111
35.7841
38.239
40.4112
42.2643
43.7863
44.9812
45.8608
46.4383
46.7242
33.1112
35.7842
38.2391
40.4114
42.2645
43.7865
44.9814
45.861
46.4384
46.7244
28.1213
29.9716
31.7401
33.3656
34.7971
36.003
36.9686
37.6897
38.1679
38.406
28.1212
29.9715
31.74
33.3655
34.797
36.0029
36.9684
37.6896
38.1678
38.4059
28.1211
29.9714