/*--------------------------------*- C++ -*----------------------------------*\
  =========                 |
  \\      /  F ield         | OpenFOAM: The Open Source CFD Toolbox
   \\    /   O peration     | Website:  https://openfoam.org
    \\  /    A nd           | Version:  6
     \\/     M anipulation  |
\*---------------------------------------------------------------------------*/
FoamFile
{
    version     2.0;
    format      ascii;
    class       volScalarField;
    location    "0.51";
    object      T;
}
// * * * * * * * * * * * * * * * * * * * * * * * * * * * * * * * * * * * * * //

dimensions      [0 0 0 1 0 0 0];

internalField   nonuniform List<scalar> 
7000
(
105.595
105.593
105.588
105.583
105.575
105.568
105.56
105.553
105.547
105.545
105.595
105.593
105.588
105.583
105.575
105.568
105.56
105.553
105.547
105.545
105.595
105.593
105.588
105.583
105.575
105.568
105.56
105.553
105.547
105.545
105.595
105.593
105.588
105.583
105.575
105.568
105.56
105.553
105.547
105.545
105.595
105.593
105.588
105.583
105.575
105.568
105.56
105.553
105.547
105.545
105.595
105.593
105.588
105.583
105.575
105.568
105.56
105.553
105.547
105.545
105.595
105.593
105.588
105.583
105.575
105.568
105.56
105.553
105.547
105.545
105.595
105.593
105.588
105.583
105.575
105.568
105.56
105.553
105.547
105.545
105.595
105.593
105.588
105.583
105.575
105.568
105.56
105.553
105.547
105.545
105.595
105.593
105.588
105.583
105.575
105.568
105.56
105.553
105.547
105.545
96.8262
96.8197
96.807
96.789
96.7668
96.7424
96.7178
96.6959
96.6793
96.6704
96.8262
96.8196
96.807
96.7889
96.7668
96.7423
96.7178
96.6959
96.6793
96.6703
96.8261
96.8196
96.8069
96.7889
96.7668
96.7423
96.7178
96.6959
96.6793
96.6703
96.8261
96.8196
96.8069
96.7889
96.7668
96.7423
96.7178
96.6959
96.6793
96.6703
96.8261
96.8196
96.8069
96.7889
96.7668
96.7423
96.7178
96.6959
96.6793
96.6703
96.8261
96.8196
96.8069
96.7889
96.7668
96.7423
96.7178
96.6959
96.6793
96.6703
96.8261
96.8196
96.8069
96.7889
96.7668
96.7423
96.7178
96.6959
96.6793
96.6703
96.8261
96.8196
96.8069
96.7889
96.7668
96.7423
96.7178
96.6959
96.6793
96.6703
96.8261
96.8196
96.8069
96.7889
96.7668
96.7423
96.7178
96.6959
96.6793
96.6703
96.8261
96.8196
96.807
96.7889
96.7668
96.7423
96.7178
96.6959
96.6793
96.6704
88.1833
88.1719
88.1497
88.1181
88.079
88.0354
87.9913
87.9515
87.9212
87.9047
88.1833
88.1719
88.1497
88.118
88.0789
88.0353
87.9913
87.9515
87.9211
87.9046
88.1832
88.1718
88.1497
88.118
88.0789
88.0353
87.9912
87.9515
87.9211
87.9046
88.1832
88.1718
88.1497
88.118
88.0789
88.0353
87.9912
87.9515
87.9211
87.9046
88.1832
88.1718
88.1497
88.118
88.0789
88.0353
87.9912
87.9514
87.9211
87.9046
88.1832
88.1718
88.1497
88.118
88.0789
88.0353
87.9912
87.9514
87.9211
87.9046
88.1832
88.1718
88.1497
88.118
88.0789
88.0353
87.9912
87.9515
87.9211
87.9046
88.1832
88.1718
88.1497
88.118
88.0789
88.0353
87.9912
87.9515
87.9211
87.9046
88.1832
88.1718
88.1497
88.118
88.0789
88.0353
87.9912
87.9515
87.9211
87.9046
88.1832
88.1719
88.1497
88.118
88.0789
88.0353
87.9913
87.9515
87.9212
87.9047
79.7462
79.7292
79.6961
79.6484
79.5889
79.5218
79.453
79.3899
79.3411
79.3143
79.7462
79.7292
79.696
79.6483
79.5888
79.5217
79.4529
79.3899
79.3411
79.3143
79.7461
79.7292
79.696
79.6483
79.5888
79.5217
79.4529
79.3899
79.3411
79.3143
79.7461
79.7291
79.696
79.6483
79.5888
79.5217
79.4529
79.3898
79.341
79.3142
79.7461
79.7291
79.696
79.6483
79.5888
79.5217
79.4528
79.3898
79.341
79.3142
79.7461
79.7291
79.696
79.6483
79.5888
79.5217
79.4528
79.3898
79.341
79.3142
79.7461
79.7291
79.696
79.6483
79.5888
79.5217
79.4529
79.3898
79.341
79.3142
79.7461
79.7291
79.696
79.6483
79.5888
79.5217
79.4529
79.3899
79.3411
79.3143
79.7461
79.7292
79.696
79.6483
79.5888
79.5217
79.4529
79.3899
79.3411
79.3143
79.7461
79.7292
79.696
79.6483
79.5888
79.5217
79.4529
79.3899
79.3411
79.3143
71.59
71.5666
71.5205
71.4535
71.3689
71.2718
71.1703
71.0752
71
70.9578
71.59
71.5665
71.5204
71.4535
71.3688
71.2718
71.1703
71.0752
70.9999
70.9578
71.5899
71.5665
71.5204
71.4534
71.3688
71.2718
71.1702
71.0752
70.9999
70.9578
71.5899
71.5664
71.5203
71.4534
71.3688
71.2717
71.1702
71.0751
70.9999
70.9578
71.5899
71.5664
71.5203
71.4534
71.3688
71.2717
71.1702
71.0751
70.9998
70.9577
71.5899
71.5664
71.5203
71.4534
71.3687
71.2717
71.1702
71.0751
70.9998
70.9577
71.5899
71.5664
71.5203
71.4534
71.3688
71.2717
71.1702
71.0751
70.9999
70.9578
71.5899
71.5665
71.5204
71.4534
71.3688
71.2717
71.1702
71.0752
70.9999
70.9578
71.5899
71.5665
71.5204
71.4534
71.3688
71.2718
71.1703
71.0752
70.9999
70.9578
71.59
71.5665
71.5204
71.4535
71.3689
71.2718
71.1703
71.0752
71
70.9579
63.7832
63.7522
63.691
63.601
63.4854
63.3499
63.2042
63.0634
62.948
62.8815
63.7831
63.7521
63.6909
63.601
63.4854
63.3499
63.2042
63.0633
62.9479
62.8814
63.7831
63.7521
63.6909
63.6009
63.4853
63.3498
63.2041
63.0633
62.9479
62.8814
63.783
63.7521
63.6908
63.6009
63.4853
63.3498
63.2041
63.0633
62.9479
62.8814
63.783
63.7521
63.6908
63.6009
63.4853
63.3498
63.2041
63.0632
62.9478
62.8813
63.783
63.752
63.6908
63.6009
63.4853
63.3498
63.2041
63.0632
62.9478
62.8813
63.783
63.7521
63.6908
63.6009
63.4853
63.3498
63.2041
63.0633
62.9479
62.8814
63.783
63.7521
63.6909
63.6009
63.4853
63.3498
63.2041
63.0633
62.9479
62.8814
63.7831
63.7521
63.6909
63.6009
63.4854
63.3499
63.2042
63.0633
62.9479
62.8814
63.7831
63.7522
63.6909
63.601
63.4854
63.3499
63.2042
63.0634
62.948
62.8815
56.3857
56.3464
56.2681
56.1514
55.9985
55.8143
55.609
55.4014
55.2224
55.1137
56.3856
56.3463
56.268
56.1514
55.9985
55.8142
55.6089
55.4013
55.2223
55.1137
56.3856
56.3463
56.268
56.1513
55.9984
55.8142
55.6089
55.4013
55.2223
55.1137
56.3856
56.3463
56.2679
56.1513
55.9984
55.8142
55.6088
55.4013
55.2222
55.1136
56.3855
56.3462
56.2679
56.1513
55.9984
55.8141
55.6088
55.4013
55.2222
55.1136
56.3855
56.3462
56.2679
56.1513
55.9984
55.8141
55.6088
55.4013
55.2222
55.1136
56.3855
56.3463
56.2679
56.1513
55.9984
55.8142
55.6088
55.4013
55.2222
55.1136
56.3856
56.3463
56.268
56.1513
55.9984
55.8142
55.6089
55.4013
55.2223
55.1137
56.3856
56.3463
56.268
56.1513
55.9984
55.8142
55.6089
55.4013
55.2223
55.1137
56.3856
56.3464
56.2681
56.1514
55.9985
55.8143
55.609
55.4014
55.2224
55.1138
49.4484
49.4003
49.3037
49.1578
48.962
48.7185
48.4345
48.1295
47.8451
47.6565
49.4483
49.4003
49.3037
49.1577
48.962
48.7184
48.4344
48.1294
47.8451
47.6564
49.4482
49.4002
49.3036
49.1576
48.9619
48.7184
48.4344
48.1293
47.845
47.6564
49.4482
49.4002
49.3036
49.1576
48.9619
48.7183
48.4343
48.1293
47.845
47.6563
49.4482
49.4001
49.3036
49.1576
48.9619
48.7183
48.4343
48.1293
47.845
47.6563
49.4482
49.4001
49.3036
49.1576
48.9619
48.7183
48.4343
48.1293
47.845
47.6563
49.4482
49.4002
49.3036
49.1576
48.9619
48.7183
48.4343
48.1293
47.845
47.6563
49.4482
49.4002
49.3036
49.1576
48.9619
48.7184
48.4344
48.1293
47.845
47.6564
49.4483
49.4002
49.3037
49.1577
48.962
48.7184
48.4344
48.1294
47.8451
47.6564
49.4483
49.4003
49.3037
49.1577
48.962
48.7185
48.4345
48.1295
47.8451
47.6565
43.0114
42.955
42.8406
42.6652
42.4244
42.1139
41.7323
41.2888
40.8252
40.4643
43.0113
42.9549
42.8405
42.6651
42.4243
42.1139
41.7322
41.2887
40.8251
40.4643
43.0113
42.9548
42.8405
42.665
42.4243
42.1138
41.7321
41.2886
40.8251
40.4643
43.0112
42.9548
42.8404
42.665
42.4242
42.1138
41.7321
41.2886
40.8251
40.4642
43.0112
42.9548
42.8404
42.665
42.4242
42.1138
41.7321
41.2886
40.825
40.4642
43.0112
42.9548
42.8404
42.665
42.4242
42.1138
41.7321
41.2886
40.825
40.4642
43.0112
42.9548
42.8404
42.665
42.4242
42.1138
41.7321
41.2886
40.8251
40.4642
43.0112
42.9548
42.8405
42.665
42.4243
42.1138
41.7321
41.2887
40.8251
40.4643
43.0113
42.9549
42.8405
42.6651
42.4243
42.1139
41.7322
41.2887
40.8252
40.4643
43.0113
42.9549
42.8406
42.6651
42.4244
42.1139
41.7323
41.2888
40.8252
40.4644
37.1037
37.0403
36.911
36.7101
36.4286
36.0532
35.5656
34.9439
34.181
33.3921
37.1036
37.0402
36.9109
36.71
36.4285
36.0531
35.5655
34.9438
34.1809
33.392
37.1035
37.0402
36.9108
36.7099
36.4285
36.0531
35.5655
34.9438
34.1809
33.392
37.1035
37.0401
36.9108
36.7099
36.4284
36.0531
35.5654
34.9438
34.1809
33.392
37.1035
37.0401
36.9108
36.7099
36.4284
36.053
35.5654
34.9437
34.1808
33.3919
37.1035
37.0401
36.9108
36.7099
36.4284
36.053
35.5654
34.9437
34.1808
33.3919
37.1035
37.0401
36.9108
36.7099
36.4284
36.0531
35.5654
34.9438
34.1809
33.392
37.1035
37.0401
36.9108
36.7099
36.4285
36.0531
35.5655
34.9438
34.1809
33.392
37.1035
37.0402
36.9109
36.71
36.4285
36.0531
35.5655
34.9439
34.181
33.392
37.1036
37.0403
36.9109
36.7101
36.4286
36.0532
35.5656
34.9439
34.181
33.3921
31.7419
31.6742
31.5354
31.3181
31.0096
30.5889
30.0196
29.2308
28.059
26.0333
31.7419
31.6741
31.5353
31.318
31.0095
30.5888
30.0195
29.2307
28.0589
26.0332
31.7418
31.6741
31.5352
31.3179
31.0095
30.5888
30.0194
29.2307
28.0588
26.0332
31.7418
31.674
31.5352
31.3179
31.0094
30.5888
30.0194
29.2306
28.0588
26.0331
31.7418
31.674
31.5352
31.3179
31.0094
30.5887
30.0194
29.2306
28.0588
26.0331
31.7418
31.674
31.5352
31.3179
31.0094
30.5887
30.0194
29.2306
28.0588
26.0331
31.7418
31.674
31.5352
31.3179
31.0094
30.5888
30.0194
29.2306
28.0588
26.0331
31.7418
31.6741
31.5352
31.3179
31.0095
30.5888
30.0194
29.2307
28.0588
26.0332
31.7418
31.6741
31.5353
31.318
31.0095
30.5889
30.0195
29.2307
28.0589
26.0332
31.7419
31.6742
31.5353
31.3181
31.0096
30.5889
30.0196
29.2308
28.059
26.0333
26.9305
26.8617
26.7208
26.5002
26.1868
25.7594
25.1829
24.3971
23.2976
21.7229
26.9304
26.8617
26.7208
26.5001
26.1867
25.7593
25.1828
24.397
23.2976
21.7228
26.9303
26.8616
26.7207
26.5001
26.1867
25.7593
25.1828
24.397
23.2975
21.7228
26.9303
26.8616
26.7207
26.5
26.1866
25.7593
25.1827
24.3969
23.2975
21.7227
26.9303
26.8616
26.7207
26.5
26.1866
25.7592
25.1827
24.3969
23.2975
21.7227
26.9303
26.8616
26.7207
26.5
26.1866
25.7592
25.1827
24.3969
23.2975
21.7227
26.9303
26.8616
26.7207
26.5
26.1866
25.7593
25.1827
24.3969
23.2975
21.7227
26.9303
26.8616
26.7207
26.5001
26.1867
25.7593
25.1828
24.397
23.2975
21.7228
26.9304
26.8616
26.7208
26.5001
26.1867
25.7594
25.1828
24.397
23.2976
21.7228
26.9304
26.8617
26.7208
26.5002
26.1868
25.7594
25.1829
24.3971
23.2976
21.7229
22.6611
22.595
22.4599
22.2496
21.9542
21.5583
21.0399
20.3699
19.5175
18.4834
22.661
22.5949
22.4598
22.2496
21.9541
21.5582
21.0399
20.3698
19.5174
18.4834
22.661
22.5948
22.4597
22.2495
21.9541
21.5581
21.0398
20.3698
19.5173
18.4833
22.6609
22.5948
22.4597
22.2495
21.954
21.5581
21.0398
20.3697
19.5173
18.4833
22.6609
22.5948
22.4597
22.2495
21.954
21.5581
21.0398
20.3697
19.5173
18.4833
22.6609
22.5948
22.4597
22.2495
21.954
21.5581
21.0398
20.3697
19.5173
18.4833
22.6609
22.5948
22.4597
22.2495
21.954
21.5581
21.0398
20.3698
19.5173
18.4833
22.661
22.5948
22.4597
22.2495
21.9541
21.5581
21.0398
20.3698
19.5173
18.4833
22.661
22.5949
22.4598
22.2496
21.9541
21.5582
21.0399
20.3698
19.5174
18.4834
22.6611
22.5949
22.4599
22.2496
21.9542
21.5583
21.0399
20.3699
19.5175
18.4834
18.9143
18.8539
18.7313
18.5428
18.2827
17.9441
17.5196
17.0058
16.4141
15.7958
18.9142
18.8538
18.7313
18.5427
18.2826
17.944
17.5195
17.0058
16.414
15.7958
18.9142
18.8538
18.7312
18.5427
18.2826
17.944
17.5195
17.0057
16.414
15.7957
18.9142
18.8538
18.7312
18.5426
18.2826
17.9439
17.5194
17.0057
16.414
15.7957
18.9142
18.8538
18.7312
18.5426
18.2826
17.9439
17.5194
17.0057
16.4139
15.7957
18.9142
18.8538
18.7312
18.5426
18.2826
17.9439
17.5194
17.0057
16.4139
15.7957
18.9142
18.8538
18.7312
18.5426
18.2826
17.9439
17.5194
17.0057
16.414
15.7957
18.9142
18.8538
18.7312
18.5427
18.2826
17.944
17.5195
17.0057
16.414
15.7957
18.9142
18.8538
18.7313
18.5427
18.2827
17.944
17.5195
17.0058
16.4141
15.7958
18.9143
18.8539
18.7313
18.5428
18.2827
17.9441
17.5196
17.0058
16.4141
15.7958
15.6612
15.6087
15.5031
15.3434
15.1286
14.8591
14.5392
14.1814
13.8147
13.4975
15.6611
15.6086
15.5031
15.3433
15.1285
14.8591
14.5392
14.1814
13.8146
13.4974
15.6611
15.6086
15.503
15.3433
15.1285
14.859
14.5391
14.1813
13.8146
13.4974
15.661
15.6086
15.503
15.3433
15.1285
14.859
14.5391
14.1813
13.8145
13.4973
15.661
15.6085
15.503
15.3433
15.1284
14.859
14.5391
14.1813
13.8145
13.4973
15.661
15.6085
15.503
15.3433
15.1284
14.859
14.5391
14.1813
13.8145
13.4973
15.661
15.6086
15.503
15.3433
15.1285
14.859
14.5391
14.1813
13.8146
13.4974
15.6611
15.6086
15.503
15.3433
15.1285
14.859
14.5391
14.1813
13.8146
13.4974
15.6611
15.6086
15.5031
15.3434
15.1285
14.8591
14.5392
14.1814
13.8146
13.4974
15.6611
15.6087
15.5031
15.3434
15.1286
14.8591
14.5393
14.1814
13.8147
13.4975
12.8655
12.8221
12.7357
12.6076
12.4409
12.2418
12.0222
11.8032
11.6197
11.5246
12.8655
12.822
12.7356
12.6076
12.4409
12.2418
12.0221
11.8031
11.6197
11.5245
12.8654
12.822
12.7356
12.6076
12.4408
12.2417
12.0221
11.8031
11.6196
11.5245
12.8654
12.822
12.7356
12.6075
12.4408
12.2417
12.0221
11.8031
11.6196
11.5244
12.8654
12.822
12.7356
12.6075
12.4408
12.2417
12.022
11.8031
11.6196
11.5244
12.8654
12.822
12.7356
12.6075
12.4408
12.2417
12.0221
11.8031
11.6196
11.5244
12.8654
12.822
12.7356
12.6075
12.4408
12.2417
12.0221
11.8031
11.6196
11.5244
12.8655
12.822
12.7356
12.6076
12.4409
12.2417
12.0221
11.8031
11.6196
11.5245
12.8655
12.822
12.7357
12.6076
12.4409
12.2418
12.0221
11.8032
11.6197
11.5245
12.8655
12.8221
12.7357
12.6077
12.441
12.2418
12.0222
11.8032
11.6198
11.5246
10.4867
10.4524
10.3851
10.288
10.1669
10.0321
9.90059
9.79845
9.76325
9.8423
10.4867
10.4524
10.3851
10.2879
10.1669
10.0321
9.90053
9.7984
9.76319
9.84224
10.4867
10.4523
10.385
10.2879
10.1668
10.0321
9.9005
9.79836
9.76315
9.84219
10.4866
10.4523
10.385
10.2879
10.1668
10.032
9.90047
9.79834
9.76312
9.84217
10.4866
10.4523
10.385
10.2879
10.1668
10.032
9.90046
9.79832
9.76311
9.84215
10.4866
10.4523
10.385
10.2879
10.1668
10.032
9.90046
9.79833
9.76311
9.84215
10.4866
10.4523
10.385
10.2879
10.1668
10.032
9.90048
9.79834
9.76313
9.84217
10.4867
10.4523
10.385
10.2879
10.1668
10.0321
9.90051
9.79837
9.76316
9.8422
10.4867
10.4524
10.3851
10.288
10.1669
10.0321
9.90055
9.79842
9.7632
9.84225
10.4867
10.4524
10.3851
10.288
10.1669
10.0322
9.90061
9.79848
9.76327
9.84232
8.48177
8.45585
8.40595
8.33635
8.25472
8.17377
8.11359
8.10454
8.18927
8.41926
8.48173
8.45581
8.40591
8.33631
8.25467
8.17372
8.11355
8.10449
8.18922
8.4192
8.4817
8.45577
8.40587
8.33627
8.25464
8.17369
8.11351
8.10446
8.18918
8.41916
8.48168
8.45575
8.40585
8.33625
8.25462
8.17367
8.11349
8.10443
8.18916
8.41914
8.48167
8.45575
8.40585
8.33624
8.25461
8.17366
8.11348
8.10442
8.18915
8.41912
8.48167
8.45575
8.40585
8.33625
8.25462
8.17366
8.11348
8.10443
8.18915
8.41913
8.48168
8.45576
8.40586
8.33626
8.25463
8.17368
8.1135
8.10444
8.18917
8.41914
8.4817
8.45578
8.40588
8.33628
8.25465
8.1737
8.11353
8.10447
8.1892
8.41917
8.48173
8.45581
8.40592
8.33632
8.25469
8.17374
8.11356
8.10451
8.18924
8.41922
8.48177
8.45586
8.40596
8.33637
8.25474
8.17379
8.11362
8.10456
8.1893
8.41928
6.80747
6.7887
6.75337
6.70622
6.65555
6.61487
6.60553
6.66117
6.83458
7.20514
6.80743
6.78866
6.75334
6.70619
6.65552
6.61483
6.60549
6.66112
6.83453
7.20509
6.8074
6.78864
6.75331
6.70616
6.65549
6.6148
6.60546
6.66109
6.8345
7.20505
6.80738
6.78862
6.75329
6.70614
6.65547
6.61478
6.60544
6.66107
6.83448
7.20503
6.80737
6.78861
6.75328
6.70613
6.65546
6.61477
6.60543
6.66106
6.83447
7.20502
6.80738
6.78861
6.75329
6.70614
6.65547
6.61477
6.60544
6.66107
6.83447
7.20502
6.80739
6.78862
6.7533
6.70615
6.65548
6.61479
6.60545
6.66108
6.83449
7.20504
6.80741
6.78864
6.75332
6.70617
6.6555
6.61481
6.60548
6.66111
6.83451
7.20507
6.80743
6.78867
6.75335
6.7062
6.65553
6.61485
6.60551
6.66114
6.83455
7.20511
6.80746
6.78871
6.75339
6.70625
6.65558
6.61489
6.60556
6.66119
6.8346
7.20516
5.422
5.40891
5.38487
5.35442
5.32533
5.30988
5.32729
5.40885
5.61227
6.07248
5.42197
5.40888
5.38484
5.35439
5.3253
5.30984
5.32725
5.40882
5.61223
6.07243
5.42195
5.40885
5.38481
5.35437
5.32527
5.30982
5.32723
5.40879
5.6122
6.0724
5.42193
5.40884
5.3848
5.35435
5.32526
5.3098
5.32721
5.40877
5.61219
6.07239
5.42192
5.40883
5.38479
5.35435
5.32525
5.3098
5.3272
5.40877
5.61218
6.07238
5.42193
5.40883
5.38479
5.35435
5.32525
5.3098
5.32721
5.40877
5.61218
6.07238
5.42193
5.40884
5.3848
5.35436
5.32526
5.30981
5.32722
5.40878
5.6122
6.0724
5.42195
5.40886
5.38482
5.35438
5.32529
5.30983
5.32724
5.4088
5.61222
6.07242
5.42198
5.40889
5.38485
5.35441
5.32531
5.30986
5.32727
5.40884
5.61225
6.07246
5.422
5.40892
5.38489
5.35445
5.32535
5.3099
5.32731
5.40888
5.6123
6.07251
21.4838
19.3749
18.8919
19.7639
21.959
25.5973
30.9474
38.4881
49.0802
64.4286
21.4837
19.3748
18.8918
19.7638
21.9589
25.5972
30.9473
38.488
49.08
64.4284
21.4837
19.3747
18.8917
19.7637
21.9588
25.5971
30.9472
38.4878
49.0799
64.4282
21.4836
19.3747
18.8917
19.7636
21.9587
25.597
30.9471
38.4878
49.0798
64.4281
21.4836
19.3747
18.8916
19.7636
21.9587
25.597
30.9471
38.4877
49.0797
64.4281
21.4836
19.3747
18.8916
19.7636
21.9587
25.597
30.9471
38.4877
49.0797
64.4281
21.4836
19.3747
18.8917
19.7636
21.9587
25.597
30.9471
38.4877
49.0798
64.4281
21.4836
19.3747
18.8917
19.7636
21.9588
25.597
30.9471
38.4878
49.0798
64.4282
21.4837
19.3748
18.8917
19.7637
21.9588
25.5971
30.9472
38.4879
49.0799
64.4283
21.4838
19.3748
18.8918
19.7638
21.9589
25.5972
30.9473
38.488
49.08
64.4284
19.6032
18.3482
18.1823
19.1411
21.2811
24.7258
29.683
36.4594
45.4545
57.0119
19.6031
18.3481
18.1822
19.141
21.281
24.7257
29.6828
36.4592
45.4543
57.0117
19.603
18.3481
18.1821
19.1409
21.2809
24.7256
29.6827
36.4591
45.4542
57.0115
19.603
18.348
18.1821
19.1409
21.2809
24.7255
29.6826
36.459
45.4541
57.0115
19.603
18.348
18.1821
19.1408
21.2808
24.7255
29.6826
36.459
45.4541
57.0114
19.603
18.348
18.1821
19.1408
21.2808
24.7255
29.6826
36.459
45.4541
57.0114
19.603
18.348
18.1821
19.1409
21.2809
24.7255
29.6826
36.459
45.4541
57.0114
19.603
18.348
18.1821
19.1409
21.2809
24.7255
29.6827
36.4591
45.4542
57.0115
19.6031
18.3481
18.1822
19.141
21.281
24.7256
29.6828
36.4592
45.4543
57.0116
19.6032
18.3482
18.1823
19.1411
21.2811
24.7257
29.6829
36.4593
45.4544
57.0118
17.4137
16.8257
16.9865
18.0297
20.0547
23.1713
27.5118
33.217
40.3729
48.8303
17.4136
16.8256
16.9864
18.0296
20.0546
23.1712
27.5117
33.2169
40.3727
48.8302
17.4136
16.8255
16.9863
18.0295
20.0545
23.1711
27.5116
33.2168
40.3726
48.83
17.4135
16.8255
16.9863
18.0295
20.0545
23.171
27.5115
33.2167
40.3725
48.8299
17.4135
16.8254
16.9862
18.0294
20.0544
23.171
27.5115
33.2167
40.3725
48.8299
17.4135
16.8254
16.9862
18.0294
20.0544
23.171
27.5114
33.2167
40.3725
48.8299
17.4135
16.8255
16.9863
18.0295
20.0545
23.171
27.5115
33.2167
40.3725
48.8299
17.4136
16.8255
16.9863
18.0295
20.0545
23.1711
27.5115
33.2167
40.3726
48.83
17.4136
16.8256
16.9864
18.0296
20.0546
23.1711
27.5116
33.2168
40.3727
48.8301
17.4137
16.8256
16.9865
18.0297
20.0547
23.1712
27.5117
33.217
40.3729
48.8303
15.2871
15.1349
15.533
16.6137
18.4753
21.2016
24.8632
29.4975
35.0554
41.3035
15.2871
15.1348
15.5329
16.6136
18.4752
21.2014
24.863
29.4973
35.0552
41.3034
15.287
15.1347
15.5328
16.6135
18.4751
21.2013
24.8629
29.4972
35.0551
41.3032
15.287
15.1347
15.5328
16.6135
18.4751
21.2013
24.8629
29.4972
35.055
41.3031
15.2869
15.1346
15.5328
16.6135
18.475
21.2013
24.8628
29.4971
35.055
41.3031
15.2869
15.1346
15.5328
16.6135
18.475
21.2013
24.8628
29.4971
35.055
41.3031
15.287
15.1347
15.5328
16.6135
18.4751
21.2013
24.8629
29.4971
35.055
41.3031
15.287
15.1347
15.5328
16.6135
18.4751
21.2013
24.8629
29.4972
35.0551
41.3032
15.2871
15.1348
15.5329
16.6136
18.4752
21.2014
24.863
29.4973
35.0552
41.3033
15.2871
15.1348
15.533
16.6137
18.4753
21.2015
24.8631
29.4974
35.0553
41.3035
13.3312
13.4561
14.0023
15.0729
16.7458
19.0769
22.0953
25.7864
30.0623
34.7226
13.3311
13.456
14.0022
15.0728
16.7457
19.0768
22.0951
25.7862
30.0622
34.7224
13.3311
13.456
14.0022
15.0727
16.7456
19.0767
22.0951
25.7862
30.0621
34.7223
13.3311
13.4559
14.0021
15.0726
16.7456
19.0767
22.095
25.7861
30.062
34.7222
13.331
13.4559
14.0021
15.0726
16.7455
19.0767
22.095
25.7861
30.062
34.7222
13.331
13.4559
14.0021
15.0726
16.7455
19.0767
22.095
25.7861
30.062
34.7222
13.3311
13.4559
14.0021
15.0726
16.7456
19.0767
22.095
25.7861
30.062
34.7222
13.3311
13.456
14.0021
15.0727
16.7456
19.0767
22.095
25.7861
30.0621
34.7223
13.3312
13.456
14.0022
15.0727
16.7457
19.0768
22.0951
25.7862
30.0622
34.7224
13.3312
13.4561
14.0023
15.0728
16.7458
19.0769
22.0953
25.7864
30.0623
34.7226
11.5891
11.8963
12.5294
13.5606
15.0443
17.0129
19.469
22.3757
25.643
29.1206
11.589
11.8963
12.5294
13.5605
15.0442
17.0128
19.4689
22.3755
25.6429
29.1204
11.589
11.8962
12.5293
13.5604
15.0441
17.0127
19.4688
22.3754
25.6428
29.1203
11.5889
11.8962
12.5293
13.5603
15.0441
17.0126
19.4688
22.3754
25.6428
29.1203
11.5889
11.8961
12.5292
13.5603
15.0441
17.0126
19.4687
22.3753
25.6427
29.1202
11.5889
11.8962
12.5292
13.5603
15.0441
17.0126
19.4687
22.3753
25.6427
29.1202
11.5889
11.8962
12.5293
13.5604
15.0441
17.0126
19.4688
22.3754
25.6428
29.1203
11.589
11.8962
12.5293
13.5604
15.0441
17.0127
19.4688
22.3754
25.6428
29.1204
11.589
11.8963
12.5294
13.5605
15.0442
17.0128
19.4689
22.3755
25.6429
29.1205
11.5891
11.8963
12.5294
13.5605
15.0443
17.0129
19.469
22.3757
25.6431
29.1206
10.0841
10.5263
11.2157
12.1998
13.5145
15.1746
17.1661
19.4407
21.9135
24.4717
10.0841
10.5263
11.2156
12.1997
13.5145
15.1745
17.166
19.4406
21.9134
24.4716
10.084
10.5262
11.2156
12.1997
13.5144
15.1744
17.1659
19.4405
21.9133
24.4715
10.084
10.5262
11.2155
12.1996
13.5143
15.1744
17.1659
19.4404
21.9132
24.4714
10.084
10.5262
11.2155
12.1996
13.5143
15.1744
17.1659
19.4404
21.9132
24.4714
10.084
10.5262
11.2155
12.1996
13.5143
15.1744
17.1659
19.4404
21.9132
24.4714
10.084
10.5262
11.2156
12.1996
13.5143
15.1744
17.1659
19.4405
21.9132
24.4714
10.084
10.5262
11.2156
12.1997
13.5144
15.1744
17.1659
19.4405
21.9133
24.4715
10.0841
10.5263
11.2157
12.1997
13.5145
15.1745
17.166
19.4406
21.9134
24.4716
10.0841
10.5263
11.2157
12.1998
13.5146
15.1746
17.1661
19.4407
21.9135
24.4717
8.83248
9.39986
10.1397
11.0869
12.2674
13.6855
15.3152
17.0975
18.9422
20.7478
8.83242
9.3998
10.1396
11.0868
12.2673
13.6854
15.3151
17.0974
18.942
20.7477
8.83237
9.39975
10.1396
11.0867
12.2673
13.6853
15.3151
17.0973
18.942
20.7476
8.83234
9.39972
10.1396
11.0867
12.2672
13.6853
15.315
17.0972
18.9419
20.7475
8.83233
9.3997
10.1395
11.0867
12.2672
13.6852
15.315
17.0972
18.9419
20.7475
8.83233
9.3997
10.1395
11.0867
12.2672
13.6852
15.315
17.0972
18.9419
20.7475
8.83235
9.39972
10.1396
11.0867
12.2673
13.6853
15.315
17.0972
18.9419
20.7476
8.83239
9.39976
10.1396
11.0867
12.2673
13.6853
15.3151
17.0973
18.942
20.7476
8.83243
9.39981
10.1397
11.0868
12.2674
13.6854
15.3152
17.0974
18.9421
20.7477
8.8325
9.39988
10.1397
11.0869
12.2675
13.6855
15.3153
17.0975
18.9422
20.7478
7.85424
8.56839
9.36678
10.2963
11.3863
12.6371
14.0135
15.4409
16.803
17.9564
7.85419
8.56832
9.36671
10.2962
11.3862
12.637
14.0134
15.4408
16.8029
17.9563
7.85415
8.56828
9.36666
10.2961
11.3862
12.6369
14.0134
15.4407
16.8028
17.9563
7.85412
8.56825
9.36663
10.2961
11.3861
12.6369
14.0133
15.4407
16.8028
17.9562
7.85411
8.56824
9.36662
10.2961
11.3861
12.6369
14.0133
15.4407
16.8028
17.9562
7.85411
8.56824
9.36662
10.2961
11.3861
12.6369
14.0133
15.4407
16.8028
17.9562
7.85413
8.56826
9.36664
10.2961
11.3862
12.6369
14.0133
15.4407
16.8028
17.9562
7.85416
8.5683
9.36668
10.2962
11.3862
12.6369
14.0134
15.4408
16.8029
17.9563
7.85421
8.56835
9.36674
10.2962
11.3863
12.637
14.0135
15.4408
16.803
17.9564
7.85427
8.56841
9.36681
10.2963
11.3863
12.6371
14.0136
15.441
16.8031
17.9565
7.21436
8.10087
8.95604
9.8841
10.9298
12.0946
13.3376
14.5677
15.6256
16.235
7.21432
8.10082
8.95599
9.88404
10.9297
12.0946
13.3375
14.5677
15.6255
16.2349
7.21428
8.10078
8.95594
9.884
10.9297
12.0945
13.3374
14.5676
15.6254
16.2349
7.21426
8.10075
8.95591
9.88397
10.9297
12.0945
13.3374
14.5676
15.6254
16.2348
7.21425
8.10074
8.9559
9.88395
10.9296
12.0944
13.3374
14.5676
15.6254
16.2348
7.21425
8.10075
8.9559
9.88396
10.9297
12.0944
13.3374
14.5676
15.6254
16.2348
7.21427
8.10076
8.95592
9.88398
10.9297
12.0945
13.3374
14.5676
15.6254
16.2348
7.2143
8.1008
8.95596
9.88402
10.9297
12.0945
13.3375
14.5676
15.6255
16.2349
7.21434
8.10085
8.95602
9.88408
10.9298
12.0946
13.3375
14.5677
15.6255
16.235
7.2144
8.10091
8.95609
9.88416
10.9299
12.0947
13.3376
14.5678
15.6257
16.2351
88.4461
99.5963
106.226
110.725
113.958
116.32
118.029
119.218
119.97
120.334
88.4459
99.596
106.226
110.725
113.957
116.319
118.029
119.218
119.97
120.334
88.4457
99.5958
106.225
110.725
113.957
116.319
118.028
119.217
119.969
120.334
88.4456
99.5957
106.225
110.725
113.957
116.319
118.028
119.217
119.969
120.334
88.4456
99.5957
106.225
110.724
113.957
116.319
118.028
119.217
119.969
120.334
88.4456
99.5957
106.225
110.724
113.957
116.319
118.028
119.217
119.969
120.334
88.4456
99.5957
106.225
110.725
113.957
116.319
118.028
119.217
119.969
120.334
88.4457
99.5958
106.225
110.725
113.957
116.319
118.029
119.218
119.969
120.334
88.4458
99.596
106.226
110.725
113.957
116.319
118.029
119.218
119.97
120.334
88.446
99.5961
106.226
110.725
113.958
116.32
118.029
119.218
119.97
120.334
70.5486
80.2667
86.987
91.7398
95.1747
97.676
99.4771
100.725
101.511
101.892
70.5484
80.2665
86.9868
91.7395
95.1745
97.6757
99.4769
100.724
101.511
101.892
70.5483
80.2663
86.9866
91.7394
95.1743
97.6756
99.4767
100.724
101.511
101.892
70.5482
80.2662
86.9865
91.7393
95.1742
97.6755
99.4766
100.724
101.511
101.891
70.5481
80.2661
86.9864
91.7392
95.1741
97.6754
99.4765
100.724
101.511
101.891
70.5481
80.2661
86.9864
91.7392
95.1741
97.6754
99.4765
100.724
101.511
101.891
70.5482
80.2662
86.9865
91.7393
95.1742
97.6755
99.4766
100.724
101.511
101.891
70.5482
80.2663
86.9866
91.7394
95.1743
97.6756
99.4767
100.724
101.511
101.892
70.5484
80.2664
86.9868
91.7395
95.1745
97.6758
99.4769
100.725
101.511
101.892
70.5485
80.2666
86.987
91.7398
95.1747
97.676
99.4772
100.725
101.511
101.892
57.794
65.3469
71.1989
75.6144
78.9166
81.3641
83.1427
84.3805
85.1629
85.5419
57.7938
65.3467
71.1987
75.6142
78.9164
81.3639
83.1424
84.3803
85.1627
85.5417
57.7937
65.3466
71.1985
75.614
78.9162
81.3637
83.1423
84.3802
85.1626
85.5416
57.7936
65.3465
71.1984
75.6139
78.9161
81.3636
83.1422
84.3801
85.1625
85.5415
57.7935
65.3464
71.1984
75.6139
78.9161
81.3636
83.1421
84.38
85.1624
85.5414
57.7935
65.3464
71.1984
75.6139
78.9161
81.3636
83.1421
84.38
85.1625
85.5415
57.7936
65.3465
71.1984
75.6139
78.9161
81.3636
83.1422
84.3801
85.1625
85.5415
57.7937
65.3466
71.1985
75.614
78.9163
81.3638
83.1423
84.3802
85.1627
85.5417
57.7938
65.3467
71.1987
75.6142
78.9164
81.3639
83.1425
84.3804
85.1628
85.5419
57.794
65.3469
71.1989
75.6144
78.9167
81.3642
83.1427
84.3807
85.1631
85.5421
47.7044
53.465
58.2549
62.0701
65.0315
67.281
68.9418
70.1095
70.8521
71.213
47.7042
53.4648
58.2547
62.0699
65.0313
67.2808
68.9416
70.1093
70.852
71.2129
47.7041
53.4647
58.2546
62.0697
65.0312
67.2806
68.9415
70.1092
70.8518
71.2128
47.704
53.4646
58.2545
62.0696
65.0311
67.2805
68.9414
70.1091
70.8517
71.2127
47.704
53.4645
58.2545
62.0696
65.031
67.2805
68.9413
70.109
70.8517
71.2127
47.704
53.4645
58.2545
62.0696
65.031
67.2805
68.9413
70.1091
70.8517
71.2127
47.704
53.4646
58.2545
62.0696
65.0311
67.2806
68.9414
70.1091
70.8518
71.2127
47.7041
53.4647
58.2546
62.0697
65.0312
67.2807
68.9415
70.1093
70.8519
71.2129
47.7042
53.4648
58.2548
62.0699
65.0314
67.2809
68.9417
70.1094
70.8521
71.2131
47.7044
53.465
58.255
62.0701
65.0316
67.2811
68.9419
70.1097
70.8523
71.2133
39.4352
43.8087
47.6074
50.7587
53.287
55.2559
56.7361
57.79
58.4657
58.7957
39.4351
43.8086
47.6072
50.7586
53.2868
55.2557
56.7359
57.7898
58.4656
58.7956
39.4349
43.8084
47.6071
50.7584
53.2867
55.2555
56.7357
57.7896
58.4654
58.7954
39.4349
43.8084
47.607
50.7583
53.2866
55.2554
56.7356
57.7895
58.4654
58.7954
39.4348
43.8083
47.607
50.7583
53.2865
55.2554
56.7356
57.7895
58.4653
58.7953
39.4348
43.8083
47.607
50.7583
53.2865
55.2554
56.7356
57.7895
58.4654
58.7954
39.4349
43.8084
47.607
50.7584
53.2866
55.2555
56.7357
57.7896
58.4654
58.7954
39.4349
43.8085
47.6071
50.7585
53.2867
55.2556
56.7358
57.7897
58.4655
58.7956
39.4351
43.8086
47.6073
50.7586
53.2869
55.2557
56.736
57.7899
58.4657
58.7957
39.4352
43.8088
47.6074
50.7588
53.2871
55.256
56.7362
57.7901
58.4659
58.796
32.6072
35.8954
38.8352
41.3516
43.4286
45.0846
46.3527
47.2679
47.8601
48.1508
32.6071
35.8953
38.835
41.3514
43.4284
45.0845
46.3525
47.2677
47.86
48.1507
32.6069
35.8952
38.8349
41.3513
43.4283
45.0843
46.3524
47.2676
47.8598
48.1506
32.6069
35.8951
38.8348
41.3512
43.4282
45.0843
46.3523
47.2675
47.8598
48.1506
32.6068
35.8951
38.8348
41.3512
43.4282
45.0842
46.3523
47.2675
47.8598
48.1505
32.6068
35.8951
38.8348
41.3512
43.4282
45.0842
46.3523
47.2675
47.8598
48.1506
32.6069
35.8951
38.8349
41.3512
43.4283
45.0843
46.3524
47.2675
47.8598
48.1506
32.607
35.8952
38.8349
41.3513
43.4284
45.0844
46.3525
47.2677
47.86
48.1507
32.6071
35.8953
38.8351
41.3515
43.4285
45.0846
46.3526
47.2678
47.8601
48.1509
32.6072
35.8955
38.8352
41.3517
43.4287
45.0848
46.3528
47.268
47.8603
48.1511
26.9995
29.4088
31.6164
33.5605
35.2089
36.5538
37.6029
38.3707
38.8724
39.1201
26.9994
29.4087
31.6162
33.5603
35.2087
36.5536
37.6027
38.3705
38.8723
39.12
26.9993
29.4086
31.6161
33.5602
35.2086
36.5535
37.6026
38.3704
38.8722
39.1199
26.9992
29.4085
31.616
33.5601
35.2085
36.5535
37.6025
38.3704
38.8721
39.1199
26.9992
29.4085
31.616
33.5601
35.2085
36.5534
37.6025
38.3703
38.8721
39.1199
26.9992
29.4085
31.616
33.5601
35.2085
36.5534
37.6025
38.3703
38.8721
39.1199
26.9992
29.4085
31.6161
33.5602
35.2086
36.5535
37.6026
38.3704
38.8722
39.12
26.9993
29.4086
31.6161
33.5603
35.2087
36.5536
37.6027
38.3705
38.8723
39.1201
26.9994
29.4087
31.6163
33.5604
35.2088
36.5537
37.6028
38.3707
38.8724
39.1202
26.9996
29.4089
31.6164
33.5605
35.209
36.5539
37.603
38.3708
38.8726
39.1204
22.4529
24.1118
25.6913
27.1347
28.3973
29.4539
30.2944
30.9186
31.3307
31.5354
22.4527
24.1117
25.6911
27.1345