/*--------------------------------*- C++ -*----------------------------------*\
  =========                 |
  \\      /  F ield         | OpenFOAM: The Open Source CFD Toolbox
   \\    /   O peration     | Website:  https://openfoam.org
    \\  /    A nd           | Version:  6
     \\/     M anipulation  |
\*---------------------------------------------------------------------------*/
FoamFile
{
    version     2.0;
    format      ascii;
    class       volScalarField;
    location    "0.655";
    object      T;
}
// * * * * * * * * * * * * * * * * * * * * * * * * * * * * * * * * * * * * * //

dimensions      [0 0 0 1 0 0 0];

internalField   nonuniform List<scalar> 
7000
(
106.073
106.071
106.067
106.061
106.053
106.046
106.038
106.031
106.026
106.023
106.073
106.071
106.067
106.061
106.053
106.046
106.038
106.031
106.026
106.023
106.073
106.071
106.067
106.061
106.053
106.046
106.038
106.031
106.026
106.023
106.073
106.071
106.067
106.061
106.053
106.046
106.038
106.031
106.026
106.023
106.073
106.071
106.067
106.061
106.053
106.046
106.038
106.031
106.026
106.023
106.073
106.071
106.067
106.061
106.053
106.046
106.038
106.031
106.026
106.023
106.073
106.071
106.067
106.061
106.053
106.046
106.038
106.031
106.026
106.023
106.073
106.071
106.067
106.061
106.053
106.046
106.038
106.031
106.026
106.023
106.073
106.071
106.067
106.061
106.053
106.046
106.038
106.031
106.026
106.023
106.073
106.071
106.067
106.061
106.053
106.046
106.038
106.031
106.026
106.023
98.2484
98.2418
98.229
98.2109
98.1888
98.1645
98.1404
98.1189
98.1027
98.094
98.2484
98.2418
98.229
98.2109
98.1888
98.1645
98.1403
98.1189
98.1027
98.094
98.2483
98.2417
98.229
98.2109
98.1888
98.1645
98.1403
98.1189
98.1027
98.094
98.2483
98.2417
98.229
98.2109
98.1888
98.1645
98.1403
98.1189
98.1027
98.094
98.2483
98.2417
98.2289
98.2108
98.1888
98.1645
98.1403
98.1189
98.1027
98.094
98.2483
98.2417
98.2289
98.2108
98.1888
98.1645
98.1403
98.1189
98.1027
98.094
98.2483
98.2417
98.2289
98.2108
98.1888
98.1645
98.1403
98.1189
98.1027
98.094
98.2483
98.2417
98.229
98.2109
98.1888
98.1645
98.1403
98.1189
98.1027
98.094
98.2483
98.2417
98.229
98.2109
98.1888
98.1645
98.1403
98.1189
98.1027
98.094
98.2483
98.2417
98.229
98.2109
98.1888
98.1645
98.1403
98.1189
98.1027
98.094
90.5122
90.5008
90.4787
90.4472
90.4086
90.3659
90.323
90.2846
90.2555
90.2397
90.5122
90.5008
90.4786
90.4472
90.4086
90.3659
90.323
90.2846
90.2554
90.2396
90.5121
90.5007
90.4786
90.4472
90.4086
90.3659
90.323
90.2846
90.2554
90.2396
90.5121
90.5007
90.4786
90.4472
90.4086
90.3658
90.323
90.2846
90.2554
90.2396
90.5121
90.5007
90.4786
90.4472
90.4085
90.3658
90.323
90.2846
90.2554
90.2396
90.5121
90.5007
90.4786
90.4472
90.4085
90.3658
90.323
90.2846
90.2554
90.2396
90.5121
90.5007
90.4786
90.4472
90.4085
90.3658
90.323
90.2846
90.2554
90.2396
90.5121
90.5007
90.4786
90.4472
90.4086
90.3658
90.323
90.2846
90.2554
90.2396
90.5121
90.5007
90.4786
90.4472
90.4086
90.3659
90.323
90.2846
90.2554
90.2396
90.5122
90.5008
90.4786
90.4472
90.4086
90.3659
90.323
90.2846
90.2554
90.2396
82.9217
82.9049
82.8723
82.8256
82.7679
82.7032
82.6375
82.5778
82.5319
82.5067
82.9216
82.9049
82.8723
82.8256
82.7678
82.7032
82.6375
82.5778
82.5318
82.5067
82.9216
82.9049
82.8723
82.8256
82.7678
82.7032
82.6375
82.5778
82.5318
82.5067
82.9216
82.9049
82.8722
82.8256
82.7678
82.7032
82.6375
82.5778
82.5318
82.5067
82.9216
82.9048
82.8722
82.8256
82.7678
82.7032
82.6375
82.5777
82.5318
82.5067
82.9216
82.9048
82.8722
82.8256
82.7678
82.7032
82.6375
82.5777
82.5318
82.5067
82.9216
82.9048
82.8722
82.8256
82.7678
82.7032
82.6375
82.5777
82.5318
82.5067
82.9216
82.9049
82.8722
82.8256
82.7678
82.7032
82.6375
82.5778
82.5318
82.5067
82.9216
82.9049
82.8723
82.8256
82.7678
82.7032
82.6375
82.5778
82.5318
82.5067
82.9216
82.9049
82.8723
82.8256
82.7678
82.7032
82.6375
82.5778
82.5319
82.5067
75.5318
75.509
75.4645
75.4002
75.3196
75.228
75.1332
75.0452
74.976
74.9374
75.5317
75.509
75.4644
75.4001
75.3195
75.228
75.1332
75.0451
74.9759
74.9374
75.5317
75.5089
75.4644
75.4001
75.3195
75.228
75.1331
75.0451
74.9759
74.9374
75.5317
75.5089
75.4644
75.4001
75.3195
75.228
75.1331
75.0451
74.9759
74.9374
75.5317
75.5089
75.4644
75.4001
75.3195
75.2279
75.1331
75.0451
74.9759
74.9374
75.5317
75.5089
75.4644
75.4001
75.3195
75.2279
75.1331
75.0451
74.9759
74.9374
75.5317
75.5089
75.4644
75.4001
75.3195
75.228
75.1331
75.0451
74.9759
74.9374
75.5317
75.5089
75.4644
75.4001
75.3195
75.228
75.1331
75.0451
74.9759
74.9374
75.5317
75.5089
75.4644
75.4001
75.3195
75.228
75.1331
75.0451
74.9759
74.9374
75.5317
75.509
75.4644
75.4001
75.3196
75.228
75.1332
75.0451
74.9759
74.9374
68.3942
68.3648
68.3068
68.2222
68.1145
67.9896
67.8567
67.7295
67.6262
67.5669
68.3942
68.3647
68.3067
68.2221
68.1144
67.9895
67.8566
67.7294
67.6261
67.5669
68.3941
68.3647
68.3067
68.2221
68.1144
67.9895
67.8566
67.7294
67.6261
67.5669
68.3941
68.3647
68.3067
68.2221
68.1144
67.9895
67.8566
67.7294
67.6261
67.5669
68.3941
68.3646
68.3066
68.222
68.1143
67.9894
67.8566
67.7294
67.6261
67.5669
68.3941
68.3646
68.3066
68.222
68.1143
67.9894
67.8566
67.7294
67.6261
67.5669
68.3941
68.3646
68.3066
68.222
68.1144
67.9895
67.8566
67.7294
67.6261
67.5669
68.3941
68.3647
68.3067
68.2221
68.1144
67.9895
67.8566
67.7294
67.6261
67.5669
68.3941
68.3647
68.3067
68.2221
68.1144
67.9895
67.8566
67.7294
67.6261
67.5669
68.3942
68.3647
68.3067
68.2221
68.1144
67.9895
67.8567
67.7295
67.6262
67.5669
61.5565
61.5199
61.4473
61.34
61.2009
61.0351
60.8526
60.67
60.5138
60.4197
61.5565
61.5199
61.4473
61.34
61.2008
61.0351
60.8525
60.6699
60.5138
60.4196
61.5565
61.5199
61.4472
61.34
61.2008
61.0351
60.8525
60.6699
60.5137
60.4196
61.5564
61.5198
61.4472
61.3399
61.2008
61.035
60.8525
60.6699
60.5137
60.4196
61.5564
61.5198
61.4472
61.3399
61.2008
61.035
60.8525
60.6698
60.5137
60.4196
61.5564
61.5198
61.4472
61.3399
61.2008
61.035
60.8525
60.6698
60.5137
60.4196
61.5564
61.5198
61.4472
61.3399
61.2008
61.035
60.8525
60.6698
60.5137
60.4196
61.5564
61.5198
61.4472
61.3399
61.2008
61.0351
60.8525
60.6699
60.5137
60.4196
61.5565
61.5199
61.4472
61.34
61.2008
61.0351
60.8525
60.6699
60.5138
60.4196
61.5565
61.5199
61.4473
61.34
61.2009
61.0351
60.8526
60.6699
60.5138
60.4197
55.0614
55.0176
54.9301
54.799
54.6252
54.4116
54.1655
53.9039
53.6621
53.5024
55.0613
55.0175
54.93
54.7989
54.6251
54.4115
54.1654
53.9039
53.662
53.5024
55.0613
55.0175
54.93
54.7989
54.6251
54.4115
54.1654
53.9038
53.662
53.5023
55.0612
55.0175
54.93
54.7989
54.6251
54.4114
54.1654
53.9038
53.662
53.5023
55.0612
55.0174
54.9299
54.7989
54.6251
54.4114
54.1653
53.9038
53.6619
53.5023
55.0612
55.0174
54.9299
54.7988
54.6251
54.4114
54.1653
53.9038
53.6619
53.5023
55.0612
55.0175
54.9299
54.7989
54.6251
54.4114
54.1653
53.9038
53.662
53.5023
55.0612
55.0175
54.93
54.7989
54.6251
54.4115
54.1654
53.9038
53.662
53.5023
55.0613
55.0175
54.93
54.7989
54.6251
54.4115
54.1654
53.9039
53.662
53.5024
55.0613
55.0175
54.93
54.799
54.6252
54.4115
54.1655
53.9039
53.6621
53.5024
48.9452
48.895
48.7939
48.6404
48.4321
48.167
47.8448
47.4739
47.0882
46.7884
48.9451
48.895
48.7939
48.6403
48.4321
48.1669
47.8447
47.4738
47.0882
46.7883
48.9451
48.8949
48.7938
48.6403
48.432
48.1669
47.8447
47.4738
47.0881
46.7883
48.9451
48.8949
48.7938
48.6402
48.432
48.1668
47.8447
47.4737
47.0881
46.7882
48.945
48.8949
48.7938
48.6402
48.432
48.1668
47.8447
47.4737
47.0881
46.7882
48.945
48.8949
48.7938
48.6402
48.432
48.1668
47.8447
47.4737
47.0881
46.7882
48.945
48.8949
48.7938
48.6402
48.432
48.1668
47.8447
47.4737
47.0881
46.7882
48.9451
48.8949
48.7938
48.6403
48.432
48.1669
47.8447
47.4738
47.0881
46.7883
48.9451
48.8949
48.7939
48.6403
48.432
48.1669
47.8447
47.4738
47.0882
46.7883
48.9451
48.895
48.7939
48.6403
48.4321
48.167
47.8448
47.4739
47.0882
46.7884
43.2375
43.1827
43.0715
42.9006
42.6642
42.3529
41.9527
41.4457
40.8231
40.1745
43.2375
43.1826
43.0715
42.9006
42.6641
42.3528
41.9527
41.4457
40.8231
40.1745
43.2374
43.1826
43.0714
42.9005
42.6641
42.3527
41.9526
41.4456
40.823
40.1744
43.2374
43.1826
43.0714
42.9005
42.664
42.3527
41.9526
41.4456
40.823
40.1744
43.2374
43.1825
43.0714
42.9005
42.664
42.3527
41.9526
41.4456
40.823
40.1744
43.2374
43.1825
43.0714
42.9005
42.664
42.3527
41.9526
41.4456
40.823
40.1744
43.2374
43.1826
43.0714
42.9005
42.664
42.3527
41.9526
41.4456
40.823
40.1744
43.2374
43.1826
43.0714
42.9005
42.664
42.3527
41.9526
41.4456
40.823
40.1744
43.2374
43.1826
43.0714
42.9006
42.6641
42.3528
41.9527
41.4456
40.8231
40.1745
43.2375
43.1827
43.0715
42.9006
42.6641
42.3528
41.9527
41.4457
40.8231
40.1745
37.9597
37.9029
37.7874
37.6087
37.3585
37.0219
36.5709
35.9472
35.0108
33.3509
37.9596
37.9028
37.7873
37.6087
37.3585
37.0219
36.5708
35.9472
35.0108
33.3509
37.9596
37.9028
37.7873
37.6086
37.3584
37.0218
36.5708
35.9471
35.0107
33.3508
37.9595
37.9028
37.7873
37.6086
37.3584
37.0218
36.5707
35.9471
35.0107
33.3508
37.9595
37.9027
37.7872
37.6086
37.3584
37.0218
36.5707
35.9471
35.0107
33.3507
37.9595
37.9027
37.7872
37.6086
37.3584
37.0218
36.5707
35.9471
35.0107
33.3507
37.9595
37.9027
37.7873
37.6086
37.3584
37.0218
36.5707
35.9471
35.0107
33.3508
37.9596
37.9028
37.7873
37.6086
37.3584
37.0218
36.5708
35.9471
35.0107
33.3508
37.9596
37.9028
37.7873
37.6086
37.3585
37.0219
36.5708
35.9471
35.0107
33.3508
37.9596
37.9029
37.7874
37.6087
37.3585
37.0219
36.5709
35.9472
35.0108
33.3509
33.1237
33.0684
32.9559
32.7822
32.5397
32.2145
31.782
31.197
30.3779
29.1994
33.1237
33.0683
32.9559
32.7822
32.5396
32.2144
31.7819
31.1969
30.3779
29.1993
33.1236
33.0683
32.9558
32.7821
32.5396
32.2144
31.7819
31.1968
30.3778
29.1993
33.1236
33.0682
32.9558
32.7821
32.5395
32.2143
31.7818
31.1968
30.3778
29.1992
33.1236
33.0682
32.9558
32.7821
32.5395
32.2143
31.7818
31.1968
30.3778
29.1992
33.1236
33.0682
32.9558
32.7821
32.5395
32.2143
31.7818
31.1968
30.3778
29.1992
33.1236
33.0682
32.9558
32.7821
32.5395
32.2143
31.7818
31.1968
30.3778
29.1992
33.1236
33.0682
32.9558
32.7821
32.5396
32.2144
31.7819
31.1968
30.3778
29.1992
33.1236
33.0683
32.9558
32.7822
32.5396
32.2144
31.7819
31.1969
30.3779
29.1993
33.1237
33.0683
32.9559
32.7822
32.5397
32.2145
31.782
31.197
30.3779
29.1994
28.7322
28.6817
28.5797
28.4239
28.2102
27.9313
27.576
27.129
26.5767
25.9392
28.7322
28.6817
28.5797
28.4239
28.2101
27.9312
27.576
27.1289
26.5766
25.9391
28.7321
28.6816
28.5796
28.4238
28.2101
27.9312
27.5759
27.1289
26.5766
25.9391
28.7321
28.6816
28.5796
28.4238
28.21
27.9311
27.5759
27.1289
26.5766
25.939
28.7321
28.6816
28.5796
28.4238
28.21
27.9311
27.5759
27.1288
26.5765
25.939
28.7321
28.6816
28.5796
28.4238
28.21
27.9311
27.5759
27.1288
26.5765
25.939
28.7321
28.6816
28.5796
28.4238
28.21
27.9311
27.5759
27.1289
26.5766
25.939
28.7321
28.6816
28.5796
28.4238
28.2101
27.9312
27.5759
27.1289
26.5766
25.939
28.7321
28.6816
28.5797
28.4239
28.2101
27.9312
27.576
27.1289
26.5766
25.9391
28.7322
28.6817
28.5797
28.4239
28.2102
27.9313
27.576
27.129
26.5767
25.9392
24.7785
24.7356
24.6501
24.5222
24.3527
24.1426
23.8951
23.619
23.3385
23.1165
24.7784
24.7356
24.65
24.5222
24.3526
24.1425
23.895
23.6189
23.3384
23.1164
24.7784
24.7355
24.65
24.5221
24.3526
24.1425
23.895
23.6188
23.3384
23.1164
24.7784
24.7355
24.65
24.5221
24.3525
24.1424
23.8949
23.6188
23.3383
23.1164
24.7783
24.7355
24.65
24.5221
24.3525
24.1424
23.8949
23.6188
23.3383
23.1163
24.7783
24.7355
24.65
24.5221
24.3525
24.1424
23.8949
23.6188
23.3383
23.1163
24.7784
24.7355
24.65
24.5221
24.3525
24.1424
23.8949
23.6188
23.3383
23.1163
24.7784
24.7355
24.65
24.5221
24.3526
24.1425
23.895
23.6188
23.3384
23.1164
24.7784
24.7355
24.65
24.5222
24.3526
24.1425
23.895
23.6189
23.3384
23.1164
24.7785
24.7356
24.6501
24.5222
24.3527
24.1426
23.8951
23.6189
23.3385
23.1165
21.2477
21.2142
21.1488
21.0546
20.9369
20.8046
20.6721
20.5629
20.517
20.6009
21.2476
21.2142
21.1488
21.0545
20.9369
20.8046
20.672
20.5628
20.517
20.6009
21.2476
21.2141
21.1487
21.0545
20.9368
20.8045
20.672
20.5628
20.5169
20.6008
21.2475
21.2141
21.1487
21.0545
20.9368
20.8045
20.6719
20.5627
20.5169
20.6008
21.2475
21.2141
21.1487
21.0544
20.9368
20.8045
20.6719
20.5627
20.5169
20.6007
21.2475
21.2141
21.1487
21.0544
20.9368
20.8045
20.6719
20.5627
20.5169
20.6007
21.2475
21.2141
21.1487
21.0545
20.9368
20.8045
20.6719
20.5627
20.5169
20.6008
21.2476
21.2141
21.1487
21.0545
20.9368
20.8045
20.672
20.5628
20.5169
20.6008
21.2476
21.2141
21.1488
21.0545
20.9369
20.8046
20.672
20.5628
20.517
20.6008
21.2476
21.2142
21.1488
21.0546
20.9369
20.8046
20.6721
20.5629
20.517
20.6009
18.1184
18.095
18.0508
17.9913
17.9262
17.87
17.8451
17.884
18.0323
18.3497
18.1184
18.0949
18.0507
17.9913
17.9261
17.8699
17.8451
17.884
18.0322
18.3497
18.1183
18.0949
18.0507
17.9912
17.9261
17.8699
17.845
17.8839
18.0322
18.3496
18.1183
18.0949
18.0507
17.9912
17.926
17.8699
17.845
17.8839
18.0321
18.3496
18.1183
18.0949
18.0506
17.9912
17.926
17.8699
17.845
17.8839
18.0321
18.3496
18.1183
18.0949
18.0506
17.9912
17.926
17.8699
17.845
17.8839
18.0321
18.3496
18.1183
18.0949
18.0507
17.9912
17.926
17.8699
17.845
17.8839
18.0321
18.3496
18.1183
18.0949
18.0507
17.9912
17.9261
17.8699
17.845
17.8839
18.0322
18.3496
18.1184
18.0949
18.0507
17.9913
17.9261
17.8699
17.8451
17.884
18.0322
18.3497
18.1184
18.095
18.0508
17.9913
17.9262
17.87
17.8451
17.884
18.0323
18.3497
15.3649
15.351
15.3266
15.2992
15.2813
15.2919
15.3591
15.5219
15.8309
16.3426
15.3649
15.3509
15.3266
15.2992
15.2812
15.2918
15.359
15.5218
15.8308
16.3426
15.3648
15.3509
15.3265
15.2992
15.2812
15.2918
15.359
15.5217
15.8307
16.3425
15.3648
15.3509
15.3265
15.2991
15.2812
15.2918
15.3589
15.5217
15.8307
16.3425
15.3648
15.3509
15.3265
15.2991
15.2812
15.2918
15.3589
15.5217
15.8307
16.3425
15.3648
15.3509
15.3265
15.2991
15.2812
15.2918
15.3589
15.5217
15.8307
16.3425
15.3648
15.3509
15.3265
15.2991
15.2812
15.2918
15.3589
15.5217
15.8307
16.3425
15.3648
15.3509
15.3265
15.2992
15.2812
15.2918
15.359
15.5218
15.8308
16.3425
15.3649
15.3509
15.3266
15.2992
15.2812
15.2918
15.359
15.5218
15.8308
16.3426
15.3649
15.351
15.3266
15.2992
15.2813
15.2919
15.3591
15.5219
15.8309
16.3426
12.9585
12.9527
12.945
12.9439
12.9636
13.0258
13.1628
13.4205
13.8607
14.5537
12.9585
12.9526
12.9449
12.9438
12.9635
13.0258
13.1627
13.4204
13.8607
14.5536
12.9584
12.9526
12.9449
12.9438
12.9635
13.0257
13.1627
13.4204
13.8606
14.5536
12.9584
12.9526
12.9449
12.9438
12.9635
13.0257
13.1626
13.4204
13.8606
14.5535
12.9584
12.9526
12.9449
12.9438
12.9635
13.0257
13.1626
13.4203
13.8606
14.5535
12.9584
12.9526
12.9449
12.9438
12.9635
13.0257
13.1626
13.4203
13.8606
14.5535
12.9584
12.9526
12.9449
12.9438
12.9635
13.0257
13.1627
13.4204
13.8606
14.5535
12.9584
12.9526
12.9449
12.9438
12.9635
13.0257
13.1627
13.4204
13.8606
14.5536
12.9585
12.9526
12.9449
12.9439
12.9635
13.0258
13.1627
13.4204
13.8607
14.5536
12.9585
12.9527
12.945
12.9439
12.9636
13.0258
13.1628
13.4205
13.8607
14.5537
10.8696
10.8698
10.8744
10.892
10.9367
11.0308
11.208
11.5203
12.0491
12.9185
10.8695
10.8698
10.8744
10.8919
10.9366
11.0307
11.2079
11.5202
12.049
12.9185
10.8695
10.8697
10.8744
10.8919
10.9366
11.0307
11.2079
11.5202
12.049
12.9184
10.8695
10.8697
10.8743
10.8919
10.9366
11.0307
11.2079
11.5201
12.049
12.9184
10.8694
10.8697
10.8743
10.8918
10.9366
11.0307
11.2079
11.5201
12.049
12.9184
10.8694
10.8697
10.8743
10.8918
10.9366
11.0307
11.2079
11.5201
12.049
12.9184
10.8695
10.8697
10.8743
10.8919
10.9366
11.0307
11.2079
11.5202
12.049
12.9184
10.8695
10.8697
10.8744
10.8919
10.9366
11.0307
11.2079
11.5202
12.049
12.9184
10.8695
10.8698
10.8744
10.8919
10.9366
11.0307
11.208
11.5202
12.0491
12.9185
10.8695
10.8698
10.8744
10.892
10.9367
11.0308
11.208
11.5203
12.0491
12.9186
9.06869
9.07292
9.08508
9.1129
9.16905
9.27288
9.4538
9.75945
10.28
11.2373
9.06865
9.07288
9.08505
9.11286
9.16901
9.27283
9.45376
9.7594
10.2799
11.2372
9.06862
9.07285
9.08502
9.11283
9.16898
9.2728
9.45373
9.75937
10.2799
11.2372
9.06861
9.07284
9.085
9.11281
9.16896
9.27278
9.45371
9.75935
10.2799
11.2372
9.0686
9.07283
9.08499
9.1128
9.16895
9.27277
9.4537
9.75934
10.2798
11.2372
9.0686
9.07283
9.08499
9.11281
9.16895
9.27278
9.4537
9.75934
10.2798
11.2372
9.06861
9.07284
9.085
9.11282
9.16896
9.27279
9.45371
9.75935
10.2799
11.2372
9.06862
9.07286
9.08502
9.11284
9.16898
9.27281
9.45374
9.75938
10.2799
11.2372
9.06865
9.07288
9.08505
9.11287
9.16902
9.27285
9.45377
9.75942
10.2799
11.2373
9.06868
9.07292
9.08509
9.11291
9.16906
9.27289
9.45382
9.75947
10.28
11.2373
29.5053
28.0748
28.3085
29.963
33.0184
37.5989
43.9725
52.6147
64.3851
80.9982
29.5052
28.0747
28.3084
29.9629
33.0183
37.5988
43.9723
52.6146
64.385
80.998
29.5051
28.0746
28.3083
29.9628
33.0182
37.5987
43.9722
52.6145
64.3849
80.9979
29.5051
28.0746
28.3083
29.9627
33.0182
37.5986
43.9722
52.6144
64.3848
80.9978
29.5051
28.0745
28.3082
29.9627
33.0181
37.5986
43.9721
52.6144
64.3847
80.9977
29.5051
28.0745
28.3082
29.9627
33.0181
37.5986
43.9721
52.6144
64.3847
80.9977
29.5051
28.0745
28.3083
29.9627
33.0181
37.5986
43.9721
52.6144
64.3848
80.9978
29.5051
28.0746
28.3083
29.9627
33.0182
37.5987
43.9722
52.6144
64.3848
80.9978
29.5052
28.0746
28.3083
29.9628
33.0182
37.5987
43.9723
52.6145
64.3849
80.9979
29.5052
28.0747
28.3084
29.9629
33.0183
37.5988
43.9723
52.6146
64.385
80.998
27.634
27.0059
27.5339
29.26
32.2452
36.6135
42.5688
50.4105
60.5256
73.2363
27.6339
27.0058
27.5338
29.2599
32.2451
36.6133
42.5687
50.4103
60.5255
73.2361
27.6339
27.0057
27.5337
29.2598
32.245
36.6132
42.5686
50.4102
60.5254
73.236
27.6338
27.0057
27.5337
29.2598
32.245
36.6132
42.5685
50.4101
60.5253
73.2359
27.6338
27.0057
27.5337
29.2597
32.2449
36.6131
42.5685
50.4101
60.5253
73.2359
27.6338
27.0057
27.5337
29.2597
32.2449
36.6131
42.5685
50.4101
60.5253
73.2359
27.6338
27.0057
27.5337
29.2597
32.2449
36.6132
42.5685
50.4101
60.5253
73.2359
27.6338
27.0057
27.5337
29.2598
32.245
36.6132
42.5685
50.4102
60.5253
73.236
27.6339
27.0058
27.5338
29.2598
32.2451
36.6133
42.5686
50.4103
60.5254
73.2361
27.634
27.0059
27.5339
29.2599
32.2452
36.6134
42.5687
50.4104
60.5256
73.2362
25.3737
25.3761
26.2051
27.9926
30.8366
34.8434
40.1378
46.849
55.0446
64.5464
25.3736
25.376
26.205
27.9925
30.8365
34.8432
40.1377
46.8489
55.0444
64.5463
25.3736
25.3759
26.205
27.9924
30.8364
34.8432
40.1376
46.8488
55.0443
64.5462
25.3735
25.3759
26.2049
27.9924
30.8364
34.8431
40.1376
46.8487
55.0442
64.5461
25.3735
25.3759
26.2049
27.9923
30.8364
34.8431
40.1375
46.8487
55.0442
64.5461
25.3735
25.3759
26.2049
27.9923
30.8364
34.8431
40.1375
46.8487
55.0442
64.5461
25.3735
25.3759
26.2049
27.9924
30.8364
34.8431
40.1375
46.8487
55.0442
64.5461
25.3736
25.3759
26.2049
27.9924
30.8364
34.8431
40.1376
46.8488
55.0443
64.5462
25.3736
25.376
26.205
27.9925
30.8365
34.8432
40.1377
46.8488
55.0444
64.5463
25.3737
25.3761
26.2051
27.9926
30.8366
34.8433
40.1378
46.849
55.0445
64.5464
23.0941
23.5115
24.5564
26.3563
29.0046
32.578
37.1372
42.7054
49.2138
56.4033
23.094
23.5114
24.5563
26.3562
29.0045
32.5779
37.1371
42.7052
49.2137
56.4032
23.0939
23.5113
24.5563
26.3562
29.0044
32.5778
37.137
42.7051
49.2136
56.4031
23.0939
23.5113
24.5562
26.3561
29.0043
32.5777
37.137
42.7051
49.2135
56.403
23.0939
23.5113
24.5562
26.3561
29.0043
32.5777
37.1369
42.705
49.2135
56.403
23.0939
23.5113
24.5562
26.3561
29.0043
32.5777
37.1369
42.705
49.2135
56.403
23.0939
23.5113
24.5562
26.3561
29.0043
32.5777
37.1369
42.705
49.2135
56.403
23.0939
23.5113
24.5562
26.3561
29.0044
32.5778
37.137
42.7051
49.2136
56.4031
23.094
23.5114
24.5563
26.3562
29.0045
32.5779
37.1371
42.7052
49.2137
56.4032
23.0941
23.5115
24.5564
26.3563
29.0046
32.578
37.1372
42.7053
49.2138
56.4033
20.9182
21.6043
22.7826
24.5492
26.9747
30.1054
33.9584
38.504
43.6359
49.133
20.9181
21.6042
22.7825
24.5491
26.9745
30.1053
33.9583
38.5039
43.6358
49.1328
20.918
21.6042
22.7825
24.5491
26.9745
30.1052
33.9582
38.5038
43.6357
49.1327
20.918
21.6041
22.7824
24.549
26.9744
30.1051
33.9581
38.5037
43.6356
49.1326
20.918
21.6041
22.7824
24.549
26.9744
30.1051
33.9581
38.5037
43.6356
49.1326
20.918
21.6041
22.7824
24.549
26.9744
30.1051
33.9581
38.5037
43.6356
49.1326
20.918
21.6041
22.7824
24.549
26.9744
30.1051
33.9581
38.5037
43.6356
49.1326
20.918
21.6042
22.7825
24.5491
26.9745
30.1052
33.9582
38.5038
43.6357
49.1327
20.9181
21.6042
22.7825
24.5491
26.9745
30.1053
33.9583
38.5039
43.6358
49.1328
20.9182
21.6043
22.7826
24.5492
26.9746
30.1054
33.9584
38.504
43.6359
49.133
18.9074
19.7796
21.039
22.7482
24.9523
27.6724
30.898
34.576
38.5995
42.8023
18.9074
19.7796
21.0389
22.7481
24.9521
27.6723
30.8979
34.5758
38.5994
42.8021
18.9073
19.7795
21.0388
22.748
24.9521
27.6722
30.8978
34.5757
38.5993
42.802
18.9073
19.7794
21.0388
22.7479
24.952
27.6722
30.8977
34.5757
38.5992
42.802
18.9072
19.7794
21.0388
22.7479
24.952
27.6721
30.8977
34.5756
38.5992
42.8019
18.9072
19.7794
21.0388
22.7479
24.952
27.6721
30.8977
34.5756
38.5992
42.8019
18.9073
19.7794
21.0388
22.7479
24.952
27.6722
30.8977
34.5757
38.5992
42.802
18.9073
19.7795
21.0388
22.748
24.9521
27.6722
30.8978
34.5757
38.5993
42.802
18.9074
19.7795
21.0389
22.7481
24.9521
27.6723
30.8979
34.5758
38.5994
42.8021
18.9074
19.7796
21.039
22.7482
24.9522
27.6724
30.898
34.576
38.5995
42.8023
17.1032
18.1295
19.4508
21.1028
23.1109
25.478
28.1753
31.137
34.2609
37.4212
17.1032
18.1294
19.4507
21.1027
23.1108
25.4779
28.1751
31.1369
34.2607
37.4211
17.1031
18.1293
19.4507
21.1027
23.1107
25.4778
28.1751
31.1368
34.2606
37.421
17.1031
18.1293
19.4506
21.1026
23.1107
25.4777
28.175
31.1368
34.2606
37.4209
17.103
18.1293
19.4506
21.1026
23.1107
25.4777
28.175
31.1367
34.2606
37.4209
17.103
18.1293
19.4506
21.1026
23.1107
25.4777
28.175
31.1367
34.2606
37.4209
17.1031
18.1293
19.4506
21.1026
23.1107
25.4777
28.175
31.1368
34.2606
37.4209
17.1031
18.1293
19.4507
21.1027
23.1108
25.4778
28.1751
31.1368
34.2607
37.421
17.1032
18.1294
19.4507
21.1027
23.1108
25.4779
28.1752
31.1369
34.2607
37.4211
17.1032
18.1295
19.4508
21.1028
23.1109
25.478
28.1753
31.137
34.2609
37.4212
15.5386
16.7313
18.1232
19.7377
21.5923
23.6795
25.9574
28.3459
30.7327
33.0007
15.5386
16.7312
18.1231
19.7376
21.5922
23.6794
25.9573
28.3458
30.7326
33.0006
15.5385
16.7312
18.1231
19.7376
21.5921
23.6794
25.9572
28.3457
30.7325
33.0005
15.5385
16.7311
18.123
19.7375
21.5921
23.6793
25.9572
28.3456
30.7325
33.0004
15.5385
16.7311
18.123
19.7375
21.5921
23.6793
25.9571
28.3456
30.7324
33.0004
15.5385
16.7311
18.123
19.7375
21.5921
23.6793
25.9571
28.3456
30.7324
33.0004
15.5385
16.7311
18.123
19.7375
21.5921
23.6793
25.9572
28.3456
30.7325
33.0005
15.5385
16.7312
18.1231
19.7376
21.5922
23.6794
25.9572
28.3457
30.7325
33.0005
15.5386
16.7312
18.1232
19.7376
21.5922
23.6794
25.9573
28.3458
30.7326
33.0006
15.5386
16.7313
18.1232
19.7377
21.5923
23.6796
25.9574
28.3459
30.7327
33.0007
14.254
15.6663
17.151
18.7559
20.509
22.4012
24.3799
26.3437
28.1423
29.597
14.2539
15.6662
17.151
18.7558
20.5089
22.4011
24.3798
26.3436
28.1422
29.5969
14.2539
15.6662
17.1509
18.7558
20.5088
22.4011
24.3797
26.3436
28.1421
29.5968
14.2539
15.6662
17.1509
18.7557
20.5088
22.401
24.3797
26.3435
28.1421
29.5968
14.2538
15.6661
17.1509
18.7557
20.5088
22.401
24.3797
26.3435
28.1421
29.5968
14.2539
15.6661
17.1509
18.7557
20.5088
22.401
24.3797
26.3435
28.1421
29.5968
14.2539
15.6662
17.1509
18.7558
20.5088
22.401
24.3797
26.3435
28.1421
29.5968
14.2539
15.6662
17.1509
18.7558
20.5088
22.4011
24.3798
26.3436
28.1422
29.5969
14.254
15.6663
17.151
18.7559
20.5089
22.4012
24.3798
26.3437
28.1423
29.597
14.254
15.6663
17.1511
18.756
20.509
22.4013
24.38
26.3438
28.1424
29.5971
13.3619
15.048
16.6259
18.2394
19.944
21.7356
23.5543
25.2766
26.6914
27.4363
13.3619
15.0479
16.6258
18.2393
19.9439
21.7355
23.5542
25.2765
26.6913
27.4362
13.3618
15.0479
16.6258
18.2392
19.9439
21.7355
23.5541
25.2764
26.6912
27.4362
13.3618
15.0479
16.6257
18.2392
19.9438
21.7354
23.5541
25.2764
26.6912
27.4361
13.3618
15.0478
16.6257
18.2392
19.9438
21.7354
23.5541
25.2764
26.6912
27.4361
13.3618
15.0479
16.6257
18.2392
19.9438
21.7354
23.5541
25.2764
26.6912
27.4361
13.3618
15.0479
16.6258
18.2392
19.9439
21.7354
23.5541
25.2764
26.6912
27.4361
13.3618
15.0479
16.6258
18.2393
19.9439
21.7355
23.5542
25.2765
26.6913
27.4362
13.3619
15.048
16.6259
18.2393
19.944
21.7356
23.5542
25.2766
26.6914
27.4363
13.362
15.048
16.6259
18.2394
19.9441
21.7357
23.5544
25.2767
26.6915
27.4364
106.416
118.418
125.711
130.772
134.486
137.255
139.294
140.733
141.653
142.102
106.416
118.418
125.711
130.772
134.486
137.255
139.294
140.733
141.653
142.102
106.415
118.418
125.71
130.771
134.486
137.255
139.293
140.733
141.653
142.102
106.415
118.417
125.71
130.771
134.486
137.255
139.293
140.733
141.653
142.102
106.415
118.417
125.71
130.771
134.486
137.254
139.293
140.733
141.653
142.102
106.415
118.417
125.71
130.771
134.486
137.254
139.293
140.733
141.653
142.102
106.415
118.417
125.71
130.771
134.486
137.255
139.293
140.733
141.653
142.102
106.415
118.418
125.71
130.771
134.486
137.255
139.293
140.733
141.653
142.102
106.415
118.418
125.71
130.772
134.486
137.255
139.294
140.733
141.653
142.102
106.416
118.418
125.711
130.772
134.486
137.255
139.294
140.733
141.653
142.102
87.9049
98.5395
106.012
111.397
115.365
118.31
120.466
121.982
122.948
123.419
87.9047
98.5393
106.012
111.397
115.365
118.309
120.466
121.982
122.948
123.418
87.9046
98.5392
106.012
111.397
115.365
118.309
120.466
121.982
122.948
123.418
87.9045
98.5391
106.012
111.397
115.365
118.309
120.466
121.981
122.948
123.418
87.9045
98.5391
106.012
111.397
115.365
118.309
120.466
121.981
122.948
123.418
87.9045
98.5391
106.012
111.397
115.365
118.309
120.466
121.981
122.948
123.418
87.9045
98.5391
106.012
111.397
115.365
118.309
120.466
121.982
122.948
123.418
87.9046
98.5392
106.012
111.397
115.365
118.309
120.466
121.982
122.948
123.418
87.9047
98.5393
106.012
111.397
115.365
118.309
120.466
121.982
122.948
123.419
87.9048
98.5395
106.012
111.397
115.365
118.31
120.466
121.982
122.948
123.419
74.5112
82.9492
89.5641
94.6322
98.4872
101.394
103.539
105.054
106.021
106.492
74.511
82.949
89.564
94.6321
98.487
101.393
103.539
105.053
106.021
106.492
74.5109
82.9489
89.5638
94.6319
98.4869
101.393
103.539
105.053
106.02
106.492
74.5108
82.9488
89.5638
94.6319
98.4868
101.393
103.539
105.053
106.02
106.492
74.5108
82.9488
89.5637
94.6318
98.4868
101.393
103.539
105.053
106.02
106.492
74.5108
82.9488
89.5637
94.6318
98.4868
101.393
103.539
105.053
106.02
106.492
74.5108
82.9488
89.5638
94.6319
98.4868
101.393
103.539
105.053
106.02
106.492
74.5109
82.9489
89.5638
94.6319
98.4869
101.393
103.539
105.053
106.021
106.492
74.511
82.949
89.564
94.6321
98.487
101.393
103.539
105.053
106.021
106.492
74.5111
82.9492
89.5641
94.6322
98.4872
101.394
103.539
105.054
106.021
106.492
63.7029
70.284
75.8025
80.2526
83.7575
86.4606
88.4857
89.9277
90.8539
91.3068
63.7027
70.2839
75.8023
80.2524
83.7573
86.4604
88.4855
89.9275
90.8537
91.3067
63.7026
70.2837
75.8022
80.2523
83.7572
86.4603
88.4854
89.9274
90.8536
91.3066
63.7026
70.2837
75.8021
80.2522
83.7571
86.4602
88.4853
89.9273
90.8536
91.3065
63.7025
70.2836
75.802
80.2521
83.7571
86.4602
88.4853
89.9273
90.8535
91.3065
63.7025
70.2836
75.802
80.2521
83.7571
86.4602
88.4853
89.9273
90.8535
91.3065
63.7026
70.2837
75.8021
80.2522
83.7571
86.4602
88.4853
89.9274
90.8536
91.3065
63.7026
70.2837
75.8022
80.2523
83.7572
86.4603
88.4854
89.9275
90.8537
91.3066
63.7027
70.2839
75.8023
80.2524
83.7574
86.4605
88.4855
89.9276
90.8538
91.3068
63.7029
70.284
75.8025
80.2526
83.7575
86.4607
88.4857
89.9278
90.854
91.307
54.6416
59.7513
64.2155
67.9564
70.9955
73.3946
75.2224
76.5392
77.3913
77.8098
54.6414
59.7512
64.2153
67.9562
70.9953
73.3945
75.2222
76.539
77.3912
77.8097
54.6413
59.7511
64.2152
67.9561
70.9952
73.3944
75.2221
76.5389
77.3911
77.8096
54.6412
59.751
64.2152
67.956
70.9952
73.3943
75.2221
76.5388
77.391
77.8095
54.6412
59.751
64.2151
67.956
70.9951
73.3942
75.222
76.5388
77.391
77.8095
54.6412
59.751
64.2151
67.956
70.9951
73.3943
75.222
76.5388
77.391
77.8095
54.6412
59.751
64.2152
67.956
70.9952
73.3943
75.2221
76.5389
77.3911
77.8096
54.6413
59.7511
64.2152
67.9561
70.9953
73.3944
75.2222
76.539
77.3912
77.8097
54.6414
59.7512
64.2154
67.9562
70.9954
73.3945
75.2223
76.5391
77.3913
77.8098
54.6416
59.7514
64.2155
67.9564
70.9956
73.3947
75.2225
76.5393
77.3915
77.81
46.9718
50.8949
54.4164
57.4566
59.9943
62.0429
63.6309
64.7895
65.5459
65.9191
46.9717
50.8947
54.4163
57.4565
59.9941
62.0427
63.6307
64.7894
65.5457
65.919
46.9716
50.8946
54.4162
57.4564
59.994
62.0426
63.6306
64.7893
65.5456
65.9189
46.9715
50.8945
54.4161
57.4563
59.994
62.0425
63.6305
64.7892
65.5456
65.9189
46.9715
50.8945
54.4161
57.4563
59.9939
62.0425
63.6305
64.7892
65.5455
65.9188
46.9715
50.8945
54.4161
57.4563
59.9939
62.0425
63.6305
64.7892
65.5455
65.9189
46.9715
50.8946
54.4161
57.4563
59.994
62.0426
63.6306
64.7893
65.5456
65.9189
46.9716
50.8946
54.4162
57.4564
59.9941
62.0427
63.6307
64.7893
65.5457
65.919
46.9717
50.8947
54.4163
57.4565
59.9942
62.0428
63.6308
64.7895
65.5458
65.9191
46.9719
50.8949
54.4165
57.4567
59.9944
62.0429
63.631
64.7896
65.546
65.9193
40.5014
43.4257
46.1147
48.5024
50.549
52.2387
53.5723
54.5585
55.2083
55.5307
40.5012
43.4256
46.1146
48.5022
50.5488
52.2386
53.5722
54.5584
55.2081
55.5306
40.5011
43.4255
46.1145
48.5021
50.5487
52.2385
53.5721
54.5583
55.208
55.5305
40.5011
43.4254
46.1144
48.5021
50.5486
52.2384
53.572
54.5582
55.208
55.5304
40.5011
43.4254
46.1144
48.502
50.5486
52.2384
53.572
54.5582
55.208
55.5304
40.5011
43.4254
46.1144
48.5021
50.5486
52.2384
53.572
54.5582
55.208
55.5304
40.5011
43.4255
46.1144
48.5021
50.5487
52.2385
53.5721
54.5583
55.208
55.5305
40.5012
43.4255
46.1145
48.5022
50.5487
52.2385
53.5721
54.5583
55.2081
55.5306
40.5013
43.4256
46.1146
48.5023
50.5489
52.2387
53.5723
54.5585
55.2082
55.5307
40.5014
43.4258
46.1147
48.5024
50.549
52.2388
53.5724
54.5586
55.2084
55.5308
35.0967
37.1292
39.0765
40.8746
42.4664
43.8147
44.9
45.7142
46.2559
46.5263
35.0966
37.1291