/*--------------------------------*- C++ -*----------------------------------*\
  =========                 |
  \\      /  F ield         | OpenFOAM: The Open Source CFD Toolbox
   \\    /   O peration     | Website:  https://openfoam.org
    \\  /    A nd           | Version:  6
     \\/     M anipulation  |
\*---------------------------------------------------------------------------*/
FoamFile
{
    version     2.0;
    format      ascii;
    class       volScalarField;
    location    "0.16";
    object      T;
}
// * * * * * * * * * * * * * * * * * * * * * * * * * * * * * * * * * * * * * //

dimensions      [0 0 0 1 0 0 0];

internalField   nonuniform List<scalar> 
7000
(
102.21
102.21
102.209
102.209
102.209
102.209
102.209
102.208
102.208
102.208
102.21
102.21
102.209
102.209
102.209
102.209
102.209
102.208
102.208
102.208
102.21
102.209
102.209
102.209
102.209
102.209
102.209
102.208
102.208
102.208
102.21
102.209
102.209
102.209
102.209
102.209
102.209
102.208
102.208
102.208
102.21
102.209
102.209
102.209
102.209
102.209
102.209
102.208
102.208
102.208
102.21
102.209
102.209
102.209
102.209
102.209
102.209
102.208
102.208
102.208
102.21
102.209
102.209
102.209
102.209
102.209
102.209
102.208
102.208
102.208
102.21
102.209
102.209
102.209
102.209
102.209
102.209
102.208
102.208
102.208
102.21
102.209
102.209
102.209
102.209
102.209
102.209
102.208
102.208
102.208
102.21
102.21
102.209
102.209
102.209
102.209
102.209
102.208
102.208
102.208
86.8746
86.8743
86.874
86.8736
86.873
86.8722
86.8714
86.8706
86.8699
86.8696
86.8744
86.8742
86.8739
86.8734
86.8728
86.8721
86.8713
86.8705
86.8698
86.8695
86.8744
86.8741
86.8738
86.8733
86.8728
86.872
86.8712
86.8704
86.8698
86.8694
86.8743
86.8741
86.8737
86.8733
86.8727
86.872
86.8712
86.8704
86.8697
86.8694
86.8743
86.874
86.8737
86.8733
86.8727
86.872
86.8711
86.8703
86.8697
86.8694
86.8743
86.874
86.8737
86.8733
86.8727
86.872
86.8711
86.8703
86.8697
86.8694
86.8743
86.874
86.8737
86.8733
86.8727
86.872
86.8712
86.8704
86.8697
86.8694
86.8743
86.8741
86.8738
86.8733
86.8727
86.872
86.8712
86.8704
86.8698
86.8694
86.8744
86.8741
86.8738
86.8734
86.8728
86.8721
86.8713
86.8705
86.8698
86.8695
86.8744
86.8742
86.8739
86.8735
86.8729
86.8722
86.8714
86.8706
86.8699
86.8696
72.253
72.2526
72.252
72.2511
72.2499
72.2483
72.2465
72.2447
72.2431
72.2423
72.2528
72.2524
72.2518
72.2509
72.2497
72.2481
72.2463
72.2445
72.243
72.2421
72.2527
72.2523
72.2517
72.2508
72.2496
72.248
72.2462
72.2444
72.2428
72.242
72.2526
72.2522
72.2516
72.2507
72.2495
72.2479
72.2461
72.2443
72.2428
72.242
72.2526
72.2522
72.2515
72.2506
72.2494
72.2479
72.2461
72.2443
72.2428
72.2419
72.2526
72.2521
72.2515
72.2506
72.2494
72.2479
72.2461
72.2443
72.2428
72.2419
72.2526
72.2522
72.2516
72.2507
72.2495
72.2479
72.2462
72.2443
72.2428
72.242
72.2526
72.2522
72.2516
72.2508
72.2496
72.248
72.2462
72.2444
72.2429
72.2421
72.2527
72.2523
72.2517
72.2509
72.2497
72.2481
72.2463
72.2445
72.243
72.2422
72.2528
72.2525
72.2519
72.251
72.2498
72.2483
72.2465
72.2447
72.2431
72.2423
58.7469
58.7462
58.7452
58.7436
58.7413
58.7383
58.7347
58.7309
58.7276
58.7257
58.7466
58.746
58.7449
58.7434
58.7411
58.7381
58.7345
58.7307
58.7274
58.7255
58.7465
58.7458
58.7448
58.7432
58.741
58.738
58.7344
58.7306
58.7273
58.7254
58.7464
58.7457
58.7447
58.7431
58.7409
58.7379
58.7343
58.7305
58.7272
58.7253
58.7463
58.7457
58.7446
58.7431
58.7408
58.7378
58.7342
58.7304
58.7271
58.7253
58.7463
58.7457
58.7446
58.7431
58.7408
58.7378
58.7342
58.7304
58.7272
58.7253
58.7463
58.7457
58.7447
58.7431
58.7409
58.7379
58.7343
58.7305
58.7272
58.7254
58.7464
58.7458
58.7448
58.7432
58.741
58.738
58.7344
58.7306
58.7273
58.7255
58.7465
58.7459
58.7449
58.7433
58.7411
58.7381
58.7346
58.7308
58.7275
58.7256
58.7467
58.7461
58.7451
58.7435
58.7413
58.7383
58.7348
58.731
58.7277
58.7258
46.6593
46.6583
46.6567
46.654
46.65
46.6445
46.6376
46.6299
46.6229
46.6187
46.659
46.6581
46.6564
46.6537
46.6497
46.6442
46.6373
46.6296
46.6227
46.6185
46.6589
46.6579
46.6562
46.6536
46.6496
46.6441
46.6372
46.6295
46.6226
46.6184
46.6587
46.6578
46.6561
46.6535
46.6495
46.644
46.6371
46.6294
46.6225
46.6183
46.6587
46.6578
46.6561
46.6534
46.6494
46.6439
46.637
46.6294
46.6224
46.6183
46.6587
46.6578
46.6561
46.6534
46.6494
46.6439
46.637
46.6294
46.6224
46.6183
46.6587
46.6578
46.6561
46.6535
46.6495
46.644
46.6371
46.6294
46.6225
46.6184
46.6588
46.6579
46.6563
46.6536
46.6496
46.6441
46.6372
46.6296
46.6226
46.6185
46.659
46.6581
46.6564
46.6538
46.6498
46.6443
46.6374
46.6298
46.6228
46.6187
46.6591
46.6583
46.6566
46.654
46.65
46.6445
46.6376
46.63
46.6231
46.6189
36.1766
36.1753
36.1727
36.1683
36.1616
36.1518
36.1389
36.1239
36.1094
36.1002
36.1764
36.1751
36.1725
36.1681
36.1613
36.1516
36.1387
36.1236
36.1092
36.1
36.1762
36.1749
36.1723
36.1679
36.1611
36.1514
36.1385
36.1235
36.1091
36.0999
36.1761
36.1748
36.1722
36.1678
36.161
36.1513
36.1384
36.1234
36.109
36.0998
36.1761
36.1747
36.1721
36.1677
36.161
36.1512
36.1384
36.1233
36.109
36.0998
36.1761
36.1747
36.1721
36.1678
36.161
36.1513
36.1384
36.1234
36.109
36.0998
36.1761
36.1748
36.1722
36.1678
36.1611
36.1513
36.1385
36.1234
36.1091
36.0999
36.1762
36.1749
36.1723
36.168
36.1612
36.1515
36.1386
36.1236
36.1092
36.1
36.1764
36.1751
36.1725
36.1681
36.1614
36.1517
36.1388
36.1238
36.1094
36.1002
36.1765
36.1753
36.1727
36.1684
36.1616
36.1519
36.139
36.124
36.1096
36.1005
27.3663
27.3644
27.3605
27.3537
27.3428
27.3262
27.303
27.2742
27.2445
27.2239
27.3661
27.3642
27.3603
27.3535
27.3426
27.326
27.3028
27.274
27.2443
27.2238
27.3659
27.364
27.3601
27.3534
27.3424
27.3258
27.3027
27.2739
27.2442
27.2237
27.3658
27.3639
27.36
27.3533
27.3423
27.3257
27.3026
27.2738
27.2441
27.2236
27.3657
27.3639
27.36
27.3532
27.3423
27.3257
27.3025
27.2737
27.2441
27.2236
27.3657
27.3639
27.36
27.3532
27.3423
27.3257
27.3026
27.2738
27.2441
27.2236
27.3658
27.3639
27.3601
27.3533
27.3423
27.3258
27.3027
27.2738
27.2442
27.2237
27.3659
27.3641
27.3602
27.3534
27.3425
27.3259
27.3028
27.274
27.2443
27.2238
27.3661
27.3642
27.3604
27.3536
27.3427
27.3261
27.303
27.2742
27.2445
27.224
27.3662
27.3644
27.3606
27.3539
27.3429
27.3264
27.3032
27.2744
27.2447
27.2243
20.1886
20.186
20.1806
20.1706
20.1538
20.1271
20.0873
20.0337
19.9727
19.9253
20.1884
20.1858
20.1804
20.1704
20.1536
20.1269
20.0871
20.0335
19.9725
19.9252
20.1882
20.1857
20.1802
20.1703
20.1535
20.1268
20.087
20.0334
19.9724
19.9251
20.1881
20.1856
20.1801
20.1702
20.1534
20.1267
20.0869
20.0333
19.9723
19.925
20.1881
20.1856
20.1801
20.1701
20.1534
20.1267
20.0869
20.0333
19.9723
19.925
20.1881
20.1856
20.1801
20.1701
20.1534
20.1267
20.0869
20.0333
19.9723
19.9251
20.1881
20.1856
20.1801
20.1702
20.1534
20.1267
20.087
20.0334
19.9724
19.9251
20.1882
20.1857
20.1803
20.1703
20.1536
20.1269
20.0871
20.0335
19.9725
19.9253
20.1884
20.1859
20.1804
20.1705
20.1538
20.1271
20.0873
20.0337
19.9727
19.9254
20.1886
20.1861
20.1807
20.1707
20.154
20.1273
20.0875
20.0339
19.9729
19.9257
14.5191
14.5159
14.5087
14.4951
14.4712
14.431
14.3668
14.2713
14.1471
14.0315
14.5189
14.5157
14.5085
14.4949
14.471
14.4309
14.3666
14.2711
14.1469
14.0314
14.5188
14.5156
14.5084
14.4948
14.4709
14.4307
14.3665
14.271
14.1469
14.0313
14.5187
14.5155
14.5083
14.4947
14.4708
14.4307
14.3665
14.271
14.1468
14.0312
14.5187
14.5155
14.5082
14.4946
14.4708
14.4306
14.3664
14.271
14.1468
14.0312
14.5187
14.5155
14.5083
14.4947
14.4708
14.4307
14.3665
14.271
14.1468
14.0312
14.5188
14.5156
14.5083
14.4947
14.4709
14.4307
14.3665
14.2711
14.1469
14.0313
14.5189
14.5157
14.5084
14.4948
14.471
14.4308
14.3667
14.2712
14.147
14.0314
14.519
14.5158
14.5086
14.495
14.4711
14.431
14.3668
14.2713
14.1472
14.0316
14.5192
14.516
14.5088
14.4952
14.4713
14.4312
14.367
14.2715
14.1474
14.0318
10.1765
10.1727
10.1639
10.1468
10.1158
10.061
9.96671
9.80972
9.56529
9.25776
10.1764
10.1726
10.1637
10.1467
10.1157
10.0609
9.96657
9.80959
9.56518
9.25768
10.1763
10.1725
10.1636
10.1466
10.1156
10.0608
9.96648
9.80951
9.56511
9.25761
10.1762
10.1724
10.1636
10.1465
10.1155
10.0607
9.96643
9.80946
9.56506
9.25757
10.1762
10.1724
10.1635
10.1465
10.1155
10.0607
9.96641
9.80945
9.56505
9.25756
10.1762
10.1724
10.1635
10.1465
10.1155
10.0607
9.96643
9.80947
9.56508
9.25759
10.1763
10.1724
10.1636
10.1466
10.1156
10.0608
9.96649
9.80953
9.56513
9.25764
10.1763
10.1725
10.1637
10.1467
10.1157
10.0609
9.96659
9.80963
9.56523
9.25774
10.1765
10.1727
10.1638
10.1468
10.1158
10.061
9.96673
9.80977
9.56537
9.25787
10.1766
10.1728
10.164
10.147
10.116
10.0612
9.96691
9.80994
9.56554
9.25804
6.95022
6.94603
6.93619
6.91692
6.88107
6.8156
6.69651
6.4769
6.05287
5.14418
6.9501
6.94591
6.93607
6.91681
6.88096
6.81549
6.69641
6.47681
6.05279
5.14412
6.95002
6.94583
6.93599
6.91673
6.88089
6.81542
6.69634
6.47674
6.05273
5.14408
6.94997
6.94578
6.93594
6.91668
6.88084
6.81538
6.6963
6.4767
6.0527
5.14405
6.94995
6.94576
6.93593
6.91667
6.88083
6.81536
6.69629
6.4767
6.0527
5.14405
6.94996
6.94578
6.93594
6.91668
6.88084
6.81538
6.69631
6.47672
6.05272
5.14406
6.95
6.94582
6.93599
6.91673
6.88089
6.81543
6.69636
6.47676
6.05276
5.1441
6.95007
6.94589
6.93606
6.91681
6.88097
6.81551
6.69644
6.47684
6.05284
5.14417
6.95017
6.946
6.93617
6.91692
6.88109
6.81563
6.69655
6.47695
6.05294
5.14426
6.95028
6.94614
6.93632
6.91707
6.88124
6.81578
6.6967
6.4771
6.05308
5.14438
4.62469
4.6205
4.61059
4.59116
4.55496
4.489
4.37014
4.15715
3.77719
3.11308
4.6246
4.62041
4.6105
4.59107
4.55488
4.48892
4.37006
4.15708
3.77713
3.11303
4.62454
4.62035
4.61044
4.59101
4.55482
4.48886
4.37001
4.15703
3.77709
3.113
4.6245
4.62031
4.61041
4.59098
4.55479
4.48883
4.36998
4.15701
3.77707
3.11298
4.62448
4.6203
4.6104
4.59096
4.55478
4.48882
4.36997
4.157
3.77706
3.11298
4.62449
4.62031
4.61041
4.59098
4.55479
4.48884
4.36999
4.15702
3.77708
3.11299
4.62453
4.62034
4.61044
4.59102
4.55483
4.48888
4.37003
4.15706
3.77711
3.11303
4.62459
4.6204
4.61051
4.59108
4.55489
4.48894
4.37009
4.15712
3.77717
3.11307
4.62466
4.62049
4.61059
4.59117
4.55499
4.48903
4.37018
4.1572
3.77725
3.11314
4.62475
4.6206
4.61071
4.59129
4.5551
4.48915
4.37029
4.15731
3.77735
3.11323
2.998
2.99417
2.98512
2.96752
2.93522
2.87769
2.77778
2.60904
2.3356
1.9246
2.99794
2.9941
2.98505
2.96745
2.93516
2.87764
2.77772
2.60899
2.33555
1.92456
2.99789
2.99406
2.98501
2.96741
2.93511
2.8776
2.77768
2.60896
2.33553
1.92454
2.99787
2.99403
2.98498
2.96739
2.93509
2.87757
2.77766
2.60894
2.33551
1.92453
2.99786
2.99402
2.98498
2.96738
2.93508
2.87757
2.77766
2.60894
2.33551
1.92453
2.99787
2.99403
2.98499
2.96739
2.93509
2.87758
2.77767
2.60895
2.33552
1.92454
2.99789
2.99406
2.98502
2.96742
2.93513
2.87761
2.7777
2.60898
2.33555
1.92456
2.99794
2.9941
2.98506
2.96747
2.93517
2.87766
2.77775
2.60902
2.33559
1.92459
2.998
2.99417
2.98513
2.96754
2.93524
2.87773
2.77782
2.60909
2.33565
1.92464
2.99807
2.99425
2.98522
2.96763
2.93533
2.87782
2.7779
2.60917
2.33572
1.92471
1.89347
1.89023
1.88266
1.86816
1.84215
1.79724
1.72255
1.60368
1.42583
1.18401
1.89342
1.89019
1.88262
1.86812
1.8421
1.7972
1.72251
1.60365
1.4258
1.18399
1.89339
1.89016
1.88259
1.86809
1.84207
1.79718
1.72248
1.60362
1.42578
1.18397
1.89337
1.89014
1.88257
1.86807
1.84206
1.79716
1.72247
1.60361
1.42577
1.18396
1.89336
1.89013
1.88257
1.86807
1.84205
1.79716
1.72247
1.60361
1.42577
1.18396
1.89337
1.89014
1.88257
1.86808
1.84206
1.79717
1.72248
1.60362
1.42578
1.18397
1.89339
1.89016
1.8826
1.8681
1.84209
1.79719
1.7225
1.60364
1.4258
1.18399
1.89343
1.89019
1.88263
1.86814
1.84212
1.79723
1.72254
1.60367
1.42583
1.18401
1.89347
1.89024
1.88268
1.86819
1.84217
1.79728
1.72258
1.60372
1.42587
1.18405
1.89352
1.8903
1.88275
1.86825
1.84224
1.79734
1.72265
1.60378
1.42592
1.18409
1.16519
1.16266
1.1568
1.14578
1.1265
1.0943
1.04292
0.965292
0.856124
0.717355
1.16516
1.16263
1.15677
1.14575
1.12647
1.09427
1.0429
0.965269
0.856104
0.717338
1.16513
1.16261
1.15675
1.14573
1.12645
1.09425
1.04288
0.965253
0.85609
0.717327
1.16512
1.16259
1.15674
1.14572
1.12644
1.09424
1.04287
0.965245
0.856084
0.717321
1.16512
1.16259
1.15673
1.14572
1.12644
1.09424
1.04287
0.965245
0.856083
0.717321
1.16512
1.1626
1.15674
1.14572
1.12644
1.09425
1.04288
0.965252
0.85609
0.717327
1.16514
1.16261
1.15676
1.14574
1.12646
1.09426
1.04289
0.965267
0.856104
0.717339
1.16516
1.16264
1.15678
1.14576
1.12649
1.09429
1.04292
0.96529
0.856125
0.717358
1.16519
1.16267
1.15682
1.1458
1.12652
1.09433
1.04295
0.965322
0.856154
0.717383
1.16523
1.16271
1.15686
1.14585
1.12657
1.09437
1.04299
0.965363
0.856191
0.717415
0.698724
0.696873
0.692635
0.684815
0.671474
0.64988
0.616692
0.568679
0.504316
0.426275
0.698703
0.696852
0.692616
0.684796
0.671455
0.649862
0.616675
0.568664
0.504303
0.426264
0.698689
0.696838
0.692602
0.684782
0.671443
0.64985
0.616664
0.568654
0.504294
0.426257
0.698681
0.696831
0.692594
0.684775
0.671436
0.649844
0.616659
0.568648
0.50429
0.426253
0.698679
0.696829
0.692593
0.684774
0.671435
0.649843
0.616658
0.568648
0.50429
0.426253
0.698683
0.696833
0.692597
0.684779
0.67144
0.649849
0.616663
0.568653
0.504294
0.426257
0.698694
0.696844
0.692608
0.68479
0.671451
0.64986
0.616674
0.568664
0.504304
0.426266
0.69871
0.696861
0.692626
0.684808
0.671469
0.649877
0.616691
0.56868
0.504318
0.426278
0.698732
0.696884
0.69265
0.684833
0.671494
0.649902
0.616714
0.568701
0.504338
0.426296
0.698757
0.696914
0.692682
0.684865
0.671526
0.649932
0.616744
0.568729
0.504363
0.426318
0.408379
0.407103
0.404215
0.398984
0.390272
0.376569
0.356193
0.327773
0.291104
0.248211
0.408366
0.40709
0.404203
0.398972
0.39026
0.376558
0.356183
0.327763
0.291096
0.248204
0.408357
0.407081
0.404194
0.398963
0.390252
0.37655
0.356176
0.327757
0.29109
0.248199
0.408352
0.407076
0.404189
0.398959
0.390248
0.376547
0.356172
0.327754
0.291088
0.248196
0.408351
0.407075
0.404188
0.398958
0.390247
0.376546
0.356172
0.327754
0.291088
0.248197
0.408354
0.407078
0.404192
0.398962
0.390251
0.37655
0.356176
0.327758
0.291091
0.2482
0.408361
0.407086
0.404199
0.398969
0.390258
0.376557
0.356183
0.327764
0.291097
0.248205
0.408372
0.407097
0.404211
0.398981
0.39027
0.376569
0.356194
0.327775
0.291107
0.248214
0.408387
0.407113
0.404227
0.398998
0.390287
0.376585
0.35621
0.327789
0.29112
0.248225
0.408404
0.407133
0.404248
0.399019
0.390308
0.376605
0.356229
0.327807
0.291136
0.24824
0.232682
0.231848
0.229981
0.226659
0.221249
0.212963
0.201002
0.184858
0.164739
0.142011
0.232674
0.231839
0.229973
0.226651
0.221242
0.212956
0.200996
0.184852
0.164734
0.142007
0.232668
0.231834
0.229968
0.226646
0.221237
0.212951
0.200992
0.184848
0.164731
0.142004
0.232665
0.231831
0.229965
0.226643
0.221234
0.212949
0.200989
0.184846
0.164729
0.142002
0.232665
0.231831
0.229965
0.226643
0.221234
0.212949
0.20099
0.184846
0.164729
0.142002
0.232667
0.231833
0.229967
0.226646
0.221237
0.212951
0.200992
0.184848
0.164732
0.142004
0.232671
0.231837
0.229972
0.22665
0.221242
0.212956
0.200997
0.184853
0.164736
0.142008
0.232678
0.231845
0.229979
0.226658
0.221249
0.212964
0.201004
0.18486
0.164742
0.142014
0.232688
0.231855
0.22999
0.226669
0.22126
0.212974
0.201014
0.184869
0.16475
0.142021
0.232699
0.231868
0.230003
0.226682
0.221273
0.212987
0.201026
0.18488
0.164761
0.14203
0.129272
0.128753
0.127603
0.12559
0.122381
0.117588
0.110871
0.102118
0.0917003
0.0807082
0.129267
0.128748
0.127598
0.125585
0.122376
0.117584
0.110867
0.102114
0.0916971
0.0807053
0.129264
0.128745
0.127595
0.125582
0.122373
0.117581
0.110864
0.102112
0.091695
0.0807035
0.129262
0.128743
0.127593
0.12558
0.122372
0.11758
0.110863
0.102111
0.0916941
0.0807027
0.129262
0.128743
0.127593
0.12558
0.122372
0.11758
0.110863
0.102111
0.0916943
0.0807028
0.129263
0.128744
0.127594
0.125582
0.122373
0.117581
0.110865
0.102113
0.0916956
0.0807041
0.129266
0.128747
0.127597
0.125585
0.122377
0.117584
0.110868
0.102115
0.0916982
0.0807065
0.129271
0.128752
0.127602
0.12559
0.122381
0.117589
0.110872
0.10212
0.0917021
0.08071
0.129277
0.128758
0.127609
0.125596
0.122388
0.117595
0.110878
0.102125
0.0917073
0.0807147
0.129284
0.128766
0.127617
0.125605
0.122396
0.117603
0.110886
0.102132
0.0917139
0.0807206
0.0700496
0.06974
0.0690618
0.0678939
0.0660701
0.0634147
0.059812
0.0553337
0.050463
0.0465812
0.0700468
0.0697372
0.0690591
0.0678912
0.0660675
0.0634122
0.0598098
0.0553316
0.0504611
0.0465794
0.0700448
0.0697353
0.0690573
0.0678894
0.0660659
0.0634107
0.0598083
0.0553303
0.0504599
0.0465783
0.0700438
0.0697343
0.0690563
0.0678885
0.066065
0.0634099
0.0598076
0.0553297
0.0504594
0.0465778
0.0700438
0.0697343
0.0690563
0.0678885
0.0660651
0.06341
0.0598077
0.0553298
0.0504595
0.0465779
0.0700446
0.0697351
0.0690572
0.0678895
0.066066
0.0634109
0.0598087
0.0553307
0.0504604
0.0465788
0.0700464
0.069737
0.0690591
0.0678914
0.0660679
0.0634128
0.0598105
0.0553324
0.050462
0.0465803
0.0700492
0.0697398
0.069062
0.0678943
0.0660709
0.0634157
0.0598132
0.055335
0.0504644
0.0465826
0.0700528
0.0697436
0.069066
0.0678983
0.0660748
0.0634195
0.0598169
0.0553384
0.0504676
0.0465856
0.070057
0.0697486
0.0690711
0.0679034
0.0660799
0.0634244
0.0598215
0.0553428
0.0504716
0.0465893
2.80307
1.61629
1.01849
0.780354
0.822956
1.16403
1.91687
3.32878
5.88339
10.5615
2.80303
1.61626
1.01846
0.780326
0.82292
1.16398
1.9168
3.32866
5.88322
10.5613
2.803
1.61624
1.01844
0.780306
0.822896
1.16395
1.91675
3.32859
5.8831
10.5611
2.80298
1.61623
1.01843
0.780295
0.822881
1.16392
1.91671
3.32854
5.88303
10.561
2.80298
1.61623
1.01843
0.780292
0.822875
1.16391
1.9167
3.32852
5.883
10.561
2.80299
1.61623
1.01843
0.780295
0.822877
1.16392
1.9167
3.32852
5.88301
10.561
2.80302
1.61625
1.01845
0.780305
0.822886
1.16393
1.91672
3.32854
5.88305
10.561
2.80306
1.61628
1.01847
0.780322
0.822902
1.16395
1.91674
3.32859
5.88311
10.5611
2.80312
1.61632
1.01849
0.780343
0.822923
1.16397
1.91678
3.32864
5.8832
10.5613
2.80319
1.61636
1.01853
0.780367
0.822946
1.164
1.91682
3.3287
5.8833
10.5614
2.07234
1.31975
0.880361
0.697807
0.744766
1.0458
1.68929
2.84368
4.77076
7.77827
2.07231
1.31972
0.880337
0.697782
0.744735
1.04575
1.68923
2.84359
4.77062
7.77807
2.07228
1.31971
0.88032
0.697765
0.744712
1.04572
1.68918
2.84352
4.77052
7.77793
2.07227
1.3197
0.880311
0.697754
0.744699
1.0457
1.68915
2.84348
4.77046
7.77784
2.07227
1.31969
0.880309
0.697751
0.744693
1.04569
1.68914
2.84346
4.77044
7.77781
2.07228
1.3197
0.880315
0.697754
0.744695
1.04569
1.68914
2.84346
4.77044
7.77782
2.0723
1.31972
0.880327
0.697764
0.744704
1.0457
1.68916
2.84348
4.77048
7.77787
2.07234
1.31975
0.880346
0.69778
0.74472
1.04572
1.68918
2.84352
4.77054
7.77797
2.07239
1.31978
0.880372
0.697801
0.744741
1.04575
1.68922
2.84358
4.77063
7.7781
2.07245
1.31983
0.880406
0.697829
0.744769
1.04578
1.68927
2.84365
4.77074
7.77827
1.40058
0.965371
0.685654
0.568214
0.616418
0.855601
1.34398
2.17394
3.45308
5.22898
1.40055
0.965348
0.685634
0.568193
0.616391
0.855564
1.34392
2.17387
3.45298
5.22884
1.40053
0.965333
0.68562
0.568178
0.616373
0.855538
1.34388
2.17381
3.4529
5.22874
1.40052
0.965325
0.685612
0.56817
0.616361
0.855522
1.34386
2.17378
3.45285
5.22868
1.40052
0.965325
0.685611
0.568167
0.616357
0.855515
1.34385
2.17376
3.45283
5.22865
1.40053
0.965331
0.685615
0.56817
0.616359
0.855516
1.34385
2.17377
3.45284
5.22866
1.40055
0.965345
0.685626
0.568179
0.616367
0.855526
1.34387
2.17379
3.45287
5.2287
1.40057
0.965366
0.685643
0.568193
0.616381
0.855543
1.34389
2.17382
3.45292
5.22878
1.40061
0.965396
0.685666
0.568212
0.616401
0.855567
1.34392
2.17387
3.453
5.22889
1.40066
0.965435
0.685696
0.568238
0.616427
0.8556
1.34397
2.17394
3.4531
5.22903
0.904417
0.66035
0.495733
0.429009
0.47276
0.647548
0.987638
1.53735
2.33223
3.35535
0.904396
0.660333
0.495718
0.428992
0.472739
0.647519
0.987597
1.5373
2.33216
3.35525
0.904383
0.660322
0.495707
0.428981
0.472724
0.647499
0.987568
1.53725
2.3321
3.35518
0.904376
0.660316
0.495701
0.428974
0.472715
0.647486
0.98755
1.53723
2.33207
3.35514
0.904376
0.660315
0.4957
0.428972
0.472711
0.647481
0.987542
1.53722
2.33205
3.35512
0.904382
0.66032
0.495704
0.428974
0.472713
0.647482
0.987544
1.53722
2.33206
3.35513
0.904396
0.660331
0.495712
0.428982
0.47272
0.64749
0.987556
1.53724
2.33208
3.35516
0.904417
0.660348
0.495726
0.428993
0.472732
0.647505
0.987576
1.53727
2.33212
3.35522
0.904447
0.660371
0.495745
0.42901
0.47275
0.647526
0.987605
1.53731
2.33218
3.3553
0.904484
0.660401
0.495769
0.429031
0.472772
0.647554
0.987643
1.53736
2.33226
3.35541
0.565278
0.430838
0.338793
0.304557
0.34006
0.459585
0.681814
1.02605
1.50048
2.0824
0.565264
0.430826
0.338781
0.304544
0.340044
0.459564
0.681785
1.02601
1.50042
2.08233
0.565254
0.430818
0.338774
0.304536
0.340033
0.459548
0.681764
1.02598
1.50038
2.08228
0.565249
0.430814
0.338769
0.304531
0.340026
0.459539
0.681751
1.02596
1.50036
2.08225
0.565249
0.430813
0.338769
0.304529
0.340024
0.459535
0.681745
1.02595
1.50035
2.08224
0.565254
0.430817
0.338772
0.304531
0.340025
0.459537
0.681747
1.02595
1.50036
2.08225
0.565264
0.430825
0.338778
0.304537
0.340031
0.459544
0.681756
1.02597
1.50037
2.08227
0.56528
0.430838
0.338788
0.304546
0.340041
0.459555
0.681772
1.02599
1.50041
2.08231
0.565301
0.430855
0.338803
0.304559
0.340054
0.459572
0.681795
1.02602
1.50045
2.08237
0.565328
0.430877
0.338821
0.304576
0.340072
0.459594
0.681825
1.02606
1.50051
2.08245
0.343652
0.270879
0.221412
0.205549
0.231899
0.309412
0.447725
0.654526
0.929482
1.25626
0.343643
0.27087
0.221404
0.20554
0.231888
0.309397
0.447704
0.654499
0.929446
1.25622
0.343636
0.270865
0.221398
0.205534
0.23188
0.309386
0.44769
0.654479
0.929421
1.25619
0.343633
0.270862
0.221395
0.20553
0.231875
0.30938
0.447681
0.654467
0.929405
1.25617
0.343633
0.270862
0.221395
0.205529
0.231874
0.309377
0.447677
0.654462
0.929399
1.25616
0.343637
0.270865
0.221397
0.205531
0.231875
0.309379
0.447679
0.654465
0.929403
1.25617
0.343644
0.27087
0.221402
0.205535
0.231879
0.309384
0.447686
0.654474
0.929416
1.25618
0.343655
0.270879
0.221409
0.205542
0.231887
0.309393
0.447697
0.654491
0.929438
1.25621
0.343669
0.270892
0.22142
0.205552
0.231897
0.309405
0.447714
0.654514
0.92947
1.25626
0.343688
0.270907
0.221433
0.205564
0.23191
0.309422
0.447737
0.654545
0.929512
1.25631
0.203982
0.16544
0.139824
0.133421
0.151738
0.200007
0.282976
0.403334
0.55885
0.73945
0.203976
0.165435
0.139818
0.133415
0.15173
0.199997
0.282962
0.403316
0.558827
0.739421
0.203971
0.165431
0.139814
0.13341
0.151725
0.19999
0.282952
0.403303
0.558811
0.739401
0.203969
0.165429
0.139812
0.133408
0.151721
0.199985
0.282946
0.403295
0.558801
0.739389
0.20397
0.165429
0.139812
0.133407
0.15172
0.199984
0.282944
0.403292
0.558797
0.739385
0.203972
0.165431
0.139814
0.133408
0.151721
0.199985
0.282946
0.403294
0.5588
0.739388
0.203977
0.165435
0.139817
0.133412
0.151725
0.199989
0.28295
0.403301
0.558809
0.7394
0.203984
0.165441
0.139822
0.133417
0.15173
0.199995
0.282959
0.403312
0.558824
0.73942
0.203994
0.16545
0.13983
0.133424
0.151737
0.200004
0.282971
0.403329
0.558846
0.739449
0.204006
0.16546
0.139839
0.133433
0.151747
0.200016
0.282987
0.40335
0.558875
0.739486
0.11925
0.0995621
0.0868789
0.0849973
0.0972988
0.126737
0.17553
0.244264
0.330565
0.428162
0.119246
0.0995583
0.0868751
0.084993
0.0972935
0.12673
0.175521
0.244252
0.33055
0.428145
0.119244
0.0995558
0.0868725
0.0849901
0.0972898
0.126725
0.175514
0.244243
0.33054
0.428132
0.119242
0.0995546
0.0868712
0.0849885
0.0972877
0.126723
0.175511
0.244238
0.330534
0.428124
0.119243
0.0995546
0.0868711
0.0849881
0.0972871
0.126722
0.175509
0.244237
0.330531
0.428122
0.119244
0.099556
0.0868722
0.0849891
0.0972879
0.126722
0.17551
0.244238
0.330533
0.428125
0.119247
0.0995588
0.0868746
0.0849913
0.0972903
0.126725
0.175514
0.244243
0.33054
0.428133
0.119252
0.0995629
0.0868784
0.0849949
0.0972941
0.12673
0.17552
0.244251
0.33055
0.428146
0.119259
0.0995686
0.0868834
0.0849998
0.0972994
0.126736
0.175528
0.244262
0.330565
0.428165
0.119267
0.0995757
0.0868898
0.085006
0.0973063
0.126745
0.175539
0.244277
0.330584
0.42819
0.0707857
0.0615569
0.0556804
0.0558457
0.0643031
0.0827817
0.11224
0.152283
0.200348
0.251162
0.070783
0.0615543
0.0556777
0.0558427
0.0642994
0.0827769
0.112234
0.152276
0.200338
0.251151
0.0707813
0.0615527
0.055676
0.0558407
0.0642969
0.0827736
0.112229
0.15227
0.200332
0.251143
0.0707805
0.0615519
0.0556751
0.0558396
0.0642954
0.0827717
0.112227
0.152267
0.200328
0.251138
0.0707807
0.061552
0.0556751
0.0558394
0.064295
0.0827711
0.112226
0.152266
0.200327
0.251137
0.0707818
0.0615529
0.0556759
0.0558401
0.0642957
0.0827718
0.112227
0.152267
0.200328
0.251139
0.070784
0.0615549
0.0556776
0.0558417
0.0642974
0.0827739
0.112229
0.15227
0.200332
0.251145
0.0707872
0.0615577
0.0556803
0.0558443
0.0643003
0.0827773
0.112234
0.152276
0.20034
0.251153
0.0707914
0.0615616
0.0556838
0.0558478
0.0643041
0.0827819
0.11224
0.152284
0.20035
0.251166
0.0707968
0.0615664
0.0556882
0.0558522
0.064309
0.0827879
0.112247
0.152294
0.200363
0.251182
0.0474967
0.0439932
0.0412741
0.0422677
0.0488911
0.0623763
0.0831416
0.110274
0.140531
0.166391
0.047495
0.0439915
0.0412724
0.0422657
0.0488886
0.0623731
0.0831375
0.110269
0.140525
0.166384
0.0474939
0.0439903
0.0412711
0.0422642
0.0488867
0.0623707
0.0831344
0.110265
0.14052
0.166379
0.0474933
0.0439897
0.0412704
0.0422633
0.0488856
0.0623692
0.0831325
0.110263
0.140517
0.166376
0.0474935
0.0439898
0.0412704
0.0422632
0.0488854
0.0623688
0.0831319
0.110262
0.140516
0.166375
0.0474943
0.0439906
0.0412711
0.0422638
0.0488859
0.0623694
0.0831326
0.110263
0.140518
0.166377
0.0474959
0.0439921
0.0412725
0.0422652
0.0488874
0.0623711
0.0831348
0.110266
0.140521
0.166381
0.0474983
0.0439943
0.0412746
0.0422673
0.0488897
0.0623739
0.0831383
0.11027
0.140527
0.166387
0.0475014
0.0439973
0.0412774
0.0422701
0.0488928
0.0623777
0.0831431
0.110276
0.140535
0.166396
0.0475052
0.0440009
0.0412808
0.0422736
0.0488967
0.0623823
0.083149
0.110284
0.140544
0.166408
19.5843
23.0858
24.7184
25.563
26.0205
26.2718
26.4092
26.4831
26.5208
26.5367
19.5839
23.0854
24.7179
25.5625
26.02
26.2712
26.4087
26.4826
26.5203
26.5363
19.5836
23.0851
24.7176
25.5622
26.0197
26.2709
26.4084
26.4823
26.52
26.536
19.5835
23.0849
24.7174
25.562
26.0195
26.2707
26.4082
26.4821
26.5198
26.5359
19.5834
23.0848
24.7174
25.5619
26.0194
26.2707
26.4082
26.482
26.5198
26.5359
19.5834
23.0848
24.7174
25.562
26.0195
26.2707
26.4082
26.4821
26.5199
26.5359
19.5835
23.085
24.7175
25.5621
26.0196
26.2709
26.4084
26.4823
26.5201
26.5361
19.5837
23.0852
24.7178
25.5624
26.0199
26.2712
26.4087
26.4826
26.5204
26.5365
19.584
23.0855
24.7182
25.5628
26.0203
26.2716
26.4092
26.4831
26.5208
26.5369
19.5843
23.0859
24.7186
25.5632
26.0208
26.2721
26.4096
26.4835
26.5213
26.5374
11.8233
14.3928
15.8592
16.6795
17.1366
17.3899
17.5288
17.6033
17.6413
17.6573
11.823
14.3925
15.8588
16.6792
17.1362
17.3896
17.5284
17.603
17.6409
17.657
11.8228
14.3923
15.8586
16.6789
17.136
17.3893
17.5282
17.6027
17.6407
17.6568
11.8227
14.3922
15.8585
16.6788
17.1358
17.3892
17.5281
17.6026
17.6406
17.6567
11.8226
14.3921
15.8584
16.6787
17.1358
17.3891
17.528
17.6026
17.6406
17.6567
11.8227
14.3921
15.8585
16.6788
17.1358
17.3892
17.5281
17.6026
17.6407
17.6568
11.8227
14.3922
15.8586
16.6789
17.136
17.3893
17.5282
17.6028
17.6408
17.6569
11.8229
14.3924
15.8588
16.6791
17.1362
17.3896
17.5285
17.603
17.6411
17.6572
11.8231
14.3926
15.859
16.6794
17.1365
17.3899
17.5288
17.6034
17.6414
17.6575
11.8233
14.393
15.8594
16.6798
17.1369
17.3903
17.5292
17.6038
17.6418
17.658
7.29015
8.88979
9.94856
10.5998
10.9845
11.2056
11.3296
11.3971
11.4318
11.4465
7.28998
8.88958
9.94833
10.5995
10.9842
11.2054
11.3294
11.3969
11.4316
11.4464
7.28985
8.88943
9.94817
10.5994
10.9841
11.2052
11.3292
11.3967
11.4315
11.4462
7.28977
8.88934
9.94807
10.5993
10.984
11.2051
11.3291
11.3966
11.4314
11.4461
7.28974
8.88931
9.94804
10.5992
10.9839
11.205
11.3291
11.3966
11.4314
11.4461
7.28975
8.88933
9.94806
10.5993
10.984
11.2051
11.3291
11.3967
11.4314
11.4462
7.28981
8.8894
9.94815
10.5994
10.9841
11.2052
11.3292
11.3968
11.4315
11.4463
7.28991
8.88953
9.94829
10.5995
10.9842
11.2054
11.3294
11.397
11.4317
11.4465
7.29006
8.88971
9.9485
10.5997
10.9845
11.2056
11.3297
11.3972
11.432
11.4468
7.29025
8.88995
9.94877
10.6
10.9848
11.206
11.33
11.3976
11.4323
11.4471
4.47157
5.41996
6.11153
6.57144
6.85951
7.03229
7.13226
7.18791
7.21695
7.22935
4.47144
5.41982
6.11138
6.57128
6.85934
7.03212
7.13209
7.18775
7.2168
7.22924
4.47136
5.41972
6.11127
6.57116
6.85922
7.032
7.13197
7.18763
7.21669
7.22915
4.4713
5.41966
6.1112
6.57109
6.85915
7.03193
7.1319
7.18757
7.21664
7.2291
4.47128
5.41964
6.11118
6.57107
6.85913
7.03192
7.13189
7.18756
7.21663
7.22909
4.47129
5.41965
6.1112
6.5711
6.85916
7.03195
7.13192
7.18759
7.21667
7.22913
4.47134
5.41971
6.11126
6.57117
6.85924
7.03203
7.13201
7.18768
7.21676
7.22922
4.47141
5.4198
6.11137
6.57128
6.85936
7.03216
7.13214
7.18782
7.2169
7.22937
4.47152
5.41993
6.11152
6.57145
6.85954
7.03234
7.13233
7.18802
7.21709
7.22956
4.47166
5.4201
6.11172
6.57167
6.85977
7.03259
7.13258
7.18827
7.21735
7.22982
2.70018
3.24949
3.67621
3.9775
4.17602
4.30008
4.37423
4.41655
4.43904
4.44875
2.7001
3.2494
3.67611
3.97739
4.17591
4.29997
4.37411
4.41644
4.43894
4.44867
2.70004
3.24933
3.67604
3.97731
4.17583
4.29989
4.37403
4.41636
4.43887
4.44861
2.70001
3.24929
3.67599
3.97727
4.17579
4.29984
4.37399
4.41632
4.43883
4.44858
2.7
3.24928
3.67598
3.97725
4.17577
4.29983
4.37398
4.41631
4.43883
4.44858
2.70001
3.24929
3.67599
3.97727
4.17579
4.29985
4.374
4.41634
4.43885
4.44861
2.70004
3.24933
3.67604
3.97732
4.17585
4.29991
4.37406
4.4164
4.43892
4.44867
2.70009
3.2494
3.67611
3.97741
4.17594
4.30001
4.37416
4.41651
4.43902
4.44878
2.70017
3.24949
3.67622
3.97752
4.17606
4.30014
4.3743
4.41664
4.43916
4.44892
2.70027
3.24961
3.67636
3.97768
4.17623
4.30031
4.37448
4.41682
4.43934
4.4491
1.59864
1.91094
2.16408
2.35112
2.47965
2.56297
2.61432
2.64438
2.66066
2.66777
1.59858
1.91088
2.16402
2.35105
2.47958
2.5629
2.61425
2.64431
2.66059