/*--------------------------------*- C++ -*----------------------------------*\
  =========                 |
  \\      /  F ield         | OpenFOAM: The Open Source CFD Toolbox
   \\    /   O peration     | Website:  https://openfoam.org
    \\  /    A nd           | Version:  6
     \\/     M anipulation  |
\*---------------------------------------------------------------------------*/
FoamFile
{
    version     2.0;
    format      ascii;
    class       volVectorField;
    location    "0.084";
    object      U;
}
// * * * * * * * * * * * * * * * * * * * * * * * * * * * * * * * * * * * * * //

dimensions      [0 1 -1 0 0 0 0];

internalField   nonuniform List<vector> 
56000
(
(-5.46689e-09 2.06384e-08 0.0216374)
(1.16757e-09 2.24719e-08 0.0216374)
(-1.89545e-09 1.10363e-07 0.033233)
(6.04573e-10 1.12336e-07 0.033233)
(-6.64698e-10 2.0456e-07 0.0363403)
(4.20574e-10 2.05124e-07 0.0363403)
(-2.15363e-10 2.81576e-07 0.0371734)
(1.37924e-10 2.8173e-07 0.0371734)
(-6.34945e-11 3.27577e-07 0.0373971)
(4.1354e-11 3.27635e-07 0.0373971)
(5.49744e-11 3.37277e-07 0.0374576)
(-5.2545e-11 3.37299e-07 0.0374576)
(1.62255e-10 3.09917e-07 0.0374743)
(-1.50484e-10 3.09925e-07 0.0374743)
(2.49018e-10 2.48799e-07 0.0374791)
(-2.33986e-10 2.48801e-07 0.0374791)
(3.09443e-10 1.60787e-07 0.0374807)
(-2.93505e-10 1.60788e-07 0.0374807)
(3.39995e-10 5.54895e-08 0.0374812)
(-3.24147e-10 5.54894e-08 0.0374812)
(3.38899e-10 -5.57714e-08 0.0374812)
(-3.23599e-10 -5.57719e-08 0.0374812)
(3.0629e-10 -1.61089e-07 0.0374807)
(-2.91766e-10 -1.6109e-07 0.0374807)
(2.44305e-10 -2.49143e-07 0.0374791)
(-2.30676e-10 -2.49144e-07 0.0374791)
(1.57107e-10 -3.10334e-07 0.0374743)
(-1.44564e-10 -3.10335e-07 0.0374743)
(5.23038e-11 -3.37808e-07 0.0374576)
(-4.1194e-11 -3.37809e-07 0.0374576)
(-5.80943e-11 -3.2829e-07 0.0373971)
(6.80386e-11 -3.2829e-07 0.0373971)
(-1.96118e-10 -2.82608e-07 0.0371734)
(2.07049e-10 -2.82613e-07 0.0371734)
(-5.77697e-10 -2.06404e-07 0.0363403)
(5.74916e-10 -2.06423e-07 0.0363403)
(-1.10147e-09 -1.14129e-07 0.033233)
(1.06902e-09 -1.14145e-07 0.033233)
(-3.01162e-09 -2.36669e-08 0.0216374)
(2.97244e-09 -2.36755e-08 0.0216374)
(-1.00821e-08 7.24114e-08 0.0216373)
(8.83729e-09 7.29009e-08 0.0216373)
(-3.77155e-09 3.52985e-07 0.0332328)
(3.25482e-09 3.53587e-07 0.0332328)
(-1.88583e-09 6.40228e-07 0.0363402)
(1.76301e-09 6.40463e-07 0.0363402)
(-6.48505e-10 8.77193e-07 0.0371733)
(6.40651e-10 8.77284e-07 0.0371733)
(-1.99547e-10 1.01901e-06 0.037397)
(2.37186e-10 1.01905e-06 0.037397)
(1.49706e-10 1.04837e-06 0.0374576)
(-9.23833e-11 1.04839e-06 0.0374576)
(4.74091e-10 9.62855e-07 0.0374744)
(-4.088e-10 9.62861e-07 0.0374744)
(7.40034e-10 7.72739e-07 0.0374793)
(-6.71634e-10 7.72741e-07 0.0374793)
(9.2676e-10 4.99354e-07 0.0374809)
(-8.57302e-10 4.99354e-07 0.0374809)
(1.0226e-09 1.72478e-07 0.0374815)
(-9.53051e-10 1.72478e-07 0.0374815)
(1.02183e-09 -1.7283e-07 0.0374815)
(-9.52692e-10 -1.72831e-07 0.0374815)
(9.2458e-10 -4.99724e-07 0.0374809)
(-8.56166e-10 -4.99725e-07 0.0374809)
(7.36902e-10 -7.73147e-07 0.0374793)
(-6.69472e-10 -7.73148e-07 0.0374793)
(4.71092e-10 -9.63325e-07 0.0374744)
(-4.04969e-10 -9.63326e-07 0.0374744)
(1.49467e-10 -1.04894e-06 0.0374576)
(-8.50628e-11 -1.04894e-06 0.0374576)
(-1.90921e-10 -1.01971e-06 0.037397)
(2.52887e-10 -1.01972e-06 0.037397)
(-6.17103e-10 -8.78092e-07 0.0371733)
(6.75237e-10 -8.78094e-07 0.0371733)
(-1.77744e-09 -6.41454e-07 0.0363402)
(1.83538e-09 -6.41453e-07 0.0363402)
(-3.36178e-09 -3.54691e-07 0.0332328)
(3.42312e-09 -3.54694e-07 0.0332328)
(-9.29686e-09 -7.3526e-08 0.0216373)
(9.33849e-09 -7.3537e-08 0.0216373)
(-1.67094e-08 1.31165e-07 0.021637)
(1.656e-08 1.31201e-07 0.021637)
(-6.12773e-09 6.33088e-07 0.0332324)
(6.08131e-09 6.33252e-07 0.0332324)
(-3.21884e-09 1.14513e-06 0.0363398)
(3.27594e-09 1.14522e-06 0.0363398)
(-1.10097e-09 1.56718e-06 0.037173)
(1.21417e-09 1.56723e-06 0.037173)
(-3.22306e-10 1.81908e-06 0.0373969)
(4.65192e-10 1.81911e-06 0.0373969)
(2.89581e-10 1.87017e-06 0.0374576)
(-1.31988e-10 1.87018e-06 0.0374576)
(8.5988e-10 1.71655e-06 0.0374745)
(-6.95208e-10 1.71656e-06 0.0374745)
(1.32637e-09 1.37693e-06 0.0374796)
(-1.15833e-09 1.37694e-06 0.0374796)
(1.6529e-09 8.89506e-07 0.0374813)
(-1.48338e-09 8.89507e-07 0.0374813)
(1.82048e-09 3.07251e-07 0.0374819)
(-1.65053e-09 3.07251e-07 0.0374819)
(1.82008e-09 -3.07658e-07 0.0374819)
(-1.65035e-09 -3.07658e-07 0.0374819)
(1.65181e-09 -8.89927e-07 0.0374813)
(-1.48281e-09 -8.89928e-07 0.0374813)
(1.32496e-09 -1.37738e-06 0.0374796)
(-1.15725e-09 -1.37738e-06 0.0374796)
(8.5896e-10 -1.71704e-06 0.0374745)
(-6.93312e-10 -1.71705e-06 0.0374745)
(2.90992e-10 -1.87073e-06 0.0374576)
(-1.2866e-10 -1.87073e-06 0.0374576)
(-3.14395e-10 -1.81971e-06 0.0373969)
(4.72411e-10 -1.81972e-06 0.0373969)
(-1.07881e-09 -1.56788e-06 0.037173)
(1.23091e-09 -1.5679e-06 0.037173)
(-3.16997e-09 -1.14591e-06 0.0363398)
(3.30506e-09 -1.14593e-06 0.0363398)
(-6.0284e-09 -6.33877e-07 0.0332324)
(6.12834e-09 -6.33905e-07 0.0332324)
(-1.66419e-08 -1.31436e-07 0.021637)
(1.66951e-08 -1.31461e-07 0.021637)
(-2.58196e-08 2.03613e-07 0.0216365)
(2.58764e-08 2.0367e-07 0.0216365)
(-9.37932e-09 9.81908e-07 0.0332318)
(9.53976e-09 9.82009e-07 0.0332318)
(-4.91218e-09 1.77432e-06 0.0363392)
(5.16467e-09 1.7744e-06 0.0363392)
(-1.63326e-09 2.42599e-06 0.0371726)
(1.94278e-09 2.42604e-06 0.0371726)
(-4.25925e-10 2.81314e-06 0.0373967)
(7.66917e-10 2.81317e-06 0.0373967)
(5.15966e-10 2.88925e-06 0.0374577)
(-1.57772e-10 2.88926e-06 0.0374577)
(1.385e-09 2.64947e-06 0.0374749)
(-1.01739e-09 2.64948e-06 0.0374749)
(2.08856e-09 2.12365e-06 0.0374801)
(-1.71591e-09 2.12366e-06 0.0374801)
(2.57688e-09 1.37117e-06 0.037482)
(-2.20171e-09 1.37117e-06 0.037482)
(2.82631e-09 4.73545e-07 0.0374827)
(-2.45016e-09 4.73545e-07 0.0374827)
(2.82615e-09 -4.73994e-07 0.0374827)
(-2.45011e-09 -4.73995e-07 0.0374827)
(2.57648e-09 -1.37162e-06 0.037482)
(-2.20153e-09 -1.37163e-06 0.037482)
(2.08814e-09 -2.12413e-06 0.0374801)
(-1.71553e-09 -2.12414e-06 0.0374801)
(1.38505e-09 -2.64997e-06 0.0374749)
(-1.01659e-09 -2.64998e-06 0.0374749)
(5.17406e-10 -2.88978e-06 0.0374577)
(-1.55925e-10 -2.8898e-06 0.0374577)
(-4.20959e-10 -2.81372e-06 0.0373967)
(7.70934e-10 -2.81373e-06 0.0373967)
(-1.61941e-09 -2.4266e-06 0.0371726)
(1.95059e-09 -2.42662e-06 0.0371726)
(-4.87481e-09 -1.77492e-06 0.0363392)
(5.18434e-09 -1.77494e-06 0.0363392)
(-9.30285e-09 -9.82404e-07 0.0332318)
(9.58628e-09 -9.82433e-07 0.0332318)
(-2.57642e-08 -2.03762e-07 0.0216365)
(2.59639e-08 -2.03811e-07 0.0216365)
(-3.77271e-08 2.98537e-07 0.0216359)
(3.81726e-08 2.98668e-07 0.0216359)
(-1.3557e-08 1.43884e-06 0.0332308)
(1.42258e-08 1.43895e-06 0.0332308)
(-6.99485e-09 2.59744e-06 0.0363383)
(7.77802e-09 2.59754e-06 0.0363383)
(-2.15422e-09 3.54717e-06 0.0371719)
(3.01591e-09 3.54725e-06 0.0371719)
(-3.63647e-10 4.10762e-06 0.0373964)
(1.27525e-09 4.10766e-06 0.0373964)
(1.01193e-09 4.21281e-06 0.0374578)
(-6.99687e-11 4.21284e-06 0.0374578)
(2.25776e-09 3.85815e-06 0.0374753)
(-1.29796e-09 3.85817e-06 0.0374753)
(3.24966e-09 3.08911e-06 0.0374809)
(-2.27983e-09 3.08912e-06 0.0374809)
(3.92896e-09 1.993e-06 0.037483)
(-2.95388e-09 1.99301e-06 0.037483)
(4.27311e-09 6.88077e-07 0.0374838)
(-3.29579e-09 6.88078e-07 0.0374838)
(4.2732e-09 -6.88561e-07 0.0374838)
(-3.29581e-09 -6.88562e-07 0.0374838)
(3.92927e-09 -1.99349e-06 0.037483)
(-2.95395e-09 -1.99349e-06 0.037483)
(3.25036e-09 -3.08961e-06 0.0374809)
(-2.27991e-09 -3.08962e-06 0.0374809)
(2.25918e-09 -3.85866e-06 0.0374753)
(-1.29803e-09 -3.85868e-06 0.0374753)
(1.01483e-09 -4.21333e-06 0.0374578)
(-7.00299e-11 -4.21336e-06 0.0374578)
(-3.57653e-10 -4.10814e-06 0.0373964)
(1.27563e-09 -4.10818e-06 0.0373964)
(-2.1426e-09 -3.54767e-06 0.0371719)
(3.01808e-09 -3.54774e-06 0.0371719)
(-6.97823e-09 -2.59789e-06 0.0363383)
(7.77805e-09 -2.59799e-06 0.0363383)
(-1.35401e-08 -1.43917e-06 0.0332308)
(1.42162e-08 -1.43928e-06 0.0332308)
(-3.77281e-08 -2.9864e-07 0.0216359)
(3.81761e-08 -2.98777e-07 0.0216359)
(-5.37617e-08 4.26856e-07 0.0216349)
(5.49406e-08 4.27199e-07 0.0216349)
(-1.9031e-08 2.05599e-06 0.0332294)
(2.07908e-08 2.05624e-06 0.0332294)
(-9.52401e-09 3.7069e-06 0.036337)
(1.15743e-08 3.70714e-06 0.036337)
(-2.48913e-09 5.05409e-06 0.037171)
(4.72469e-09 5.05426e-06 0.037171)
(1.27622e-10 5.84168e-06 0.0373961)
(2.22029e-09 5.84179e-06 0.0373961)
(2.08927e-09 5.97977e-06 0.0374579)
(3.2611e-10 5.97984e-06 0.0374579)
(3.81802e-09 5.46662e-06 0.037476)
(-1.36325e-09 5.46665e-06 0.037476)
(5.16177e-09 4.37051e-06 0.037482)
(-2.68503e-09 4.37053e-06 0.037482)
(6.06445e-09 2.81678e-06 0.0374844)
(-3.5763e-09 2.81679e-06 0.0374844)
(6.51619e-09 9.72008e-07 0.0374854)
(-4.02315e-09 9.72011e-07 0.0374854)
(6.5165e-09 -9.72522e-07 0.0374854)
(-4.02325e-09 -9.72525e-07 0.0374854)
(6.0654e-09 -2.8173e-06 0.0374844)
(-3.5766e-09 -2.81731e-06 0.0374844)
(5.16347e-09 -4.37103e-06 0.037482)
(-2.68553e-09 -4.37105e-06 0.037482)
(3.82066e-09 -5.46713e-06 0.037476)
(-1.36388e-09 -5.46717e-06 0.037476)
(2.09321e-09 -5.98029e-06 0.0374579)
(3.25591e-10 -5.98035e-06 0.0374579)
(1.33627e-10 -5.84218e-06 0.0373961)
(2.21996e-09 -5.84229e-06 0.0373961)
(-2.47881e-09 -5.05457e-06 0.037171)
(4.72415e-09 -5.05473e-06 0.037171)
(-9.5008e-09 -3.70731e-06 0.036337)
(1.1578e-08 -3.70753e-06 0.036337)
(-1.89868e-08 -2.05627e-06 0.0332294)
(2.08064e-08 -2.05651e-06 0.0332294)
(-5.37277e-08 -4.26945e-07 0.0216349)
(5.49693e-08 -4.27283e-07 0.0216349)
(-7.54615e-08 6.0377e-07 0.0216334)
(7.86532e-08 6.0464e-07 0.0216334)
(-2.5912e-08 2.9057e-06 0.0332274)
(3.06082e-08 2.90631e-06 0.0332274)
(-1.21987e-08 5.2299e-06 0.0363352)
(1.7583e-08 5.23046e-06 0.0363352)
(-2.011e-09 7.11483e-06 0.0371698)
(7.82884e-09 7.11522e-06 0.0371698)
(1.80592e-09 8.20271e-06 0.0373955)
(4.27447e-09 8.20296e-06 0.0373955)
(4.57228e-09 8.37494e-06 0.0374582)
(1.66394e-09 8.37509e-06 0.0374582)
(6.92022e-09 7.63808e-06 0.0374769)
(-5.94586e-10 7.63816e-06 0.037477)
(8.68535e-09 6.09463e-06 0.0374836)
(-2.31084e-09 6.09467e-06 0.0374836)
(9.83905e-09 3.92254e-06 0.0374864)
(-3.43965e-09 3.92256e-06 0.0374864)
(1.04062e-08 1.35266e-06 0.0374876)
(-3.99634e-09 1.35267e-06 0.0374876)
(1.04067e-08 -1.3532e-06 0.0374876)
(-3.99651e-09 -1.35321e-06 0.0374876)
(9.84067e-09 -3.92308e-06 0.0374864)
(-3.44017e-09 -3.9231e-06 0.0374864)
(8.68812e-09 -6.09516e-06 0.0374836)
(-2.31172e-09 -6.09521e-06 0.0374836)
(6.92433e-09 -7.63861e-06 0.0374769)
(-5.95895e-10 -7.63869e-06 0.037477)
(4.57819e-09 -8.37545e-06 0.0374582)
(1.66195e-09 -8.3756e-06 0.0374582)
(1.81455e-09 -8.20319e-06 0.0373955)
(4.27172e-09 -8.20344e-06 0.0373955)
(-1.99889e-09 -7.11526e-06 0.0371698)
(7.82591e-09 -7.11566e-06 0.0371698)
(-1.21868e-08 -5.23025e-06 0.0363352)
(1.75744e-08 -5.23082e-06 0.0363352)
(-2.5908e-08 -2.90595e-06 0.0332274)
(3.0583e-08 -2.90657e-06 0.0332274)
(-7.5473e-08 -6.03851e-07 0.0216334)
(7.86312e-08 -6.04729e-07 0.0216334)
(-1.04885e-07 8.50917e-07 0.0216314)
(1.13075e-07 8.53162e-07 0.0216315)
(-3.39713e-08 4.09089e-06 0.0332246)
(4.60569e-08 4.09244e-06 0.0332246)
(-1.39858e-08 7.34559e-06 0.0363327)
(2.78432e-08 7.34701e-06 0.0363327)
(8.90281e-10 9.96301e-06 0.037168)
(1.40475e-08 9.96397e-06 0.037168)
(6.50413e-09 1.14473e-05 0.0373948)
(9.06586e-09 1.14479e-05 0.0373948)
(1.0389e-08 1.16476e-05 0.0374585)
(5.54544e-09 1.16479e-05 0.0374585)
(1.35214e-08 1.05896e-05 0.0374783)
(2.61651e-09 1.05898e-05 0.0374783)
(1.5769e-08 8.4281e-06 0.0374858)
(4.77156e-10 8.4282e-06 0.0374858)
(1.71811e-08 5.41459e-06 0.0374892)
(-8.81168e-10 5.41464e-06 0.0374892)
(1.7857e-08 1.8655e-06 0.0374907)
(-1.53499e-09 1.86551e-06 0.0374907)
(1.78578e-08 -1.86606e-06 0.0374907)
(-1.53521e-09 -1.86607e-06 0.0374907)
(1.71833e-08 -5.41515e-06 0.0374892)
(-8.81816e-10 -5.4152e-06 0.0374892)
(1.57728e-08 -8.42866e-06 0.0374858)
(4.76055e-10 -8.42876e-06 0.0374858)
(1.35269e-08 -1.05901e-05 0.0374783)
(2.61494e-09 -1.05903e-05 0.0374783)
(1.03963e-08 -1.16481e-05 0.0374585)
(5.54351e-09 -1.16485e-05 0.0374585)
(6.51388e-09 -1.14478e-05 0.0373948)
(9.06334e-09 -1.14484e-05 0.0373948)
(9.03785e-10 -9.96346e-06 0.037168)
(1.40437e-08 -9.96442e-06 0.037168)
(-1.39611e-08 -7.34598e-06 0.0363327)
(2.78415e-08 -7.34737e-06 0.0363327)
(-3.39283e-08 -4.09115e-06 0.0332246)
(4.60626e-08 -4.09269e-06 0.0332246)
(-1.04852e-07 -8.51007e-07 0.0216314)
(1.13091e-07 -8.53248e-07 0.0216315)
(-1.43878e-07 1.20002e-06 0.0216286)
(1.65092e-07 1.20577e-06 0.0216287)
(-4.11557e-08 5.76165e-06 0.0332206)
(7.23832e-08 5.76554e-06 0.0332207)
(-1.14924e-08 1.03113e-05 0.0363292)
(4.71556e-08 1.03148e-05 0.0363292)
(1.05661e-08 1.39283e-05 0.0371656)
(2.77409e-08 1.39306e-05 0.0371657)
(1.89444e-08 1.59305e-05 0.0373938)
(2.087e-08 1.59319e-05 0.0373938)
(2.43971e-08 1.61359e-05 0.037459)
(1.62615e-08 1.61367e-05 0.0374591)
(2.84981e-08 1.46104e-05 0.0374802)
(1.2618e-08 1.46108e-05 0.0374803)
(3.12516e-08 1.15896e-05 0.0374888)
(1.01007e-08 1.15898e-05 0.0374889)
(3.28807e-08 7.42837e-06 0.0374931)
(8.58539e-09 7.42847e-06 0.0374931)
(3.36279e-08 2.55629e-06 0.037495)
(7.88372e-09 2.55632e-06 0.037495)
(3.36289e-08 -2.55688e-06 0.037495)
(7.88345e-09 -2.55691e-06 0.037495)
(3.28835e-08 -7.42896e-06 0.0374931)
(8.58456e-09 -7.42906e-06 0.0374931)
(3.12563e-08 -1.15902e-05 0.0374888)
(1.00993e-08 -1.15904e-05 0.0374889)
(2.8505e-08 -1.4611e-05 0.0374802)
(1.26159e-08 -1.46114e-05 0.0374803)
(2.44065e-08 -1.61364e-05 0.037459)
(1.62583e-08 -1.61372e-05 0.0374591)
(1.89574e-08 -1.5931e-05 0.0373938)
(2.08654e-08 -1.59324e-05 0.0373938)
(1.05832e-08 -1.39287e-05 0.0371656)
(2.77352e-08 -1.3931e-05 0.0371657)
(-1.14749e-08 -1.03117e-05 0.0363292)
(4.71429e-08 -1.03152e-05 0.0363292)
(-4.11454e-08 -5.76191e-06 0.0332206)
(7.23506e-08 -5.76582e-06 0.0332207)
(-1.43886e-07 -1.20012e-06 0.0216286)
(1.65062e-07 -1.20588e-06 0.0216287)
(-1.93077e-07 1.69846e-06 0.0216246)
(2.47637e-07 1.71321e-06 0.0216247)
(-4.0824e-08 8.14165e-06 0.033215)
(1.21094e-07 8.15144e-06 0.0332151)
(4.6322e-09 1.45031e-05 0.0363242)
(8.68378e-08 1.45117e-05 0.0363243)
(3.81608e-08 1.94813e-05 0.0371623)
(5.98023e-08 1.94869e-05 0.0371624)
(5.09349e-08 2.21465e-05 0.0373925)
(5.06083e-08 2.21497e-05 0.0373926)
(5.86054e-08 2.22988e-05 0.0374598)
(4.48747e-08 2.23006e-05 0.0374599)
(6.38512e-08 2.00838e-05 0.0374829)
(4.06433e-08 2.00848e-05 0.037483)
(6.70417e-08 1.58635e-05 0.037493)
(3.79587e-08 1.58639e-05 0.0374931)
(6.87501e-08 1.01374e-05 0.0374983)
(3.64858e-08 1.01376e-05 0.0374985)
(6.9474e-08 3.48328e-06 0.0375008)
(3.58536e-08 3.48334e-06 0.0375009)
(6.94751e-08 -3.48389e-06 0.0375008)
(3.58533e-08 -3.48395e-06 0.0375009)
(6.87535e-08 -1.01381e-05 0.0374983)
(3.6485e-08 -1.01383e-05 0.0374985)
(6.70473e-08 -1.58641e-05 0.037493)
(3.79572e-08 -1.58645e-05 0.0374931)
(6.38593e-08 -2.00844e-05 0.0374829)
(4.06411e-08 -2.00854e-05 0.037483)
(5.86165e-08 -2.22994e-05 0.0374598)
(4.48717e-08 -2.23012e-05 0.0374599)
(5.09497e-08 -2.2147e-05 0.0373925)
(5.06041e-08 -2.21503e-05 0.0373926)
(3.8181e-08 -1.94817e-05 0.0371623)
(5.97959e-08 -1.94873e-05 0.0371624)
(4.66557e-09 -1.45035e-05 0.0363242)
(8.6832e-08 -1.45121e-05 0.0363243)
(-4.07708e-08 -8.14195e-06 0.033215)
(1.21092e-07 -8.15172e-06 0.0332151)
(-1.93039e-07 -1.69857e-06 0.0216246)
(2.47646e-07 -1.71332e-06 0.0216247)
(-2.47338e-07 2.41885e-06 0.021619)
(3.87972e-07 2.45669e-06 0.0216191)
(-1.31996e-08 1.15732e-05 0.0332072)
(2.19875e-07 1.15977e-05 0.0332074)
(5.95732e-08 2.04807e-05 0.0363173)
(1.75238e-07 2.05016e-05 0.0363176)
(1.12225e-07 2.73016e-05 0.0371578)
(1.38419e-07 2.73149e-05 0.0371581)
(1.32218e-07 3.07859e-05 0.0373908)
(1.26847e-07 3.07934e-05 0.0373912)
(1.4305e-07 3.07569e-05 0.037461)
(1.20398e-07 3.07608e-05 0.0374614)
(1.49547e-07 2.75126e-05 0.0374866)
(1.16108e-07 2.75146e-05 0.0374869)
(1.52918e-07 2.16128e-05 0.0374987)
(1.13795e-07 2.16138e-05 0.0374991)
(1.54395e-07 1.37593e-05 0.0375054)
(1.12791e-07 1.37597e-05 0.0375058)
(1.54903e-07 4.7187e-06 0.0375086)
(1.12461e-07 4.71881e-06 0.037509)
(1.54905e-07 -4.71934e-06 0.0375086)
(1.1246e-07 -4.71944e-06 0.037509)
(1.54398e-07 -1.376e-05 0.0375054)
(1.1279e-07 -1.37604e-05 0.0375058)
(1.52924e-07 -2.16135e-05 0.0374987)
(1.13793e-07 -2.16144e-05 0.0374991)
(1.49556e-07 -2.75133e-05 0.0374866)
(1.16106e-07 -2.75153e-05 0.0374869)
(1.43063e-07 -3.07574e-05 0.037461)
(1.20393e-07 -3.07614e-05 0.0374614)
(1.32236e-07 -3.07864e-05 0.0373908)
(1.26841e-07 -3.07939e-05 0.0373912)
(1.12251e-07 -2.73021e-05 0.0371578)
(1.38411e-07 -2.73154e-05 0.0371581)
(5.96026e-08 -2.04811e-05 0.0363173)
(1.75221e-07 -2.05021e-05 0.0363176)
(-1.31749e-08 -1.15735e-05 0.0332072)
(2.19836e-07 -1.1598e-05 0.0332074)
(-2.47338e-07 -2.41897e-06 0.021619)
(3.87936e-07 -2.45682e-06 0.0216191)
(-2.83776e-07 3.47569e-06 0.0216108)
(6.4683e-07 3.57272e-06 0.0216112)
(9.66952e-08 1.65959e-05 0.0331959)
(4.36853e-07 1.6657e-05 0.0331966)
(2.20137e-07 2.90949e-05 0.0363077)
(3.84492e-07 2.91459e-05 0.0363085)
(3.06273e-07 3.8382e-05 0.0371516)
(3.3697e-07 3.84134e-05 0.0371524)
(3.38516e-07 4.28154e-05 0.0373887)
(3.24393e-07 4.28325e-05 0.0373896)
(3.53891e-07 4.23423e-05 0.0374628)
(3.18797e-07 4.2351e-05 0.0374637)
(3.61554e-07 3.75442e-05 0.0374918)
(3.15836e-07 3.75484e-05 0.0374927)
(3.64502e-07 2.92891e-05 0.0375066)
(3.15033e-07 2.9291e-05 0.0375075)
(3.65149e-07 1.85574e-05 0.037515)
(3.153e-07 1.85582e-05 0.0375159)
(3.65099e-07 6.3488e-06 0.0375191)
(3.15679e-07 6.349e-06 0.03752)
(3.651e-07 -6.34945e-06 0.0375191)
(3.15679e-07 -6.34965e-06 0.03752)
(3.65154e-07 -1.85581e-05 0.037515)
(3.15299e-07 -1.85588e-05 0.0375159)
(3.64509e-07 -2.92898e-05 0.0375066)
(3.15031e-07 -2.92917e-05 0.0375075)
(3.61564e-07 -3.75448e-05 0.0374918)
(3.15833e-07 -3.7549e-05 0.0374927)
(3.53906e-07 -4.23429e-05 0.0374628)
(3.18793e-07 -4.23516e-05 0.0374637)
(3.38538e-07 -4.2816e-05 0.0373887)
(3.24386e-07 -4.28331e-05 0.0373896)
(3.06304e-07 -3.83826e-05 0.0371516)
(3.3696e-07 -3.84139e-05 0.0371524)
(2.20185e-07 -2.90954e-05 0.0363077)
(3.84481e-07 -2.91464e-05 0.0363085)
(9.67638e-08 -1.65962e-05 0.0331959)
(4.36843e-07 -1.66574e-05 0.0331966)
(-2.83729e-07 -3.47583e-06 0.0216108)
(6.46833e-07 -3.57286e-06 0.0216112)
(-2.26109e-07 5.05684e-06 0.0215987)
(1.16601e-06 5.30643e-06 0.0215999)
(4.40818e-07 2.40907e-05 0.0331797)
(9.41675e-07 2.42432e-05 0.0331815)
(6.65745e-07 4.16696e-05 0.036294)
(8.97438e-07 4.17931e-05 0.036296)
(8.13903e-07 5.41902e-05 0.0371431)
(8.43654e-07 5.42634e-05 0.0371453)
(8.67745e-07 5.95886e-05 0.037386)
(8.35504e-07 5.96267e-05 0.0373883)
(8.89721e-07 5.81566e-05 0.0374655)
(8.35023e-07 5.81752e-05 0.0374678)
(8.98053e-07 5.09899e-05 0.0374989)
(8.36456e-07 5.09984e-05 0.0375012)
(8.99387e-07 3.94311e-05 0.037517)
(8.39312e-07 3.94348e-05 0.0375193)
(8.98162e-07 2.48342e-05 0.0375277)
(8.42207e-07 2.48356e-05 0.0375299)
(8.96985e-07 8.47051e-06 0.0375328)
(8.4395e-07 8.47089e-06 0.0375351)
(8.96987e-07 -8.47118e-06 0.0375328)
(8.43949e-07 -8.47155e-06 0.0375351)
(8.98166e-07 -2.48348e-05 0.0375277)
(8.42206e-07 -2.48363e-05 0.0375299)
(8.99395e-07 -3.94318e-05 0.037517)
(8.3931e-07 -3.94355e-05 0.0375193)
(8.98065e-07 -5.09905e-05 0.0374989)
(8.36452e-07 -5.09991e-05 0.0375012)
(8.8974e-07 -5.81572e-05 0.0374655)
(8.35017e-07 -5.81759e-05 0.0374678)
(8.67772e-07 -5.95892e-05 0.037386)
(8.35495e-07 -5.96274e-05 0.0373883)
(8.13941e-07 -5.41908e-05 0.0371431)
(8.43642e-07 -5.4264e-05 0.0371453)
(6.65791e-07 -4.16701e-05 0.036294)
(8.97417e-07 -4.17936e-05 0.036296)
(4.40861e-07 -2.4091e-05 0.0331797)
(9.41631e-07 -2.42436e-05 0.0331815)
(-2.26099e-07 -5.05698e-06 0.0215987)
(1.16597e-06 -5.30659e-06 0.0215999)
(1.40894e-07 7.47822e-06 0.0215806)
(2.29285e-06 8.12638e-06 0.0215837)
(1.41334e-06 3.55527e-05 0.0331558)
(2.17818e-06 3.59295e-05 0.0331605)
(1.85404e-06 6.03169e-05 0.0362744)
(2.19915e-06 6.06116e-05 0.0362797)
(2.12321e-06 7.69221e-05 0.0371313)
(2.16094e-06 7.70903e-05 0.0371369)
(2.21644e-06 8.29945e-05 0.0373826)
(2.17344e-06 8.30785e-05 0.0373883)
(2.24804e-06 7.96286e-05 0.0374693)
(2.18842e-06 7.96678e-05 0.037475)
(2.25567e-06 6.88256e-05 0.0375084)
(2.20048e-06 6.88429e-05 0.0375142)
(2.25322e-06 5.26413e-05 0.0375306)
(2.21073e-06 5.26486e-05 0.0375364)
(2.24844e-06 3.29081e-05 0.0375439)
(2.21834e-06 3.29109e-05 0.0375496)
(2.24527e-06 1.11824e-05 0.0375502)
(2.22236e-06 1.11831e-05 0.037556)
(2.24528e-06 -1.11831e-05 0.0375502)
(2.22236e-06 -1.11838e-05 0.037556)
(2.24844e-06 -3.29088e-05 0.0375439)
(2.21833e-06 -3.29116e-05 0.0375496)
(2.25323e-06 -5.2642e-05 0.0375306)
(2.21072e-06 -5.26493e-05 0.0375364)
(2.25569e-06 -6.88262e-05 0.0375084)
(2.20048e-06 -6.88436e-05 0.0375142)
(2.24806e-06 -7.96293e-05 0.0374693)
(2.18841e-06 -7.96685e-05 0.037475)
(2.21647e-06 -8.29952e-05 0.0373826)
(2.17343e-06 -8.30792e-05 0.0373883)
(2.12325e-06 -7.69227e-05 0.0371313)
(2.16093e-06 -7.70909e-05 0.0371369)
(1.8541e-06 -6.03174e-05 0.0362744)
(2.19914e-06 -6.06121e-05 0.0362797)
(1.41342e-06 -3.55531e-05 0.0331558)
(2.17816e-06 -3.59299e-05 0.0331605)
(1.40947e-07 -7.47838e-06 0.0215806)
(2.29285e-06 -8.12654e-06 0.0215837)
(1.37595e-06 1.12644e-05 0.0215523)
(5.02304e-06 1.29466e-05 0.0215604)
(4.00329e-06 5.3662e-05 0.0331197)
(5.56817e-06 5.45824e-05 0.033132)
(4.90562e-06 8.85233e-05 0.0362458)
(5.89212e-06 8.92124e-05 0.0362597)
(5.41154e-06 0.000109915 0.0371149)
(5.96466e-06 0.000110294 0.0371294)
(5.57533e-06 0.000115661 0.0373779)
(6.04923e-06 0.000115844 0.0373927)
(5.61987e-06 0.000108561 0.0374743)
(6.10576e-06 0.000108644 0.0374891)
(5.62345e-06 9.2156e-05 0.0375205)
(6.14107e-06 9.21926e-05 0.0375353)
(5.61346e-06 6.95265e-05 0.0375474)
(6.16469e-06 6.95423e-05 0.0375623)
(5.60257e-06 4.30659e-05 0.0375636)
(6.17972e-06 4.30724e-05 0.0375784)
(5.59623e-06 1.45668e-05 0.0375713)
(6.18706e-06 1.45686e-05 0.0375861)
(5.59623e-06 -1.45675e-05 0.0375713)
(6.18706e-06 -1.45693e-05 0.0375861)
(5.60257e-06 -4.30666e-05 0.0375636)
(6.17972e-06 -4.30731e-05 0.0375784)
(5.61347e-06 -6.95272e-05 0.0375474)
(6.16469e-06 -6.9543e-05 0.0375623)
(5.62347e-06 -9.21567e-05 0.0375205)
(6.14106e-06 -9.21933e-05 0.0375353)
(5.6199e-06 -0.000108561 0.0374743)
(6.10576e-06 -0.000108644 0.0374891)
(5.57537e-06 -0.000115661 0.0373779)
(6.04921e-06 -0.000115844 0.0373927)
(5.41159e-06 -0.000109915 0.0371149)
(5.96464e-06 -0.000110295 0.0371294)
(4.90568e-06 -8.85238e-05 0.0362458)
(5.8921e-06 -8.92129e-05 0.0362597)
(4.00335e-06 -5.36624e-05 0.0331197)
(5.56812e-06 -5.45828e-05 0.033132)
(1.37596e-06 -1.12646e-05 0.0215523)
(5.023e-06 -1.29468e-05 0.0215604)
(5.26397e-06 1.7469e-05 0.0215051)
(1.25435e-05 2.17733e-05 0.0215266)
(1.13691e-05 8.35472e-05 0.0330615)
(1.61231e-05 8.58959e-05 0.0330944)
(1.33658e-05 0.000132309 0.036201)
(1.78256e-05 0.000133957 0.0362379)
(1.43615e-05 0.000158353 0.0370888)
(1.84384e-05 0.000159229 0.0371272)
(1.46587e-05 0.000161237 0.0373685)
(1.8775e-05 0.000161653 0.0374074)
(1.47223e-05 0.000147154 0.0374772)
(1.8944e-05 0.000147348 0.0375162)
(1.47161e-05 0.000122129 0.0375316)
(1.90282e-05 0.000122223 0.0375707)
(1.46928e-05 9.05944e-05 0.0375637)
(1.90732e-05 9.06414e-05 0.0376028)
(1.46722e-05 5.54887e-05 0.0375827)
(1.90974e-05 5.55114e-05 0.0376218)
(1.46612e-05 1.8664e-05 0.0375917)
(1.91081e-05 1.86709e-05 0.0376307)
(1.46612e-05 -1.86646e-05 0.0375917)
(1.91081e-05 -1.86715e-05 0.0376307)
(1.46722e-05 -5.54893e-05 0.0375827)
(1.90974e-05 -5.55121e-05 0.0376218)
(1.46928e-05 -9.0595e-05 0.0375637)
(1.90732e-05 -9.06421e-05 0.0376028)
(1.47162e-05 -0.00012213 0.0375316)
(1.90282e-05 -0.000122223 0.0375707)
(1.47224e-05 -0.000147154 0.0374772)
(1.8944e-05 -0.000147349 0.0375162)
(1.46587e-05 -0.000161238 0.0373685)
(1.8775e-05 -0.000161653 0.0374074)
(1.43615e-05 -0.000158354 0.0370888)
(1.84384e-05 -0.000159229 0.0371272)
(1.33659e-05 -0.000132309 0.036201)
(1.78255e-05 -0.000133958 0.0362379)
(1.13692e-05 -8.35476e-05 0.0330615)
(1.61231e-05 -8.58963e-05 0.0330944)
(5.264e-06 -1.74692e-05 0.0215051)
(1.25435e-05 -2.17734e-05 0.0215266)
(1.79117e-05 2.90851e-05 0.0214188)
(3.38932e-05 4.0949e-05 0.0214718)
(3.42302e-05 0.000134978 0.0329587)
(4.90215e-05 0.000141308 0.0330398)
(3.95429e-05 0.00020209 0.0361211)
(5.59628e-05 0.000206287 0.0362115)
(4.18461e-05 0.000230327 0.0370377)
(5.8653e-05 0.00023253 0.0371312)
(4.24883e-05 0.00022478 0.03734)
(5.9811e-05 0.000225877 0.0374345)
(4.26079e-05 0.000198037 0.0374636)
(6.02811e-05 0.000198623 0.0375583)
(4.2589e-05 0.000159846 0.0375267)
(6.04666e-05 0.000160188 0.0376215)
(4.25439e-05 0.000116159 0.0375635)
(6.05409e-05 0.000116366 0.0376582)
(4.25078e-05 7.01912e-05 0.0375847)
(6.05704e-05 7.03052e-05 0.0376794)
(4.24893e-05 2.34516e-05 0.0375945)
(6.05806e-05 2.34883e-05 0.0376892)
(4.24893e-05 -2.34522e-05 0.0375945)
(6.05806e-05 -2.34889e-05 0.0376892)
(4.25078e-05 -7.01918e-05 0.0375847)
(6.05704e-05 -7.03058e-05 0.0376794)
(4.25439e-05 -0.00011616 0.0375635)
(6.05409e-05 -0.000116367 0.0376582)
(4.2589e-05 -0.000159847 0.0375267)
(6.04666e-05 -0.000160189 0.0376215)
(4.26079e-05 -0.000198037 0.0374636)
(6.02811e-05 -0.000198624 0.0375583)
(4.24884e-05 -0.00022478 0.03734)
(5.9811e-05 -0.000225878 0.0374345)
(4.18461e-05 -0.000230327 0.0370377)
(5.86529e-05 -0.000232531 0.0371312)
(3.9543e-05 -0.000202091 0.0361211)
(5.59628e-05 -0.000206288 0.0362115)
(3.42302e-05 -0.000134979 0.0329587)
(4.90215e-05 -0.000141309 0.0330398)
(1.79117e-05 -2.90853e-05 0.0214188)
(3.38932e-05 -4.09492e-05 0.0214718)
(4.93838e-05 5.00405e-05 0.0212683)
(0.000100699 9.00136e-05 0.021395)
(9.06571e-05 0.000225877 0.0327927)
(0.000163031 0.000240096 0.0329875)
(0.000104278 0.000315217 0.0359979)
(0.000188816 0.000324909 0.0362109)
(0.000109745 0.000338343 0.0369587)
(0.000198847 0.00034423 0.0371776)
(0.000111144 0.000313496 0.0372909)
(0.000202785 0.000317103 0.0375114)
(0.000111355 0.000264635 0.0374307)
(0.00020419 0.000267052 0.0376515)
(0.0001113 0.000206605 0.0375012)
(0.000204643 0.000208295 0.037722)
(0.000111212 0.00014654 0.0375406)
(0.000204768 0.00014768 0.0377612)
(0.000111147 8.71614e-05 0.0375623)
(0.000204789 8.78251e-05 0.0377829)
(0.000111116 2.88959e-05 0.0375721)
(0.000204786 2.91142e-05 0.0377927)
(0.000111116 -2.88964e-05 0.0375721)
(0.000204786 -2.91147e-05 0.0377927)
(0.000111147 -8.71619e-05 0.0375623)
(0.000204789 -8.78256e-05 0.0377829)
(0.000111212 -0.000146541 0.0375406)
(0.000204768 -0.000147681 0.0377612)
(0.0001113 -0.000206605 0.0375012)
(0.000204643 -0.000208296 0.037722)
(0.000111355 -0.000264635 0.0374307)
(0.00020419 -0.000267053 0.0376515)
(0.000111144 -0.000313496 0.0372909)
(0.000202785 -0.000317104 0.0375114)
(0.000109745 -0.000338343 0.0369587)
(0.000198847 -0.00034423 0.0371776)
(0.000104278 -0.000315218 0.0359979)
(0.000188816 -0.00032491 0.0362109)
(9.06571e-05 -0.000225877 0.0327927)
(0.000163031 -0.000240097 0.0329875)
(4.93838e-05 -5.00408e-05 0.0212683)
(0.000100699 -9.00138e-05 0.021395)
(0.000104921 6.43861e-05 0.0209919)
(0.000478177 0.000171792 0.0215039)
(0.000193725 0.000402281 0.032516)
(0.000856717 0.000421219 0.0333551)
(0.000215353 0.000509012 0.0358183)
(0.00099736 0.000528031 0.036752)
(0.000223752 0.00050587 0.0368523)
(0.00104883 0.000524939 0.0378177)
(0.000225454 0.000440247 0.0372221)
(0.00106754 0.000456222 0.0381974)
(0.000225434 0.00035352 0.0373761)
(0.00107361 0.000366201 0.0383539)
(0.000225204 0.00026573 0.0374491)
(0.00107521 0.000275322 0.0384272)
(0.000225026 0.000183453 0.0374864)
(0.0010754 0.000190137 0.0384642)
(0.000224922 0.000107247 0.0375054)
(0.00107525 0.000111183 0.0384829)
(0.000224876 3.52567e-05 0.0375134)
(0.00107511 3.65554e-05 0.0384909)
(0.000224876 -3.52571e-05 0.0375134)
(0.00107511 -3.65558e-05 0.0384909)
(0.000224922 -0.000107248 0.0375054)
(0.00107525 -0.000111183 0.0384829)
(0.000225026 -0.000183454 0.0374864)
(0.0010754 -0.000190137 0.0384642)
(0.000225204 -0.000265731 0.0374491)
(0.00107521 -0.000275322 0.0384272)
(0.000225434 -0.000353521 0.0373761)
(0.00107361 -0.000366201 0.0383539)
(0.000225454 -0.000440248 0.0372221)
(0.00106754 -0.000456223 0.0381974)
(0.000223752 -0.000505871 0.0368523)
(0.00104883 -0.00052494 0.0378177)
(0.000215354 -0.000509013 0.0358183)
(0.00099736 -0.000528032 0.036752)
(0.000193725 -0.000402282 0.032516)
(0.000856717 -0.00042122 0.0333551)
(0.000104921 -6.43864e-05 0.0209919)
(0.000478177 -0.000171792 0.0215039)
(0.000543046 0.000148192 0.0196174)
(0.00285667 0.000451009 0.0212979)
(0.000975366 0.000814339 0.0306766)
(0.0050906 0.000969297 0.0334961)
(0.00108358 0.000882156 0.0339887)
(0.00586935 0.0010127 0.0371742)
(0.00112243 0.000782801 0.0350591)
(0.00613272 0.000900674 0.0383627)
(0.00113459 0.000631027 0.0354388)
(0.00621986 0.000727928 0.038778)
(0.00113762 0.00048023 0.0355864)
(0.00624534 0.000556013 0.0389341)
(0.00113798 0.000347639 0.0356477)
(0.00625029 0.000404119 0.0389959)
(0.00113771 0.000233999 0.0356741)
(0.00624927 0.000272944 0.0390208)
(0.00113739 0.000134687 0.0356852)
(0.00624731 0.000157479 0.0390305)
(0.0011372 4.39525e-05 0.0356893)
(0.00624609 5.14525e-05 0.0390338)
(0.0011372 -4.39527e-05 0.0356893)
(0.00624609 -5.14527e-05 0.0390338)
(0.00113739 -0.000134688 0.0356852)
(0.00624731 -0.000157479 0.0390305)
(0.00113771 -0.000233999 0.0356741)
(0.00624927 -0.000272945 0.0390208)
(0.00113798 -0.000347639 0.0356477)
(0.00625029 -0.000404119 0.0389959)
(0.00113762 -0.00048023 0.0355864)
(0.00624534 -0.000556014 0.0389341)
(0.00113459 -0.000631028 0.0354388)
(0.00621986 -0.00072793 0.038778)
(0.00112243 -0.000782802 0.0350591)
(0.00613272 -0.000900676 0.0383627)
(0.00108358 -0.000882157 0.0339887)
(0.00586935 -0.0010127 0.0371742)
(0.000975367 -0.000814341 0.0306766)
(0.0050906 -0.000969298 0.0334961)
(0.000543046 -0.000148192 0.0196174)
(0.00285666 -0.000451009 0.0212979)
(0.00212733 0.000381273 0.0153736)
(0.0101346 0.000479681 0.0205189)
(0.00356026 0.00131696 0.0246868)
(0.0168793 0.00189256 0.0343405)
(0.00395125 0.0013374 0.0276038)
(0.0191453 0.00201642 0.0388684)
(0.00407649 0.00112298 0.0285492)
(0.0198983 0.00177353 0.0403553)