/*--------------------------------*- C++ -*----------------------------------*\
  =========                 |
  \\      /  F ield         | OpenFOAM: The Open Source CFD Toolbox
   \\    /   O peration     | Website:  https://openfoam.org
    \\  /    A nd           | Version:  6
     \\/     M anipulation  |
\*---------------------------------------------------------------------------*/
FoamFile
{
    version     2.0;
    format      ascii;
    class       surfaceScalarField;
    location    "0.06";
    object      phi;
}
// * * * * * * * * * * * * * * * * * * * * * * * * * * * * * * * * * * * * * //

dimensions      [0 3 -1 0 0 0 0];

internalField   nonuniform List<scalar> 
162000
(
2.47995e-11
4.151e-11
8.91151e-07
1.10108e-10
5.69999e-11
1.99936e-06
2.56369e-10
4.72277e-11
2.80406e-06
4.55532e-10
3.26987e-11
3.43243e-06
6.97346e-10
1.84186e-11
3.94063e-06
9.7327e-10
6.40337e-12
4.35931e-06
1.27607e-09
-2.97646e-12
4.70793e-06
1.59989e-09
-9.95398e-12
4.99999e-06
1.93993e-09
-1.48286e-11
5.24547e-06
2.29213e-09
-1.7952e-11
5.45208e-06
2.65289e-09
-1.96323e-11
5.62579e-06
3.01875e-09
-2.011e-11
5.77142e-06
3.38616e-09
-1.95758e-11
5.89285e-06
3.75124e-09
-1.81741e-11
5.99313e-06
4.10951e-09
-1.60099e-11
6.07474e-06
4.45579e-09
-1.31585e-11
6.13958e-06
4.78395e-09
-9.67619e-12
6.18911e-06
5.08689e-09
-5.60969e-12
6.22432e-06
5.35645e-09
-1.00828e-12
6.24585e-06
5.58349e-09
4.06255e-12
6.25393e-06
5.75801e-09
9.50519e-12
6.24841e-06
5.8695e-09
1.51715e-11
6.2288e-06
5.90737e-09
2.08418e-11
6.19423e-06
5.86163e-09
2.62025e-11
6.1434e-06
5.72368e-09
3.08231e-11
6.07459e-06
5.48745e-09
3.41356e-11
5.98561e-06
5.15056e-09
3.54194e-11
5.8737e-06
4.71559e-09
3.37959e-11
5.7355e-06
4.1913e-09
2.82452e-11
5.56689e-06
3.59366e-09
1.76546e-11
5.36281e-06
2.94638e-09
8.95283e-13
5.11703e-06
2.2807e-09
-2.29884e-11
4.8217e-06
1.63433e-09
-5.44059e-11
4.46673e-06
1.04905e-09
-9.27091e-11
4.03846e-06
5.66608e-10
-1.34725e-10
3.51736e-06
2.23976e-10
-1.72089e-10
2.8725e-06
3.965e-11
-1.8667e-10
2.04705e-06
-1.23647e-10
9.11631e-07
1.01704e-10
8.6677e-11
1.99785e-06
3.62466e-10
1.30682e-10
4.95223e-06
7.76236e-10
1.16124e-10
7.23942e-06
1.31914e-09
8.4055e-11
9.06871e-06
1.96731e-09
4.92711e-11
1.05628e-05
2.70124e-09
1.80692e-11
1.17996e-05
3.50405e-09
-7.44924e-12
1.28318e-05
4.3616e-09
-2.70357e-11
1.36978e-05
5.26199e-09
-4.1111e-11
1.44263e-05
6.19493e-09
-5.03674e-11
1.50396e-05
7.15111e-09
-5.55057e-11
1.55552e-05
8.12159e-09
-5.71375e-11
1.59874e-05
9.09701e-09
-5.57704e-11
1.63476e-05
1.00671e-08
-5.18043e-11
1.66448e-05
1.10203e-08
-4.55431e-11
1.68863e-05
1.19427e-08
-3.72153e-11
1.70779e-05
1.28184e-08
-2.70006e-11
1.72238e-05
1.36286e-08
-1.50581e-11
1.7327e-05
1.4352e-08
-1.56106e-12
1.73894e-05
1.49645e-08
1.32625e-11
1.74117e-05
1.54399e-08
2.90825e-11
1.73935e-05
1.57506e-08
4.54131e-11
1.73334e-05
1.58688e-08
6.15535e-11
1.72287e-05
1.57681e-08
7.65247e-11
1.70757e-05
1.54258e-08
8.90116e-11
1.68694e-05
1.48258e-08
9.73138e-11
1.66031e-05
1.39613e-08
9.93244e-11
1.6269e-05
1.28381e-08
9.25494e-11
1.58569e-05
1.14781e-08
7.42027e-11
1.53548e-05
9.92109e-09
4.14148e-11
1.47479e-05
8.22645e-09
-8.40819e-12
1.40179e-05
6.4723e-09
-7.69284e-11
1.3142e-05
4.75231e-09
-1.63734e-10
1.2091e-05
3.1696e-09
-2.64522e-10
1.08265e-05
1.82695e-09
-3.6756e-10
9.29507e-06
8.1912e-10
-4.47575e-10
7.41841e-06
2.13092e-10
-4.54623e-10
5.07244e-06
-2.74537e-10
2.0449e-06
1.74243e-10
1.15896e-10
2.79616e-06
5.97075e-10
1.86501e-10
7.22317e-06
1.24682e-09
1.74291e-10
1.07842e-05
2.08292e-09
1.30701e-10
1.36921e-05
3.07006e-09
7.87075e-11
1.60948e-05
4.18088e-09
2.94512e-11
1.80968e-05
5.39165e-09
-1.23915e-11
1.97745e-05
6.68247e-09
-4.54039e-11
2.11856e-05
8.03641e-09
-6.96672e-11
2.23745e-05
9.43866e-09
-8.5944e-11
2.33763e-05
1.08757e-08
-9.51869e-11
2.42191e-05
1.23345e-08
-9.83184e-11
2.49257e-05
1.38013e-08
-9.61484e-11
2.55144e-05
1.52609e-08
-8.9341e-11
2.6e-05
1.66961e-08
-7.84197e-11
2.63944e-05
1.80864e-08
-6.37935e-11
2.67069e-05
1.94082e-08
-4.57966e-11
2.69444e-05
2.06335e-08
-2.47379e-11
2.71119e-05
2.17304e-08
-9.6051e-13
2.72124e-05
2.26633e-08
2.50859e-11
2.72471e-05
2.33929e-08
5.27625e-11
2.72152e-05
2.3878e-08
8.1147e-11
2.71148e-05
2.40768e-08
1.08932e-10
2.69414e-05
2.39496e-08
1.34322e-10
2.66887e-05
2.34623e-08
1.54939e-10
2.63488e-05
2.25898e-08
1.67761e-10
2.59111e-05
2.13209e-08
1.6911e-10
2.53624e-05
1.96629e-08
1.54738e-10
2.46867e-05
1.76463e-08
1.20064e-10
2.38644e-05
1.5328e-08
6.06269e-11
2.28717e-05
1.27931e-08
-2.71412e-11
2.16795e-05
1.01543e-08
-1.4464e-10
2.0252e-05
7.54674e-09
-2.8904e-10
1.85439e-05
5.12013e-09
-4.50136e-10
1.64972e-05
3.02518e-09
-6.05114e-10
1.40351e-05
1.408e-09
-7.10366e-10
1.10523e-05
3.90587e-10
-6.88449e-10
7.3998e-06
-3.91126e-10
2.86259e-06
2.34668e-10
1.27005e-10
3.4098e-06
7.94325e-10
2.14032e-10
9.01116e-06
1.64252e-09
2.07334e-10
1.36341e-05
2.7225e-09
1.59461e-10
1.74734e-05
3.988e-09
9.76263e-11
2.06803e-05
5.40475e-09
3.63792e-11
2.33715e-05
6.94373e-09
-1.72736e-11
2.56374e-05
8.58072e-09
-6.0571e-11
2.75489e-05
1.02952e-08
-9.29795e-11
2.91627e-05
1.20693e-08
-1.15062e-10
3.05246e-05
1.38865e-08
-1.2781e-10
3.16712e-05
1.57309e-08
-1.32301e-10
3.26331e-05
1.75856e-08
-1.29539e-10
3.34344e-05
1.94319e-08
-1.20379e-10
3.40954e-05
2.12484e-08
-1.05519e-10
3.46321e-05
2.30099e-08
-8.55205e-11
3.50569e-05
2.46864e-08
-6.08586e-11
3.53793e-05
2.62436e-08
-3.19855e-11
3.5606e-05
2.76414e-08
5.88346e-13
3.57411e-05
2.88348e-08
3.61964e-11
3.57864e-05
2.97746e-08
7.3903e-11
3.57411e-05
3.04088e-08
1.12376e-10
3.56018e-05
3.06844e-08
1.49751e-10
3.53629e-05
3.05511e-08
1.83499e-10
3.50162e-05
2.9965e-08
2.10313e-10
3.45505e-05
2.88934e-08
2.26042e-10
3.39518e-05
2.73204e-08
2.25718e-10
3.32021e-05
2.52531e-08
2.03722e-10
3.22801e-05
2.27271e-08
1.54177e-10
3.11595e-05
1.98109e-08
7.16709e-11
2.98088e-05
1.66079e-08
-4.7579e-11
2.81895e-05
1.32562e-08
-2.03894e-10
2.62551e-05
9.92284e-09
-3.91368e-10
2.39483e-05
6.79432e-09
-5.9383e-10
2.11973e-05
4.06224e-09
-7.78904e-10
1.79113e-05
1.92031e-09
-8.89721e-10
1.39735e-05
5.44547e-10
-8.33345e-10
9.2319e-06
-4.53205e-10
3.49091e-06
2.81566e-10
1.22621e-10
3.89145e-06
9.5064e-10
2.13766e-10
1.04286e-05
1.95907e-09
2.12536e-10
1.59197e-05
3.23584e-09
1.66438e-10
2.05399e-05
4.72456e-09
1.02809e-10
2.44351e-05
6.38466e-09
3.74792e-11
2.77255e-05
8.18254e-09
-2.11905e-11
3.05086e-05
1.00906e-08
-6.94306e-11
3.2864e-05
1.20858e-08
-1.06082e-10
3.48571e-05
1.4148e-08
-1.31368e-10
3.65416e-05
1.62588e-08
-1.46145e-10
3.79612e-05
1.84004e-08
-1.5148e-10
3.91527e-05
2.05538e-08
-1.48428e-10
4.0146e-05
2.2698e-08
-1.37923e-10
4.09653e-05
2.48086e-08
-1.20749e-10
4.16301e-05
2.68569e-08
-9.7556e-11
4.21561e-05
2.88089e-08
-6.891e-11
4.25548e-05
3.06249e-08
-3.53619e-11
4.28346e-05
3.22589e-08
2.45912e-12
4.30006e-05
3.36591e-08
4.37325e-11
4.30549e-05
3.47686e-08
8.73165e-11
4.29962e-05
3.55269e-08
1.31602e-10
4.28211e-05
3.58725e-08
1.74362e-10
4.25223e-05
3.57463e-08
2.12602e-10
4.20897e-05
3.5096e-08
2.42449e-10
4.15095e-05
3.38825e-08
2.59091e-10
4.07644e-05
3.20854e-08
2.56852e-10
3.98328e-05
2.97103e-08
2.29431e-10
3.8688e-05
2.67951e-08
1.70419e-10
3.72987e-05
2.3416e-08
7.42188e-11
3.56266e-05
1.96895e-08
-6.25218e-11
3.3626e-05
1.57725e-08
-2.38755e-10
3.1242e-05
1.18566e-08
-4.45941e-10
2.84084e-05
8.15884e-09
-6.63796e-10
2.5045e-05
4.9058e-09
-8.54557e-10
2.10541e-05
2.3337e-09
-9.55939e-10
1.63156e-05
6.66292e-10
-8.72753e-10
1.06836e-05
-4.59358e-10
3.98374e-06
3.16357e-10
1.07281e-10
4.26827e-06
1.06911e-09
1.91739e-10
1.15427e-05
2.20189e-09
1.94258e-10
1.77286e-05
3.63206e-09
1.54029e-10
2.29843e-05
5.29449e-09
9.54751e-11
2.74489e-05
7.14296e-09
3.36454e-11
3.12411e-05
9.13992e-09
-2.29859e-11
3.4462e-05
1.1255e-08
-7.02526e-11
3.71962e-05
1.34632e-08
-1.06592e-10
3.95149e-05
1.57429e-08
-1.31908e-10
4.14773e-05
1.80744e-08
-1.46838e-10
4.31331e-05
2.04388e-08
-1.52311e-10
4.45237e-05
2.28159e-08
-1.49304e-10
4.56834e-05
2.5183e-08
-1.38712e-10
4.664e-05
2.7514e-08
-1.21309e-10
4.74162e-05
2.97779e-08
-9.77529e-11
4.80301e-05
3.19376e-08
-6.86255e-11
4.8495e-05
3.39499e-08
-3.45076e-11
4.88207e-05
3.57644e-08
3.93211e-12
4.90131e-05
3.73244e-08
4.58233e-11
4.90746e-05
3.8567e-08
8.99617e-11
4.90042e-05
3.94255e-08
1.34665e-10
4.87973e-05
3.98316e-08
1.7762e-10
4.84456e-05
3.97192e-08
2.15745e-10
4.79375e-05
3.90297e-08
2.45083e-10
4.72571e-05
3.7718e-08
2.60766e-10
4.63843e-05
3.57594e-08
2.57115e-10
4.52941e-05
3.31572e-08
2.27925e-10
4.3956e-05
2.99508e-08
1.67043e-10
4.23339e-05
2.62206e-08
6.93505e-11
4.03844e-05
2.20924e-08
-6.77318e-11
3.80561e-05
1.77372e-08
-2.4206e-10
3.52883e-05
1.33664e-08
-4.4377e-10
3.20088e-05
9.22131e-09
-6.51363e-10
2.81324e-05
5.55831e-09
-8.26847e-10
2.35585e-05
2.64933e-09
-9.1044e-10
1.81684e-05
7.57048e-10
-8.1545e-10
1.18242e-05
-4.18814e-10
4.36898e-06
3.41079e-10
8.48876e-11
4.55618e-06
1.15503e-09
1.5446e-10
1.23962e-05
2.38018e-09
1.58575e-10
1.91199e-05
3.92508e-09
1.2677e-10
2.48734e-05
5.71753e-09
7.8584e-11
2.97889e-05
7.70656e-09
2.66189e-11
3.39829e-05
9.8513e-09
-2.16924e-11
3.75573e-05
1.21191e-08
-6.24765e-11
4.05994e-05
1.44835e-08
-9.41152e-11
4.31838e-05
1.69217e-08
-1.16318e-10
4.53744e-05
1.94135e-08
-1.29497e-10
4.72245e-05
2.19392e-08
-1.34372e-10
4.87793e-05
2.44779e-08
-1.31744e-10
5.00763e-05
2.7006e-08
-1.22373e-10
5.11465e-05
2.94964e-08
-1.06926e-10
5.20149e-05
3.19165e-08
-8.59835e-11
5.27013e-05
3.42274e-08
-6.00704e-11
5.32208e-05
3.63831e-08
-2.97147e-11
5.35842e-05
3.83306e-08
4.46943e-12
5.37984e-05
4.00095e-08
4.16836e-11
5.38656e-05
4.13528e-08
8.08284e-11
5.3785e-05
4.22889e-08
1.20376e-10
5.35514e-05
4.27445e-08
1.5824e-10
5.31556e-05
4.26483e-08
1.91655e-10
5.25847e-05
4.19363e-08
2.17094e-10
5.18211e-05
4.05586e-08
2.30251e-10
5.08421e-05
3.8487e-08
2.26144e-10
4.96205e-05
3.57226e-08
1.99404e-10
4.81228e-05
3.23044e-08
1.44811e-10
4.63087e-05
2.83158e-08
5.82078e-11
4.41315e-05
2.38892e-08
-6.21505e-11
4.15354e-05
1.9206e-08
-2.1367e-10
3.84555e-05
1.44926e-08
-3.86871e-10
3.48159e-05
1.00102e-08
-5.62211e-10
3.05289e-05
6.03873e-09
-7.06411e-10
2.54932e-05
2.87835e-09
-7.68891e-10
1.95928e-05
8.21251e-10
-6.79145e-10
1.26973e-05
-3.4263e-10
4.66305e-06
3.57703e-10
5.83478e-11
4.76509e-06
1.21391e-09
1.07465e-10
1.30163e-05
2.50372e-09
1.11297e-10
2.01335e-05
4.12947e-09
8.94248e-11
2.6254e-05
6.01377e-09
5.53472e-11
3.15045e-05
8.10196e-09
1.80562e-11
3.59994e-05
1.03505e-08
-1.69747e-11
3.98401e-05
1.27251e-08
-4.67839e-11
4.31155e-05
1.51979e-08
-7.00549e-11
4.59024e-05
1.77458e-08
-8.64688e-11
4.8267e-05
2.0348e-08
-9.62533e-11
5.02659e-05
2.29844e-08
-9.98913e-11
5.19466e-05
2.56338e-08
-9.79449e-11
5.33491e-05
2.82722e-08
-9.09598e-11
5.45066e-05
3.08719e-08
-7.94259e-11
5.54456e-05
3.33992e-08
-6.37736e-11
5.61879e-05
3.58142e-08
-4.43973e-11
5.67494e-05
3.80696e-08
-2.16983e-11
5.71419e-05
4.01101e-08
3.8543e-12
5.73726e-05
4.18727e-08
3.16511e-11
5.74441e-05
4.32877e-08
6.08554e-11
5.73554e-05
4.42804e-08
9.03095e-11
5.7101e-05
4.47735e-08
1.18439e-10
5.66711e-05
4.46921e-08
1.43164e-10
5.60516e-05
4.39684e-08
1.61848e-10
5.52236e-05
4.25486e-08
1.71284e-10
5.4163e-05
4.04015e-08
1.67791e-10
5.28403e-05
3.75262e-08
1.47436e-10
5.12196e-05
3.39615e-08
1.06455e-10
4.92586e-05
2.97924e-08
4.19471e-11
4.69074e-05
2.51556e-08
-4.71061e-11
4.41073e-05
2.02401e-08
-1.58423e-10
4.07908e-05
1.52833e-08
-2.84585e-10
3.68799e-05
1.05611e-08
-4.10828e-10
3.22855e-05
6.37129e-09
-5.1262e-10
2.69066e-05
3.03463e-09
-5.53573e-10
2.06301e-05
8.64001e-10
-4.84343e-10
1.33314e-05
-2.41383e-10
4.8763e-06
3.6785e-10
2.96279e-11
4.90129e-06
1.25039e-09
5.49538e-11
1.34211e-05
2.58096e-09
5.7198e-11
2.0796e-05
4.258e-09
4.60809e-11
2.7158e-05
6.20066e-09
2.84733e-11
3.26302e-05
8.3518e-09
9.03956e-12
3.73252e-05
1.06661e-08
-9.32818e-12
4.1344e-05
1.3108e-08
-2.50317e-11
4.47759e-05
1.5649e-08
-3.73368e-11
4.7699e-05
1.82656e-08
-4.60419e-11
5.01813e-05
2.09365e-08
-5.12439e-11
5.22806e-05
2.36417e-08
-5.31827e-11
5.40465e-05
2.63597e-08
-5.21471e-11
5.55205e-05
2.90667e-08
-4.84216e-11
5.6737e-05
3.17342e-08
-4.22644e-11
5.77242e-05
3.43282e-08
-3.39044e-11
5.85043e-05
3.68082e-08
-2.35527e-11
5.90944e-05
3.9126e-08
-1.1426e-11
5.95065e-05
4.12249e-08
2.22225e-12
5.97483e-05
4.30406e-08
1.70625e-11
5.98226e-05
4.45017e-08
3.26432e-11
5.97284e-05
4.55311e-08
4.83411e-11
5.94598e-05
4.60495e-08
6.33105e-11
5.90066e-05
4.59792e-08
7.64377e-11
5.8354e-05
4.52499e-08
8.63133e-11
5.74823e-05
4.38055e-08
9.12303e-11
5.6366e-05
4.16125e-08
8.92359e-11
5.49748e-05
3.86686e-08
7.82555e-11
5.3271e-05
3.50121e-08
5.63239e-11
5.12105e-05
3.07289e-08
2.19572e-11
4.87418e-05
2.59584e-08
-2.52994e-11
4.58044e-05
2.08947e-08
-8.4122e-11
4.23291e-05
1.57825e-08
-1.50451e-10
3.82369e-05
1.09073e-08
-2.16363e-10
3.34379e-05
6.57869e-09
-2.68881e-10
2.7832e-05
3.13092e-09
-2.89028e-10
2.13078e-05
8.89789e-10
-2.51489e-10
1.37451e-05
-1.24443e-10
5.01525e-06
3.72639e-10
-8.125e-16
4.96853e-06
1.26778e-09
-1.5e-15
1.36209e-05
2.618e-09
-1.5e-15
2.11234e-05
4.31985e-09
-1.1875e-15
2.76053e-05
6.2908e-09
-5e-16
3.3188e-05
8.47245e-09
4e-16
3.79828e-05
1.08186e-08
1.4125e-15
4.20908e-05
1.3293e-08
2.4125e-15
4.5601e-05
1.58668e-08
3.3625e-15
4.85926e-05
1.85163e-08
4.2125e-15
5.1134e-05
2.12202e-08
4.875e-15
5.3284e-05
2.39583e-08
5.25e-15
5.5093e-05
2.67091e-08
5.5e-15
5.66031e-05
2.94488e-08
5.35e-15
5.78495e-05
3.21486e-08
4.9375e-15
5.88609e-05
3.47746e-08
4.1875e-15
5.96601e-05
3.72858e-08
3.125e-15
6.02645e-05
3.96334e-08
1.725e-15
6.06865e-05
4.17605e-08
1.75e-17
6.09339e-05
4.36019e-08
-1.975e-15
6.10096e-05
4.50853e-08
-4.225e-15
6.09125e-05
4.61329e-08
-6.625e-15
6.06368e-05
4.6664e-08
-9.25e-15
6.01719e-05
4.65996e-08
-1.2e-14
5.95025e-05
4.58683e-08
-1.45e-14
5.86085e-05
4.44125e-08
-1.7125e-14
5.74643e-05
4.21978e-08
-1.925e-14
5.60383e-05
3.92211e-08
-2.1125e-14
5.42925e-05
3.55204e-08
-2.25e-14
5.2182e-05
3.1182e-08
-2.32625e-14
4.96539e-05
2.63468e-08
-2.33e-14
4.66475e-05
2.12111e-08
-2.25e-14
4.30928e-05
1.60232e-08
-2.075e-14
3.89096e-05
1.10737e-08
-1.825e-14
3.40086e-05
6.67789e-09
-1.475e-14
2.82896e-05
3.1766e-09
-1.075e-14
2.16427e-05
9.01846e-10
-6.25e-15
1.39493e-05
-1.875e-15
5.08381e-06
3.72638e-10
-2.96295e-11
4.96852e-06
1.26777e-09
-5.49567e-11
1.36209e-05
2.618e-09
-5.72011e-11
2.11234e-05
4.31985e-09
-4.60834e-11
2.76052e-05
6.2908e-09
-2.84744e-11
3.3188e-05
8.47244e-09
-9.03886e-12
3.79827e-05
1.08185e-08
9.33088e-12
4.20908e-05
1.32929e-08
2.50363e-11
4.5601e-05
1.58668e-08
3.73432e-11
4.85926e-05
1.85163e-08
4.60501e-11
5.1134e-05
2.12202e-08
5.12534e-11
5.3284e-05
2.39582e-08
5.31931e-11
5.5093e-05
2.67091e-08
5.21578e-11
5.66031e-05
2.94487e-08
4.84321e-11
5.78495e-05
3.21486e-08
4.22741e-11
5.88609e-05
3.47746e-08
3.39126e-11
5.96601e-05
3.72857e-08
2.35588e-11
6.02645e-05
3.96332e-08
1.14294e-11
6.06865e-05
4.17604e-08
-2.22222e-12
6.09339e-05
4.36019e-08
-1.70664e-11
6.10096e-05
4.50852e-08
-3.26515e-11
6.09125e-05
4.61329e-08
-4.83541e-11
6.06368e-05
4.6664e-08
-6.33286e-11
6.01719e-05
4.65996e-08
-7.64612e-11
5.95025e-05
4.58682e-08
-8.63418e-11
5.86085e-05
4.44125e-08
-9.12638e-11
5.74643e-05
4.21977e-08
-8.92738e-11
5.60383e-05
3.92211e-08
-7.8297e-11
5.42925e-05
3.55204e-08
-5.6368e-11
5.2182e-05
3.1182e-08
-2.20029e-11
4.96539e-05
2.63468e-08
2.52534e-11
4.66475e-05
2.12111e-08
8.40778e-11
4.30928e-05
1.60232e-08
1.5041e-10
3.89096e-05
1.10737e-08
2.16326e-10
3.40086e-05
6.67788e-09
2.68853e-10
2.82896e-05
3.1766e-09
2.89008e-10
2.16427e-05
9.01846e-10
2.51476e-10
1.39493e-05
1.2444e-10
5.08381e-06
3.6785e-10
-5.83494e-11
4.90129e-06
1.25038e-09
-1.07467e-10
1.34211e-05
2.58096e-09
-1.113e-10
2.0796e-05
4.258e-09
-8.94274e-11
2.7158e-05
6.20066e-09
-5.53486e-11
3.26302e-05
8.35179e-09
-1.80558e-11
3.73252e-05
1.06661e-08
1.6977e-11
4.1344e-05
1.3108e-08
4.6788e-11
4.47759e-05
1.5649e-08
7.00607e-11
4.7699e-05
1.82655e-08
8.64763e-11
5.01813e-05
2.09365e-08
9.6262e-11
5.22806e-05
2.36417e-08
9.99009e-11
5.40465e-05
2.63597e-08
9.79546e-11
5.55205e-05
2.90667e-08
9.09695e-11
5.6737e-05
3.17342e-08
7.94349e-11
5.77242e-05
3.43282e-08
6.37813e-11
5.85043e-05
3.68082e-08
4.44029e-11
5.90944e-05
3.9126e-08
2.17015e-11
5.95065e-05
4.12249e-08
-3.85431e-12
5.97483e-05
4.30406e-08
-3.16548e-11
5.98226e-05
4.45016e-08
-6.08632e-11
5.97284e-05
4.5531e-08
-9.03219e-11
5.94598e-05
4.60495e-08
-1.18456e-10
5.90066e-05
4.59792e-08
-1.43186e-10
5.8354e-05
4.52499e-08
-1.61875e-10
5.74823e-05
4.38055e-08
-1.71316e-10
5.6366e-05
4.16125e-08
-1.67827e-10
5.49748e-05
3.86686e-08
-1.47475e-10
5.3271e-05
3.50121e-08
-1.06497e-10
5.12105e-05
3.07289e-08
-4.19904e-11
4.87418e-05
2.59584e-08
4.70624e-11
4.58044e-05
2.08947e-08
1.58381e-10
4.23291e-05
1.57825e-08
2.84546e-10
3.82369e-05
1.09073e-08
4.10791e-10
3.34379e-05
6.57869e-09
5.12592e-10
2.7832e-05
3.13092e-09
5.53553e-10
2.13078e-05
8.89788e-10
4.8433e-10
1.3745e-05
2.41379e-10
5.01525e-06
3.57703e-10
-8.48894e-11
4.76509e-06
1.21391e-09
-1.54463e-10
1.30164e-05
2.50372e-09
-1.58579e-10
2.01335e-05
4.12948e-09
-1.26773e-10
2.6254e-05
6.01376e-09
-7.85857e-11
3.15045e-05
8.10194e-09
-2.66187e-11
3.59994e-05
1.03505e-08
2.16942e-11
3.98401e-05
1.27251e-08
6.24799e-11
4.31155e-05
1.51979e-08
9.41202e-11
4.59024e-05
1.77458e-08
1.16325e-10
4.8267e-05
2.0348e-08
1.29504e-10
5.02659e-05
2.29844e-08
1.3438e-10
5.19466e-05
2.56338e-08
1.31753e-10
5.33491e-05
2.82723e-08
1.22381e-10
5.45066e-05
3.08719e-08
1.06933e-10
5.54456e-05
3.33993e-08
8.59901e-11
5.61879e-05
3.58143e-08
6.00753e-11
5.67494e-05
3.80696e-08
2.97175e-11
5.71419e-05
4.011e-08
-4.46949e-12
5.73726e-05
4.18726e-08
-4.16869e-11
5.74441e-05
4.32878e-08
-8.08354e-11
5.73554e-05
4.42804e-08
-1.20387e-10
5.7101e-05
4.47735e-08
-1.58256e-10
5.66711e-05
4.4692e-08
-1.91675e-10
5.60516e-05
4.39683e-08
-2.17119e-10
5.52236e-05
4.25486e-08
-2.3028e-10
5.4163e-05
4.04015e-08
-2.26177e-10
5.28403e-05
3.75263e-08
-1.99439e-10
5.12196e-05
3.39615e-08
-1.44849e-10
4.92586e-05
2.97924e-08
-5.82473e-11
4.69074e-05
2.51556e-08
6.21104e-11
4.41073e-05
2.02401e-08
2.13631e-10
4.07908e-05
1.52833e-08
3.86835e-10
3.68799e-05
1.05611e-08
5.62179e-10
3.22855e-05
6.37129e-09
7.06385e-10
2.69066e-05
3.03463e-09
7.68873e-10
2.06301e-05
8.64e-10
6.79134e-10
1.33314e-05
3.42626e-10
4.8763e-06
3.41077e-10
-1.07283e-10
4.55618e-06
1.15503e-09
-1.91743e-10
1.23962e-05
2.38018e-09
-1.94263e-10
1.91199e-05
3.92506e-09
-1.54033e-10
2.48734e-05
5.7175e-09
-9.54773e-11
2.97889e-05
7.70654e-09
-3.36457e-11
3.39829e-05
9.85128e-09
2.29869e-11
3.75573e-05
1.21191e-08
7.0255e-11
4.05994e-05
1.44834e-08
1.06596e-10
4.31838e-05
1.69217e-08
1.31913e-10
4.53744e-05
1.94135e-08
1.46844e-10
4.72245e-05
2.19391e-08
1.52318e-10
4.87793e-05
2.44777e-08
1.49311e-10
5.00763e-05
2.70059e-08
1.38719e-10
5.11465e-05
2.94963e-08
1.21316e-10
5.20149e-05
3.19163e-08
9.77583e-11
5.27013e-05
3.42271e-08
6.86295e-11
5.32208e-05
3.6383e-08
3.45097e-11
5.35842e-05
3.83306e-08
-3.9323e-12
5.37984e-05
4.00095e-08
-4.58261e-11
5.38656e-05
4.13528e-08
-8.99677e-11
5.3785e-05
4.22889e-08
-1.34674e-10
5.35514e-05
4.27445e-08
-1.77633e-10
5.31556e-05
4.26483e-08
-2.15762e-10
5.25847e-05
4.19363e-08
-2.45103e-10
5.18211e-05
4.05586e-08
-2.60791e-10
5.08421e-05
3.8487e-08
-2.57142e-10
4.96206e-05
3.57226e-08
-2.27955e-10
4.81228e-05
3.23044e-08
-1.67076e-10
4.63087e-05
2.83158e-08
-6.9385e-11
4.41315e-05
2.38891e-08
6.76965e-11
4.15354e-05
1.9206e-08
2.42026e-10
3.84555e-05
1.44926e-08
4.43738e-10
3.48159e-05
1.00102e-08
6.51334e-10
3.05289e-05
6.03873e-09
8.26824e-10
2.54932e-05
2.87835e-09
9.10425e-10
1.95928e-05
8.21251e-10
8.15441e-10
1.26973e-05
4.18811e-10
4.66305e-06
3.16356e-10
-1.22624e-10
4.26827e-06
1.06911e-09
-2.13772e-10
1.15427e-05
2.20189e-09
-2.12542e-10
1.77286e-05
3.63206e-09
-1.66443e-10
2.29843e-05
5.29449e-09
-1.02811e-10
2.74489e-05
7.14295e-09
-3.74806e-11
3.12411e-05
9.1399e-09
2.11903e-11
3.4462e-05
1.1255e-08
6.94315e-11
3.71962e-05
1.34632e-08
1.06084e-10
3.95149e-05
1.57428e-08
1.31371e-10
4.14772e-05
1.80744e-08
1.46148e-10
4.31331e-05
2.04388e-08
1.51485e-10
4.45237e-05
2.28158e-08
1.48433e-10
4.56834e-05
2.51829e-08
1.37928e-10
4.664e-05
2.7514e-08
1.20753e-10
4.74162e-05
2.97779e-08
9.75599e-11
4.80301e-05
3.19376e-08
6.89129e-11
4.8495e-05
3.39499e-08
3.53631e-11
4.88207e-05
3.57644e-08
-2.45964e-12
4.90131e-05
3.73242e-08
-4.37353e-11
4.90746e-05
3.85669e-08
-8.73217e-11
4.90042e-05
3.94255e-08
-1.3161e-10
4.87972e-05
3.98316e-08
-1.74373e-10
4.84456e-05
3.97192e-08
-2.12617e-10
4.79375e-05
3.90297e-08
-2.42465e-10
4.72571e-05
3.77179e-08
-2.59111e-10
4.63842e-05
3.57591e-08
-2.56875e-10
4.52941e-05
3.31571e-08
-2.29456e-10
4.3956e-05
2.99507e-08
-1.70446e-10
4.23339e-05
2.62205e-08
-7.42473e-11
4.03844e-05
2.20924e-08
6.24925e-11
3.80561e-05
1.77372e-08
2.38725e-10
3.52882e-05
1.33663e-08
4.45914e-10
3.20087e-05
9.2213e-09
6.63771e-10
2.81324e-05
5.55831e-09
8.54539e-10
2.35585e-05
2.64933e-09
9.55928e-10
1.81684e-05
7.57048e-10
8.72746e-10
1.18242e-05
4.59355e-10
4.36897e-06
2.81566e-10
-1.2701e-10
3.89145e-06
9.50639e-10
-2.1404e-10
1.04286e-05
1.95907e-09
-2.07341e-10
1.59197e-05
3.23584e-09
-1.59467e-10
2.05399e-05
4.72455e-09
-9.76304e-11
2.44351e-05
6.38464e-09
-3.63825e-11
2.77255e-05
8.1825e-09
1.72712e-11
3.05086e-05
1.00906e-08
6.05695e-11
3.2864e-05
1.20858e-08
9.29789e-11
3.48571e-05
1.41479e-08
1.15062e-10
3.65416e-05
1.62588e-08
1.27811e-10
3.79613e-05
1.84004e-08
1.32303e-10
3.91528e-05
2.05538e-08
1.29541e-10
4.0146e-05
2.26979e-08
1.20382e-10
4.09653e-05
2.48086e-08
1.05521e-10
4.16301e-05
2.68569e-08
8.55225e-11
4.21561e-05
2.88089e-08
6.08601e-11
4.25548e-05
3.06249e-08
3.1986e-11
4.28346e-05
3.22589e-08
-5.89132e-13
4.30006e-05
3.36591e-08
-3.61988e-11
4.30549e-05
3.47686e-08
-7.39072e-11
4.29962e-05
3.55269e-08
-1.12382e-10
4.28211e-05
3.58725e-08
-1.49759e-10
4.25223e-05
3.57463e-08
-1.8351e-10
4.20897e-05
3.5096e-08
-2.10326e-10
4.15095e-05
3.38825e-08
-2.26057e-10
4.07644e-05
3.20854e-08
-2.25735e-10
3.98328e-05
2.97101e-08
-2.03741e-10
3.8688e-05
2.6795e-08
-1.54198e-10
3.72987e-05
2.34159e-08
-7.1693e-11
3.56266e-05
1.96895e-08
4.75561e-11
3.3626e-05
1.57724e-08
2.03871e-10
3.1242e-05
1.18566e-08
3.91346e-10
2.84084e-05
8.15883e-09
5.9381e-10
2.5045e-05
4.90579e-09
7.7889e-10
2.10541e-05
2.33369e-09
8.89713e-10
1.63156e-05
6.66291e-10
8.3334e-10
1.06836e-05
4.53204e-10
3.98374e-06
2.34669e-10
-1.15905e-10
3.4098e-06
7.94324e-10
-1.86511e-10
9.01116e-06
1.64251e-09
-1.743e-10
1.36341e-05
2.72249e-09
-1.30709e-10
1.74734e-05
3.98799e-09
-7.87142e-11
2.06803e-05
5.40474e-09
-2.94573e-11
2.33715e-05
6.94369e-09
1.23861e-11
2.56374e-05
8.58068e-09
4.53992e-11
2.75489e-05
1.02952e-08
6.96632e-11
2.91628e-05
1.20692e-08
8.5941e-11
3.05246e-05
1.38865e-08
9.51848e-11
3.16713e-05
1.57309e-08
9.83171e-11
3.26331e-05
1.75855e-08
9.61478e-11
3.34344e-05
1.94319e-08
8.93409e-11
3.40954e-05
2.12483e-08
7.842e-11
3.46321e-05
2.30098e-08
6.37939e-11
3.50569e-05
2.46864e-08
4.5797e-11
3.53793e-05
2.62435e-08
2.47379e-11
3.5606e-05
2.76413e-08
9.59836e-13
3.57411e-05
2.88346e-08
-2.50874e-11
3.57864e-05
2.97744e-08
-5.27652e-11
3.57411e-05
3.04085e-08
-8.11513e-11
3.56018e-05
3.06843e-08
-1.08938e-10
3.53629e-05
3.05511e-08
-1.34329e-10
3.50162e-05
2.9965e-08
-1.54948e-10
3.45505e-05
2.88933e-08
-1.67772e-10
3.39518e-05
2.73203e-08
-1.69122e-10
3.32021e-05
2.52531e-08
-1.54752e-10
3.22801e-05
2.27271e-08
-1.2008e-10
3.11595e-05
1.98108e-08
-6.06433e-11
2.98088e-05
1.66079e-08
2.7124e-11
2.81895e-05
1.32562e-08
1.44622e-10
2.62551e-05
9.92281e-09
2.89023e-10
2.39483e-05
6.7943e-09
4.5012e-10
2.11973e-05
4.06223e-09
6.05101e-10
1.79113e-05
1.9203e-09
7.10359e-10
1.39735e-05
5.44545e-10
6.88444e-10
9.2319e-06
3.91125e-10
3.49091e-06
1.74243e-10
-8.66942e-11
2.79616e-06
5.97072e-10
-1.30693e-10
7.22317e-06
1.24681e-09
-1.16133e-10
1.07842e-05
2.08291e-09
-8.40628e-11
1.36921e-05
3.07005e-09
-4.92781e-11
1.60948e-05
4.18085e-09
-1.80756e-11
1.80967e-05
5.39161e-09
7.44344e-12
1.97745e-05
6.68242e-09
2.70306e-11
2.11856e-05
8.03636e-09
4.11062e-11
2.23745e-05
9.43861e-09
5.03635e-11
2.33763e-05
1.08757e-08
5.55026e-11
2.42191e-05
1.23345e-08
5.71351e-11
2.49257e-05
1.38012e-08
5.57686e-11
2.55144e-05
1.52609e-08
5.18031e-11
2.6e-05
1.6696e-08
4.55422e-11
2.63944e-05
1.80864e-08
3.72149e-11
2.67069e-05
1.94081e-08
2.70004e-11
2.69444e-05
2.06334e-08
1.50578e-11
2.71119e-05
2.17303e-08
1.56045e-12
2.72124e-05
2.26632e-08
-1.32636e-11
2.72471e-05
2.33928e-08
-2.90842e-11
2.72152e-05
2.38779e-08
-4.54158e-11
2.71147e-05
2.40767e-08
-6.1557e-11
2.69414e-05
2.39496e-08
-7.65294e-11
2.66887e-05
2.34622e-08
-8.90171e-11
2.63487e-05
2.25897e-08
-9.73205e-11
2.59111e-05
2.13208e-08
-9.93321e-11
2.53624e-05
1.96629e-08
-9.2558e-11
2.46867e-05
1.76463e-08
-7.42121e-11
2.38644e-05
1.53279e-08
-4.14248e-11
2.28717e-05
1.2793e-08
8.39754e-12
2.16795e-05
1.01542e-08
7.69176e-11
2.0252e-05
7.54671e-09
1.63724e-10
1.85439e-05
5.1201e-09
2.64511e-10
1.64972e-05
3.02516e-09
3.67551e-10
1.40351e-05
1.40799e-09
4.4757e-10
1.10523e-05
3.90586e-10
4.54619e-10
7.3998e-06
2.74536e-10
2.86259e-06
1.01709e-10
-4.1532e-11
1.99785e-06
3.62466e-10
-5.70093e-11
4.95223e-06
7.76233e-10
-4.72327e-11
7.23943e-06
1.31913e-09
-3.27024e-11
9.06871e-06
1.96729e-09
-1.84217e-11
1.05628e-05
2.70123e-09
-6.40607e-12
1.17996e-05
3.50404e-09
2.9741e-12
1.28318e-05
4.36158e-09
9.9519e-12
1.36978e-05
5.26196e-09
1.48267e-11
1.44263e-05
6.1949e-09
1.79505e-11
1.50396e-05
7.15109e-09
1.96311e-11
1.55552e-05
8.12155e-09
2.01089e-11
1.59874e-05
9.09696e-09
1.95749e-11
1.63476e-05
1.00671e-08
1.81734e-11
1.66448e-05
1.10202e-08
1.60092e-11
1.68863e-05
1.19426e-08
1.31579e-11
1.70779e-05
1.28183e-08
9.67558e-12
1.72238e-05
1.36285e-08
5.60899e-12
1.7327e-05
1.43519e-08
1.00745e-12
1.73894e-05
1.49644e-08
-4.06356e-12
1.74117e-05
1.54398e-08
-9.50642e-12
1.73935e-05
1.57505e-08
-1.5173e-11
1.73334e-05
1.58687e-08
-2.08436e-11
1.72287e-05
1.5768e-08
-2.62046e-11
1.70757e-05
1.54258e-08
-3.08254e-11
1.68694e-05
1.48258e-08
-3.41382e-11
1.66031e-05
1.39612e-08
-3.54221e-11
1.6269e-05
1.28381e-08
-3.37987e-11
1.58569e-05
1.14781e-08
-2.82481e-11
1.53548e-05
9.92104e-09
-1.76576e-11
1.47479e-05
8.22641e-09
-8.98483e-13
1.40179e-05
6.47228e-09
2.29852e-11
1.3142e-05
4.7523e-09
5.44029e-11
1.2091e-05
3.1696e-09
9.27063e-11
1.08265e-05
1.82694e-09
1.34723e-10
9.29506e-06
8.19116e-10
1.72088e-10
7.41841e-06
2.13093e-10
1.86669e-10
5.07244e-06
1.23647e-10
2.0449e-06
2.48185e-11
8.91151e-07
1.1012e-10
1.99936e-06
2.56372e-10
2.80406e-06
4.55531e-10
3.43243e-06
6.97343e-10
3.94063e-06
9.73263e-10
4.3593e-06
1.27606e-09
4.70793e-06
1.59988e-09
4.99999e-06
1.93992e-09
5.24548e-06
2.29212e-09
5.45208e-06
2.65287e-09
5.62579e-06
3.01873e-09
5.77143e-06
3.38614e-09
5.89285e-06
3.75121e-09
5.99313e-06
4.10949e-09
6.07474e-06
4.45576e-09
6.13958e-06
4.78393e-09
6.18911e-06
5.08686e-09
6.22434e-06
5.35643e-09
6.24585e-06
5.58346e-09
6.25394e-06
5.75799e-09
6.24841e-06
5.86948e-09
6.2288e-06
5.90735e-09
6.19424e-06
5.86159e-09
6.1434e-06
5.72363e-09
6.07459e-06
5.48741e-09
5.98561e-06
5.15054e-09
5.8737e-06
4.71556e-09
5.7355e-06
4.19129e-09
5.56689e-06
3.59366e-09
5.36281e-06
2.94638e-09
5.11703e-06
2.2807e-09
4.8217e-06
1.63433e-09
4.46673e-06
1.04904e-09
4.03846e-06
5.66604e-10
3.51736e-06
2.23975e-10
2.8725e-06
3.965e-11
2.04705e-06
9.11631e-07
5.55739e-11
1.29198e-10
8.90971e-07
2.70762e-10
1.89686e-10
1.99896e-06
6.53816e-10
1.72275e-10
2.80351e-06
1.1886e-09
1.36393e-10
3.43176e-06
1.8496e-09
9.8937e-11
3.93988e-06
2.61382e-09
6.64689e-11
4.35847e-06
3.46105e-09
4.0622e-11
4.70704e-06
4.37422e-09
2.10371e-11
4.99905e-06
5.33891e-09
6.81858e-12
5.2445e-06
6.34257e-09
-3.06688e-12
5.45108e-06
7.37376e-09
-9.54749e-12
5.62476e-06
8.42131e-09
-1.33769e-11
5.77039e-06
9.47365e-09
-1.51496e-11
5.89181e-06
1.05182e-08
-1.53185e-11
5.99209e-06
1.15406e-08
-1.42217e-11
6.07372e-06
1.25247e-08
-1.21124e-11
6.1386e-06
1.34516e-08
-9.18783e-12
6.18819e-06
1.42999e-08
-5.61701e-12
6.22349e-06
1.50454e-08
-1.56995e-12
6.24511e-06
1.56615e-08
2.75092e-12
6.25331e-06
1.61199e-08
7.0751e-12
6.24795e-06
1.63909e-08
1.1023e-11
6.22853e-06
1.64458e-08
1.40589e-11
6.19416e-06
1.62578e-08
1.54375e-11
6.14357e-06
1.58052e-08
1.41481e-11
6.07503e-06
1.50741e-08
8.85876e-12
5.98634e-06
1.4062e-08
-2.12823e-12
5.87471e-06
1.27807e-08
-2.08978e-11
5.7368e-06
1.12606e-08
-4.98879e-11
5.56845e-06
9.55231e-09
-9.17645e-11
5.3646e-06
7.72823e-09
-1.49149e-10
5.11899e-06
5.88128e-09
-2.24033e-10
4.82376e-06
4.12055e-09
-3.16617e-10
4.46879e-06
2.56294e-09
-4.23299e-10
4.04043e-06
1.31952e-09
-5.32307e-10
3.51911e-06
4.77108e-10
-6.15965e-10
2.87394e-06
5.92871e-11
-6.16379e-10
2.04805e-06
-3.79405e-10
9.1206e-07
2.58236e-10
2.82179e-10
1.99745e-06
9.49925e-10
4.54447e-10
4.95125e-06
2.07494e-09
4.41444e-10
7.23803e-06
3.57849e-09
3.66344e-10
9.06698e-06
5.40006e-09
2.76659e-10
1.05608e-05
7.48726e-09
1.9304e-10
1.17973e-05
9.79273e-09
1.23012e-10
1.28294e-05
1.22751e-08
6.7944e-11
1.36953e-05
1.48981e-08
2.66997e-11
1.44237e-05
1.76295e-08
-2.76875e-12
1.50368e-05
2.04388e-08
-2.26092e-11
1.55524e-05
2.3296e-08
-3.47407e-11
1.59846e-05
2.61696e-08
-4.07634e-11
1.63447e-05
2.90254e-08
-4.19523e-11
1.66419e-05
3.18244e-08
-3.92997e-11
1.68835e-05
3.4522e-08
-3.35812e-11
1.70752e-05
3.70673e-08
-2.54276e-11
1.72213e-05
3.9402e-08
-1.54044e-11
1.73247e-05
4.1461e-08
-4.09625e-12
1.73874e-05
4.31726e-08
7.79868e-12
1.741e-05
4.446e-08
1.93624e-11
1.73922e-05
4.5244e-08
2.93368e-11
1.73326e-05
4.54469e-08
3.59881e-11
1.72285e-05
4.49973e-08
3.69629e-11
1.70761e-05
4.38368e-08
2.9144e-11
1.68705e-05
4.19276e-08
8.5295e-12
1.6605e-05
3.92617e-08
-2.98331e-11
1.62716e-05
3.58695e-08
-9.17999e-11
1.58604e-05
3.18279e-08
-1.8388e-10
1.5359e-05
2.72667e-08
-3.12649e-10
1.47527e-05
2.23707e-08
-4.83624e-10
1.40231e-05
1.73756e-08
-6.99224e-10
1.31475e-05
1.25564e-08
-9.55181e-10
1.20965e-05
8.20614e-09
-1.23448e-09
1.08317e-05
4.60371e-09
-1.49647e-09
9.29966e-06
1.98397e-09