/*--------------------------------*- C++ -*----------------------------------*\
  =========                 |
  \\      /  F ield         | OpenFOAM: The Open Source CFD Toolbox
   \\    /   O peration     | Website:  https://openfoam.org
    \\  /    A nd           | Version:  6
     \\/     M anipulation  |
\*---------------------------------------------------------------------------*/
FoamFile
{
    version     2.0;
    format      ascii;
    class       volVectorField;
    location    "0.125";
    object      U;
}
// * * * * * * * * * * * * * * * * * * * * * * * * * * * * * * * * * * * * * //

dimensions      [0 1 -1 0 0 0 0];

internalField   nonuniform List<vector> 
56000
(
(-1.60551e-05 1.99502e-05 0.220363)
(-3.90445e-06 2.63552e-05 0.45931)
(6.6059e-05 2.10745e-05 0.604037)
(0.000158481 1.27378e-05 0.689591)
(0.000223416 3.48757e-06 0.72943)
(0.000222826 -6.76884e-06 0.728567)
(0.000152174 -1.86295e-05 0.687115)
(4.83706e-05 -3.168e-05 0.600358)
(-2.43774e-05 -4.23952e-05 0.455341)
(-2.43259e-05 -3.55121e-05 0.217859)
(-1.03907e-05 0.000102178 0.461601)
(8.77595e-05 0.000170294 1.07125)
(0.000329171 0.000160841 1.47099)
(0.000613364 0.000115629 1.71495)
(0.000809522 5.21706e-05 1.83026)
(0.000821744 -2.35321e-05 1.82838)
(0.000633942 -0.0001075 1.7096)
(0.000329343 -0.000186935 1.46316)
(6.60023e-05 -0.000227319 1.0631)
(-2.15306e-05 -0.000152538 0.456926)
(-3.76836e-06 0.000180979 0.615063)
(0.000188944 0.000323023 1.49233)
(0.000595176 0.000326215 2.0937)
(0.00105276 0.000253398 2.46966)
(0.00136522 0.000137235 2.6496)
(0.00139133 -6.29392e-06 2.64702)
(0.00110443 -0.000163602 2.46233)
(0.000621015 -0.000305451 2.08304)
(0.000173861 -0.000368257 1.48137)
(-1.64186e-05 -0.000236491 0.608962)
(-1.23591e-07 0.000232675 0.719781)
(0.000266773 0.000439409 1.7885)
(0.000804388 0.000467146 2.5419)
(0.00139967 0.000385681 3.02125)
(0.00180341 0.000237942 3.25291)
(0.00183876 4.91198e-05 3.24972)
(0.0014714 -0.000157647 3.01218)
(0.000845196 -0.00034027 2.52876)
(0.000253423 -0.000418472 1.77506)
(-1.46741e-05 -0.000264661 0.712377)
(3.05132e-07 0.000252203 0.79329)
(0.000315299 0.000498499 1.99891)
(0.000945478 0.000552712 2.86419)
(0.00164002 0.000480453 3.42147)
(0.00210927 0.000327923 3.69265)
(0.00214914 0.000125591 3.68886)
(0.00172052 -9.76308e-05 3.41071)
(0.000990016 -0.000294339 2.84865)
(0.000297909 -0.000382162 1.98308)
(-1.69298e-05 -0.000242904 0.78462)
(-1.26109e-06 0.000243841 0.845195)
(0.000339835 0.000499674 2.14821)
(0.00102896 0.000573153 3.09431)
(0.00178943 0.000519745 3.70868)
(0.00230231 0.000382981 4.00904)
(0.00234353 0.000193938 4.00468)
(0.00187131 -1.75086e-05 3.69632)
(0.00107037 -0.000205803 3.07652)
(0.00031548 -0.000297121 2.13017)
(-2.1238e-05 -0.000193819 0.835354)
(-3.67435e-06 0.000212992 0.881418)
(0.000348635 0.000448625 2.25263)
(0.00107191 0.00052834 3.25573)
(0.00187305 0.000495186 3.91069)
(0.00241313 0.0003859 4.23187)
(0.0024541 0.000228145 4.227)
(0.0019528 4.85958e-05 3.89692)
(0.00110753 -0.000114156 3.23595)
(0.00031697 -0.000200756 2.23264)
(-2.60234e-05 -0.000137579 0.870571)
(-6.07858e-06 0.000164739 0.905797)
(0.000349137 0.000353909 2.32296)
(0.00109034 0.00042487 3.36463)
(0.0019148 0.000407904 4.04715)
(0.00247078 0.000330468 4.38249)
(0.00251096 0.000213959 4.37721)
(0.00199153 7.89779e-05 4.03224)
(0.00112026 -4.57737e-05 3.34326)
(0.000311353 -0.000117783 2.30143)
(-3.02372e-05 -8.67894e-05 0.894164)
(-7.924e-06 0.00010394 0.920817)
(0.000346747 0.000226153 2.3663)
(0.00109632 0.000274905 3.43178)
(0.00193297 0.000268081 4.13136)
(0.00249745 0.000222546 4.47545)
(0.00253689 0.000151708 4.46988)
(0.00200719 6.84353e-05 4.11565)
(0.00112201 -9.77333e-06 3.40932)
(0.000304723 -5.76303e-05 2.34372)
(-3.32778e-05 -4.61923e-05 0.908647)
(-8.91006e-06 3.54987e-05 0.927973)
(0.000344784 7.77249e-05 2.38695)
(0.00109751 9.50585e-05 3.46379)
(0.00193926 9.34122e-05 4.17151)
(0.00250738 7.84603e-05 4.51978)
(0.0025464 5.4756e-05 4.51406)
(0.00201212 2.66617e-05 4.15539)
(0.00112099 3.66411e-08 3.44076)
(0.00030062 -1.67522e-05 2.36383)
(-3.48534e-05 -1.42894e-05 0.915533)
(-8.90965e-06 -3.55187e-05 0.927973)
(0.000344786 -7.77498e-05 2.38695)
(0.00109752 -9.50964e-05 3.46379)
(0.00193926 -9.3451e-05 4.17151)
(0.00250739 -7.84932e-05 4.51978)
(0.0025464 -5.47813e-05 4.51406)
(0.00201212 -2.66796e-05 4.15539)
(0.00112099 -4.73456e-08 3.44076)
(0.000300621 1.6751e-05 2.36383)
(-3.48534e-05 1.42837e-05 0.915533)
(-7.92254e-06 -0.000103963 0.920817)
(0.000346755 -0.000226183 2.3663)
(0.00109634 -0.000274947 3.43178)
(0.00193298 -0.000268123 4.13136)
(0.00249747 -0.000222581 4.47545)
(0.0025369 -0.000151734 4.46988)
(0.0020072 -6.84536e-05 4.11565)
(0.00112202 9.76264e-06 3.40932)
(0.000304725 5.76293e-05 2.34372)
(-3.32777e-05 4.61866e-05 0.908647)
(-6.07529e-06 -0.000164769 0.905797)
(0.000349153 -0.00035395 2.32296)
(0.00109036 -0.000424923 3.36463)
(0.00191483 -0.000407952 4.04715)
(0.00247081 -0.000330506 4.38249)
(0.00251097 -0.000213986 4.37721)
(0.00199154 -7.89964e-05 4.03224)
(0.00112027 4.57631e-05 3.34326)
(0.000311355 0.000117782 2.30143)
(-3.02369e-05 8.67839e-05 0.894164)
(-3.66791e-06 -0.000213036 0.881418)
(0.000348667 -0.000448683 2.25263)
(0.00107195 -0.000528408 3.25573)
(0.0018731 -0.000495244 3.91069)
(0.00241318 -0.000385943 4.23187)
(0.00245413 -0.000228174 4.227)
(0.00195282 -4.86145e-05 3.89692)
(0.00110754 0.000114146 3.23595)
(0.000316974 0.000200756 2.23264)
(-2.60231e-05 0.000137574 0.870571)
(-1.24958e-06 -0.000243914 0.845195)
(0.000339899 -0.000499763 2.14821)
(0.00102905 -0.000573246 3.09431)
(0.00178951 -0.000519818 3.70868)
(0.00230237 -0.00038303 4.00904)
(0.00234357 -0.000193969 4.00468)
(0.00187134 1.74903e-05 3.69632)
(0.00107038 0.000205794 3.07652)
(0.000315485 0.000297122 2.13017)
(-2.12376e-05 0.000193814 0.835354)
(3.24729e-07 -0.000252343 0.79329)
(0.000315429 -0.000498648 1.99891)
(0.000945623 -0.000552847 2.86419)
(0.00164014 -0.000480547 3.42147)
(0.00210936 -0.00032798 3.69265)
(0.0021492 -0.000125623 3.68886)
(0.00172055 9.76135e-05 3.41071)
(0.000990034 0.000294332 2.84865)
(0.000297915 0.000382164 1.98308)
(-1.69294e-05 0.0002429 0.78462)
(-8.05799e-08 -0.000232993 0.719781)
(0.000267037 -0.000439694 1.7885)
(0.000804635 -0.000467359 2.5419)
(0.00139986 -0.000385807 3.02125)
(0.00180354 -0.000238009 3.25291)
(0.00183883 -4.91527e-05 3.24972)
(0.00147144 0.000157631 3.01218)
(0.000845216 0.000340265 2.52876)
(0.000253429 0.000418476 1.77506)
(-1.46737e-05 0.000264658 0.712377)
(-3.66703e-06 -0.000181813 0.615063)
(0.000189471 -0.000323626 1.49233)
(0.000595594 -0.000326549 2.0937)
(0.00105303 -0.000253562 2.46966)
(0.00136537 -0.00013731 2.6496)
(0.00139141 6.26221e-06 2.64702)
(0.00110447 0.00016359 2.46233)
(0.000621034 0.000305448 2.08304)
(0.000173866 0.00036826 1.48137)
(-1.64185e-05 0.000236489 0.608962)
(-9.73224e-06 -0.000104845 0.4616)
(8.91134e-05 -0.000171586 1.07125)
(0.000329848 -0.000161298 1.47099)
(0.00061369 -0.000115832 1.71495)
(0.000809673 -5.22537e-05 1.83026)
(0.000821812 2.35012e-05 1.82838)
(0.000633971 0.000107489 1.7096)
(0.000329353 0.000186934 1.46316)
(6.6007e-05 0.00022732 1.0631)
(-2.15306e-05 0.000152538 0.456926)
(-1.41566e-05 -2.18422e-05 0.220363)
(-1.21471e-06 -2.70016e-05 0.459309)
(6.69171e-05 -2.1158e-05 0.604037)
(0.00015881 -1.27615e-05 0.689591)
(0.00022355 -3.49094e-06 0.72943)
(0.000222883 6.76838e-06 0.728567)
(0.000152197 1.86294e-05 0.687115)
(4.83799e-05 3.16801e-05 0.600358)
(-2.4373e-05 4.23949e-05 0.455341)
(-2.43252e-05 3.55119e-05 0.217859)
(-5.81333e-05 5.85009e-05 0.220307)
(-0.000125257 7.36873e-05 0.459138)
(-5.6012e-05 5.78015e-05 0.603809)
(0.000100764 3.02575e-05 0.689403)
(0.000233284 -2.57219e-06 0.729374)
(0.000244284 -3.9382e-05 0.728692)
(0.00011494 -7.94498e-05 0.687399)
(-7.00864e-05 -0.000118717 0.600707)
(-0.000161578 -0.000143618 0.455619)
(-8.14233e-05 -0.000109194 0.217965)
(-6.4775e-05 0.000285661 0.461469)
(-5.81738e-06 0.00047281 1.07081)
(0.000416201 0.000428422 1.47039)
(0.00100923 0.000259532 1.71443)
(0.00146466 2.1113e-05 1.83005)
(0.0015281 -0.000256094 1.82861)
(0.00113799 -0.000541632 1.71021)
(0.000490207 -0.000776949 1.46392)
(-2.49628e-05 -0.000842253 1.06367)
(-9.20938e-05 -0.000513094 0.457106)
(-5.53811e-05 0.000509883 0.614898)
(0.000211039 0.000898146 1.49172)
(0.00103438 0.000857476 2.09284)
(0.00206945 0.000555697 2.46889)
(0.00283431 9.84922e-05 2.64926)
(0.00294524 -0.000440189 2.64727)
(0.0023038 -0.00098221 2.46309)
(0.00119332 -0.00140041 2.08399)
(0.000211063 -0.00147408 1.48205)
(-8.92647e-05 -0.000855471 0.609122)
(-4.91088e-05 0.000659822 0.719619)
(0.000398346 0.00121727 1.78782)
(0.00156356 0.00121132 2.5409)
(0.00296828 0.000832364 3.02033)
(0.00398459 0.000222249 3.25247)
(0.0041243 -0.000505355 3.24995)
(0.00326353 -0.00122731 3.013)
(0.00176335 -0.00176175 2.52976)
(0.000395603 -0.00182636 1.77572)
(-9.17951e-05 -0.00102977 0.712471)
(-5.06977e-05 0.00071399 0.793152)
(0.000516769 0.0013695 1.99822)
(0.0019293 0.00141282 2.86313)
(0.00360655 0.00102458 3.42048)
(0.00480553 0.000360746 3.69216)
(0.00495725 -0.000441212 3.68909)
(0.00392274 -0.00123075 3.41155)
(0.00213086 -0.00180048 2.84966)
(0.000492077 -0.001855 1.9837)
(-0.000104358 -0.00102568 0.784643)
(-5.78639e-05 0.000685484 0.845093)
(0.00057049 0.00135796 2.14756)
(0.00213907 0.00144487 3.09325)
(0.00399685 0.00109872 3.70768)
(0.00531654 0.000469397 4.00855)
(0.00546967 -0.000301486 4.00493)
(0.00430953 -0.00105814 3.69719)
(0.00232038 -0.00159694 3.07753)
(0.000515415 -0.00164706 2.13074)
(-0.000122161 -0.000899584 0.83532)
(-6.75559e-05 0.000593138 0.881354)
(0.000579456 0.00120565 2.25202)
(0.0022334 0.00131563 3.25472)
(0.00419909 0.00104041 3.90973)
(0.0055917 0.000508554 4.23143)
(0.00574126 -0.000152167 4.22731)
(0.00449769 -0.000800976 3.89784)
(0.00238734 -0.00126103 3.23699)
(0.000494403 -0.0013095 2.23319)
(-0.000140811 -0.000710555 0.870499)
(-7.70562e-05 0.000454505 0.905768)
(0.000565499 0.000941797 2.32241)
(0.00225854 0.00104766 3.36367)
(0.00428205 0.000853569 4.04625)
(0.00571478 0.000456813 4.38211)
(0.00585957 -4.24534e-05 4.37758)
(0.00456516 -0.000533878 4.03321)
(0.00238733 -0.000882767 3.34433)
(0.000455953 -0.000926113 2.30198)
(-0.000157054 -0.000501311 0.894072)
(-8.43838e-05 0.000284688 0.920813)
(0.000546375 0.000597498 2.36579)
(0.00225327 0.0006733 3.43088)
(0.00430397 0.000559629 4.1305)
(0.00575641 0.000316721 4.47512)
(0.00589726 7.99713e-06 4.47031)
(0.00457506 -0.0002967 4.11667)
(0.00236384 -0.000513711 3.41042)
(0.000420027 -0.000544491 2.34427)
(-0.000168806 -0.000294714 0.908545)
(-8.83271e-05 9.68565e-05 0.927984)
(0.000533917 0.000204584 2.38647)
(0.00224406 0.000232034 3.46291)
(0.00430491 0.000194794 4.17068)
(0.00576511 0.00011322 4.51948)
(0.00590382 8.97497e-06 4.51452)
(0.00456963 -9.4088e-05 4.15644)
(0.00234524 -0.000167664 3.44188)
(0.000399121 -0.00017886 2.36439)
(-0.000174925 -9.68632e-05 0.915428)
(-8.83266e-05 -9.68764e-05 0.927984)
(0.000533919 -0.000204608 2.38647)
(0.00224407 -0.000232072 3.46291)
(0.00430492 -0.000194833 4.17068)
(0.00576511 -0.000113252 4.51948)
(0.00590382 -8.99955e-06 4.51452)
(0.00456963 9.40713e-05 4.15644)
(0.00234524 0.000167655 3.44188)
(0.000399122 0.000178861 2.36439)
(-0.000174925 9.68583e-05 0.915428)
(-8.43822e-05 -0.000284711 0.920813)
(0.000546383 -0.000597527 2.36579)
(0.00225328 -0.000673342 3.43088)
(0.00430399 -0.000559671 4.1305)
(0.00575643 -0.000316756 4.47512)
(0.00589727 -8.02266e-06 4.47031)
(0.00457507 0.000296683 4.11667)
(0.00236385 0.000513702 3.41042)
(0.000420028 0.000544492 2.34427)
(-0.000168805 0.000294709 0.908545)
(-7.70528e-05 -0.000454535 0.905768)
(0.000565515 -0.000941836 2.32241)
(0.00225856 -0.00104771 3.36367)
(0.00428208 -0.000853618 4.04625)
(0.00571481 -0.000456851 4.38211)
(0.00585959 4.24262e-05 4.37758)
(0.00456518 0.00053386 4.03321)
(0.00238733 0.000882758 3.34433)
(0.000455955 0.000926114 2.30198)
(-0.000157053 0.000501306 0.894072)
(-6.75493e-05 -0.000593182 0.881354)
(0.000579486 -0.00120571 2.25202)
(0.00223344 -0.0013157 3.25472)
(0.00419914 -0.00104047 3.90973)
(0.00559174 -0.000508598 4.23143)
(0.0057413 0.000152138 4.22731)
(0.00449772 0.000800958 3.89784)
(0.00238735 0.00126102 3.23699)
(0.000494407 0.0013095 2.23319)
(-0.00014081 0.000710551 0.870499)
(-5.78519e-05 -0.000685554 0.845093)
(0.000570548 -0.00135805 2.14756)
(0.00213915 -0.00144496 3.09325)
(0.00399693 -0.00109879 3.70768)
(0.0053166 -0.000469448 4.00856)
(0.00546972 0.000301455 4.00493)
(0.00430956 0.00105812 3.69719)
(0.0023204 0.00159693 3.07753)
(0.000515421 0.00164706 2.13074)
(-0.000122161 0.00089958 0.83532)
(-5.06751e-05 -0.000714116 0.793152)
(0.000516882 -0.00136965 1.99822)
(0.00192944 -0.00141296 2.86313)
(0.00360668 -0.00102468 3.42048)
(0.00480562 -0.000360805 3.69216)
(0.00495731 0.000441179 3.68909)
(0.00392278 0.00123073 3.41155)
(0.00213088 0.00180048 2.84966)
(0.000492084 0.001855 1.9837)
(-0.000104357 0.00102568 0.784643)
(-4.90567e-05 -0.000660071 0.719619)
(0.000398559 -0.00121753 1.78782)
(0.00156379 -0.00121153 2.5409)
(0.00296847 -0.000832494 3.02033)
(0.00398472 -0.000222318 3.25247)
(0.00412438 0.000505322 3.24995)
(0.00326357 0.00122729 3.013)
(0.00176337 0.00176175 2.52976)
(0.000395609 0.00182637 1.77572)
(-9.17945e-05 0.00102977 0.712471)
(-5.5249e-05 -0.000510388 0.614898)
(0.000211424 -0.000898608 1.49172)
(0.00103477 -0.000857775 2.09284)
(0.00206971 -0.000555854 2.46889)
(0.00283447 -9.85642e-05 2.64926)
(0.00294533 0.00044016 2.64727)
(0.00230385 0.0009822 2.46309)
(0.00119334 0.00140041 2.08399)
(0.000211069 0.00147409 1.48205)
(-8.92643e-05 0.00085547 0.609122)
(-6.43994e-05 -0.000286578 0.46147)
(-5.14021e-06 -0.000473426 1.07081)
(0.000416734 -0.000428742 1.47039)
(0.00100953 -0.000259685 1.71443)
(0.00146481 -2.11762e-05 1.83005)
(0.00152818 0.000256072 1.82861)
(0.00113802 0.000541628 1.71021)
(0.00049022 0.000776952 1.46392)
(-2.49594e-05 0.000842262 1.06367)
(-9.20944e-05 0.000513094 0.457106)
(-5.75154e-05 -5.91125e-05 0.220309)
(-0.000124318 -7.40514e-05 0.459139)
(-5.5482e-05 -5.79175e-05 0.603809)
(0.000101025 -3.02914e-05 0.689403)
(0.000233406 2.56549e-06 0.729374)
(0.000244339 3.93813e-05 0.728692)
(0.000114964 7.945e-05 0.687399)
(-7.00765e-05 0.000118717 0.600707)
(-0.000161575 0.000143618 0.455619)
(-8.14235e-05 0.000109193 0.217965)
(-9.77708e-05 0.000113125 0.220199)
(-0.000159343 0.000139679 0.458787)
(5.15098e-05 0.000107196 0.603336)
(0.000430435 5.4738e-05 0.689014)
(0.000754523 -7.30755e-06 0.729266)
(0.000824491 -7.73113e-05 0.728976)
(0.000578876 -0.00015475 0.688045)
(0.000154673 -0.000232751 0.60152)
(-0.000149183 -0.000288013 0.456293)
(-0.000133811 -0.000222028 0.218246)
(-9.6268e-05 0.00054052 0.4612)
(0.000164027 0.000876588 1.0699)
(0.001145 0.000781865 1.46914)
(0.00245705 0.000463334 1.71335)
(0.00349358 1.91023e-05 1.82963)
(0.00373663 -0.000498816 1.82913)
(0.00300625 -0.00103927 1.71159)
(0.00161442 -0.00149805 1.46568)
(0.000330066 -0.00164915 1.06507)
(-0.00012062 -0.00102678 0.457581)
(-7.06523e-05 0.000946834 0.614553)
(0.000636268 0.00164405 1.49045)
(0.00244321 0.00155005 2.09103)
(0.00466303 0.000984617 2.46727)
(0.00635428 0.000138431 2.64852)
(0.00673925 -0.000859102 2.64782)
(0.00554114 -0.00187144 2.46479)
(0.00321138 -0.00266915 2.08617)
(0.000920221 -0.00283624 1.48368)
(-9.78743e-05 -0.00167049 0.609565)
(-5.32347e-05 0.00121147 0.719274)
(0.0010338 0.00220901 1.78637)
(0.00353448 0.00217412 2.53876)
(0.00650419 0.00146618 3.01835)
(0.00871973 0.000341896 3.25149)
(0.00919475 -0.000996998 3.25045)
(0.00758493 -0.00233216 3.01481)
(0.0044713 -0.00333456 2.53206)
(0.00136408 -0.0034757 1.77734)
(-9.22524e-05 -0.00198045 0.712772)
(-5.17691e-05 0.00130051 0.792853)
(0.00129171 0.0024687 1.99673)
(0.00429706 0.00252071 2.86084)
(0.0078211 0.00179554 3.41831)
(0.0104181 0.000575725 3.69105)
(0.0109405 -0.000893019 3.68955)
(0.00900143 -0.00234194 3.41339)
(0.00529869 -0.00339611 2.85196)
(0.00161394 -0.0035068 1.98519)
(-0.000109006 -0.00195404 0.784786)
(-6.15458e-05 0.00124094 0.844864)
(0.00142179 0.0024346 2.14612)
(0.00475311 0.00256483 3.09095)
(0.00865024 0.0019169 3.70547)
(0.0115034 0.000762379 4.00741)
(0.0120459 -0.000644606 4.0054)
(0.00986625 -0.00202497 3.69906)
(0.00575941 -0.00301116 3.07982)
(0.00170956 -0.00310357 2.13212)
(-0.000137296 -0.00170466 0.835333)
(-7.67454e-05 0.00106858 0.881201)
(0.00146254 0.002152 2.25068)
(0.00498112 0.00232562 3.25248)
(0.00910825 0.00180842 3.90756)
(0.0121211 0.000833369 4.23033)
(0.0126694 -0.000369697 4.22784)
(0.010328 -0.00154812 3.89977)
(0.00596642 -0.00238318 3.23929)
(0.00171008 -0.00246599 2.23451)
(-0.000168248 -0.00134334 0.870425)
(-9.22892e-05 0.000815804 0.905682)
(0.00145482 0.00167532 2.32117)
(0.00506772 0.00184587 3.36153)
(0.00932437 0.00147936 4.04416)
(0.0124295 0.00075204 4.3811)
(0.0129775 -0.000155661 4.37821)
(0.0105361 -0.00104547 4.03523)
(0.00602708 -0.00167491 3.34668)
(0.00166768 -0.00174599 2.30328)
(-0.000195641 -0.000947482 0.893945)
(-0.000104498 0.000509713 0.920778)
(0.00143153 0.00106039 2.36464)
(0.00508478 0.00118363 3.42882)
(0.00940673 0.000967999 4.1285)
(0.0125602 0.000522616 4.4742)
(0.0131064 -3.81728e-05 4.47102)
(0.0106094 -0.000588799 4.11877)
(0.00602358 -0.000978763 3.41281)
(0.00162015 -0.00102835 2.34557)
(-0.000215598 -0.000557393 0.908392)
(-0.000111123 0.000173197 0.927975)
(0.00141453 0.000362652 2.38536)
(0.00508117 0.000407448 3.4609)
(0.00942941 0.000336609 4.16873)
(0.0126031 0.000187008 4.5186)
(0.013148 -2.27719e-06 4.51528)
(0.0106267 -0.00018835 4.15859)
(0.00600903 -0.000320306 3.44431)
(0.0015909 -0.000338229 2.3657)
(-0.00022602 -0.000183316 0.915264)
(-0.000111122 -0.000173216 0.927975)
(0.00141454 -0.000362674 2.38536)
(0.00508117 -0.000407484 3.4609)
(0.00942942 -0.000336646 4.16873)
(0.0126031 -0.000187039 4.5186)
(0.013148 2.25424e-06 4.51528)
(0.0106267 0.000188335 4.15859)
(0.00600904 0.0003203 3.44431)
(0.0015909 0.000338232 2.3657)
(-0.00022602 0.000183312 0.915264)
(-0.000104497 -0.000509734 0.920778)
(0.00143154 -0.00106041 2.36464)
(0.00508479 -0.00118367 3.42882)
(0.00940675 -0.000968039 4.1285)
(0.0125602 -0.000522649 4.4742)
(0.0131064 3.8149e-05 4.47102)
(0.0106094 0.000588784 4.11877)
(0.00602359 0.000978756 3.41281)
(0.00162015 0.00102835 2.34557)
(-0.000215598 0.000557389 0.908392)
(-9.2286e-05 -0.000815832 0.905682)
(0.00145484 -0.00167536 2.32117)
(0.00506774 -0.00184592 3.36153)
(0.0093244 -0.00147941 4.04416)
(0.0124295 -0.000752076 4.3811)
(0.0129775 0.000155635 4.37821)
(0.0105361 0.00104545 4.03523)
(0.00602708 0.0016749 3.34668)
(0.00166768 0.001746 2.30328)
(-0.000195641 0.000947478 0.893945)
(-7.67394e-05 -0.00106861 0.881201)
(0.00146257 -0.00215205 2.25068)
(0.00498116 -0.00232568 3.25248)
(0.0091083 -0.00180848 3.90756)
(0.0121212 -0.000833411 4.23033)
(0.0126694 0.000369669 4.22784)
(0.010328 0.00154811 3.89977)
(0.00596643 0.00238318 3.23929)
(0.00171008 0.00246599 2.23451)
(-0.000168247 0.00134334 0.870425)
(-6.15351e-05 -0.001241 0.844864)
(0.00142184 -0.00243468 2.14612)
(0.00475318 -0.00256492 3.09095)
(0.00865031 -0.00191697 3.70547)
(0.0115035 -0.000762427 4.00741)
(0.0120459 0.000644577 4.0054)
(0.00986628 0.00202496 3.69906)
(0.00575943 0.00301116 3.07982)
(0.00170957 0.00310357 2.13212)
(-0.000137295 0.00170466 0.835333)
(-5.17493e-05 -0.00130061 0.792853)
(0.0012918 -0.00246883 1.99673)
(0.00429719 -0.00252083 2.86084)
(0.00782122 -0.00179563 3.41831)
(0.0104182 -0.000575781 3.69105)
(0.0109405 0.000892988 3.68955)
(0.00900147 0.00234193 3.41339)
(0.00529871 0.00339611 2.85196)
(0.00161395 0.00350681 1.98519)
(-0.000109005 0.00195404 0.784786)
(-5.31937e-05 -0.00121165 0.719274)
(0.00103395 -0.00220922 1.78637)
(0.00353469 -0.0021743 2.53876)
(0.00650436 -0.00146629 3.01835)
(0.00871986 -0.000341958 3.25149)
(0.00919483 0.000996968 3.25045)
(0.00758497 0.00233215 3.01481)
(0.00447132 0.00333456 2.53206)
(0.00136408 0.00347571 1.77734)
(-9.22519e-05 0.00198045 0.712772)
(-7.05665e-05 -0.000947119 0.614553)
(0.000636535 -0.00164438 1.49045)
(0.00244351 -0.00155028 2.09103)
(0.00466326 -0.000984746 2.46727)
(0.00635443 -0.000138492 2.64852)
(0.00673934 0.000859077 2.64782)
(0.00554119 0.00187143 2.46479)
(0.0032114 0.00266916 2.08617)
(0.000920227 0.00283625 1.48368)
(-9.78742e-05 0.00167049 0.609565)
(-9.61058e-05 -0.000540903 0.4612)
(0.00016443 -0.000876942 1.0699)
(0.00114539 -0.000782077 1.46914)
(0.0024573 -0.00046344 1.71335)
(0.00349372 -1.91494e-05 1.82963)
(0.0037367 0.000498798 1.82913)
(0.00300628 0.00103926 1.71159)
(0.00161443 0.00149805 1.46568)
(0.00033007 0.00164916 1.06507)
(-0.000120621 0.00102678 0.457581)
(-9.76176e-05 -0.000113273 0.2202)
(-0.000158941 -0.000139832 0.458788)
(5.18175e-05 -0.000107269 0.603336)
(0.00043062 -5.47637e-05 0.689014)
(0.000754621 7.30146e-06 0.729266)
(0.000824539 7.73106e-05 0.728976)
(0.000578899 0.000154751 0.688045)
(0.000154682 0.000232752 0.60152)
(-0.000149179 0.000288013 0.456293)
(-0.000133811 0.000222028 0.218246)
(-0.000130131 0.000196468 0.219913)
(-2.91161e-05 0.000237918 0.458018)
(0.000581613 0.000178436 0.602346)
(0.00147678 9.14733e-05 0.688184)
(0.00223782 -9.47403e-06 0.728963)
(0.00248526 -0.000124401 0.729432)
(0.00205153 -0.000255854 0.689252)
(0.00111148 -0.000395915 0.603158)
(0.000215201 -0.000513545 0.457773)
(-0.000161982 -0.00040768 0.218954)
(-8.40919e-05 0.000920067 0.460544)
(0.000815527 0.00145488 1.06799)
(0.00304143 0.00128353 1.46658)
(0.00583334 0.000772598 1.7111)
(0.00808309 7.18168e-05 1.82861)
(0.00881702 -0.000752475 1.82992)
(0.00757552 -0.00164037 1.71414)
(0.00473805 -0.00244586 1.46918)
(0.00167806 -0.00280344 1.06808)
(-3.79348e-05 -0.00182622 0.45879)
(-1.78526e-05 0.00156902 0.61371)
(0.00179365 0.00268218 1.48779)
(0.0056092 0.00252032 2.08737)
(0.0101372 0.00163591 2.46395)
(0.013682 0.00032423 2.64684)
(0.0147946 -0.00123545 2.6486)
(0.0127852 -0.00286177 2.46796)
(0.00819824 -0.00422129 2.09055)
(0.00309961 -0.0046417 1.48731)
(5.58114e-05 -0.00283774 0.610808)
(2.66099e-05 0.00197577 0.718381)
(0.0025832 0.00356574 1.78331)
(0.00769932 0.00351243 2.53442)
(0.0136303 0.00242736 3.01432)
(0.0181905 0.000708719 3.24933)
(0.019553 -0.00135572 3.25113)
(0.0168651 -0.00346412 3.01821)
(0.0108396 -0.00513457 2.53679)
(0.00413027 -0.00552334 1.78107)
(9.97236e-05 -0.00325305 0.713852)
(4.08638e-05 0.00209963 0.791999)
(0.00310761 0.00395649 1.99353)
(0.00917185 0.00405304 2.85616)
(0.0161397 0.00296137 3.41388)
(0.0214391 0.00111882 3.68861)
(0.0229516 -0.00111962 3.69017)
(0.0197171 -0.00337634 3.41692)
(0.0126092 -0.00510311 2.85682)
(0.00475365 -0.00543696 1.98887)
(9.57676e-05 -0.0031266 0.78567)
(3.44589e-05 0.00199004 0.844093)
(0.00340142 0.0038823 2.14293)
(0.0100948 0.00410883 3.08617)
(0.0177736 0.00314936 3.70089)
(0.0235791 0.00142306 4.00489)
(0.025177 -0.000700869 4.00606)
(0.0215387 -0.00282766 3.70272)
(0.0136766 -0.00442253 3.08478)
(0.00507061 -0.00471073 2.13575)
(6.71292e-05 -0.00267051 0.836064)
(1.747e-05 0.00170588 0.880528)
(0.00353343 0.00341942 2.24759)
(0.0106096 0.00371489 3.24774)
(0.0187436 0.00296042 3.903)
(0.0248769 0.00151463 4.22787)
(0.0265223 -0.000287825 4.22863)
(0.0226086 -0.00208873 3.9036)
(0.014256 -0.00342686 3.24439)
(0.00519442 -0.00367569 2.23813)
(3.03332e-05 -0.00206901 0.871059)
(-1.80833e-06 0.00129844 0.905102)
(0.00357137 0.00265539 2.3182)
(0.0108605 0.00294215 3.35689)
(0.0192662 0.00241439 4.0397)
(0.0255997 0.00134292 4.37875)
(0.0272714 -9.42794e-06 4.37916)
(0.0231842 -0.0013614 4.03925)
(0.0145344 -0.00236379 3.35192)
(0.00521642 -0.00256417 2.30694)
(-3.97685e-06 -0.00144028 0.89453)
(-1.75386e-05 0.000809754 0.920267)
(0.00356806 0.00167804 2.36178)
(0.0109634 0.00188381 3.42428)
(0.0195165 0.00157638 4.12414)
(0.0259618 0.000923167 4.47198)
(0.0276478 9.07601e-05 4.47212)
(0.0234621 -0.000742766 4.12295)
(0.0146486 -0.00136142 3.41818)
(0.00519977 -0.00149403 2.34928)
(-2.95038e-05 -0.000839621 0.908958)
(-2.62086e-05 0.000274908 0.927501)
(0.00355803 0.000573446 2.38257)
(0.0109958 0.000647994 3.45644)
(0.0196124 0.000547548 4.16444)
(0.0261074 0.000328637 4.51646)
(0.0277996 4.8188e-05 4.51647)
(0.02357 -0.00023298 4.16286)
(0.014685 -0.000441944 3.44975)
(0.00518262 -0.000488579 2.36944)
(-4.2951e-05 -0.000274839 0.915824)
(-2.62082e-05 -0.000274925 0.927501)
(0.00355803 -0.000573463 2.38257)
(0.0109958 -0.000648025 3.45644)
(0.0196124 -0.000547581 4.16444)
(0.0261074 -0.000328665 4.51646)
(0.0277996 -4.82084e-05 4.51647)
(0.02357 0.000232967 4.16286)
(0.014685 0.00044194 3.44975)
(0.00518263 0.000488585 2.36944)
(-4.2951e-05 0.000274836 0.915824)
(-1.75373e-05 -0.000809773 0.920267)
(0.00356807 -0.00167806 2.36178)
(0.0109635 -0.00188384 3.42428)
(0.0195165 -0.00157641 4.12414)
(0.0259619 -0.000923197 4.47198)
(0.0276478 -9.07812e-05 4.47212)
(0.0234621 0.000742754 4.12295)
(0.0146486 0.00136142 3.41818)
(0.00519978 0.00149404 2.34928)
(-2.95036e-05 0.000839618 0.908958)
(-1.8057e-06 -0.00129846 0.905102)
(0.00357138 -0.00265542 2.3182)
(0.0108606 -0.00294219 3.35689)
(0.0192662 -0.00241443 4.0397)
(0.0255997 -0.00134295 4.37875)
(0.0272714 9.40556e-06 4.37916)
(0.0231842 0.00136138 4.03925)
(0.0145344 0.00236378 3.35192)
(0.00521642 0.00256418 2.30694)
(-3.97659e-06 0.00144028 0.89453)
(1.74748e-05 -0.00170591 0.880528)
(0.00353345 -0.00341947 2.24759)
(0.0106097 -0.00371495 3.24774)
(0.0187437 -0.00296047 3.903)
(0.024877 -0.00151467 4.22787)
(0.0265223 0.000287801 4.22863)
(0.0226087 0.00208871 3.9036)
(0.014256 0.00342686 3.24439)
(0.00519443 0.0036757 2.23813)
(3.03336e-05 0.00206901 0.871059)
(3.44674e-05 -0.00199008 0.844093)
(0.00340146 -0.00388236 2.14293)
(0.0100949 -0.00410891 3.08617)
(0.0177737 -0.00314943 3.70089)
(0.0235792 -0.00142311 4.00489)
(0.025177 0.000700844 4.00606)
(0.0215388 0.00282765 3.70272)
(0.0136766 0.00442252 3.08478)
(0.00507062 0.00471074 2.13575)
(6.71297e-05 0.00267051 0.836064)
(4.0879e-05 -0.00209971 0.791999)
(0.00310768 -0.00395659 1.99353)
(0.00917196 -0.00405315 2.85616)
(0.0161398 -0.00296145 3.41388)
(0.0214392 -0.00111887 3.68861)
(0.0229517 0.00111959 3.69017)
(0.0197171 0.00337632 3.41692)
(0.0126092 0.00510311 2.85682)
(0.00475366 0.00543697 1.98887)
(9.57682e-05 0.0031266 0.78567)
(2.66391e-05 -0.00197589 0.718382)
(0.00258331 -0.0035659 1.78331)
(0.00769948 -0.00351257 2.53442)
(0.0136304 -0.00242745 3.01432)
(0.0181906 -0.00070877 3.24933)
(0.0195531 0.00135569 3.25113)
(0.0168651 0.00346411 3.01821)
(0.0108396 0.00513457 2.53679)
(0.00413028 0.00552335 1.78107)
(9.97242e-05 0.00325305 0.713852)
(-1.77986e-05 -0.00156919 0.61371)
(0.00179384 -0.00268241 1.48779)
(0.00560943 -0.00252049 2.08737)
(0.0101374 -0.001636 2.46395)
(0.0136821 -0.000324277 2.64684)
(0.0147947 0.00123543 2.6486)
(0.0127852 0.00286177 2.46796)
(0.00819826 0.00422129 2.09055)
(0.00309962 0.00464171 1.48731)
(5.58116e-05 0.00283774 0.610808)
(-8.40074e-05 -0.000920259 0.460544)
(0.000815809 -0.00145512 1.06799)
(0.00304172 -0.00128367 1.46658)
(0.00583354 -0.000772663 1.7111)
(0.00808321 -7.18426e-05 1.82861)
(0.00881708 0.000752469 1.82992)
(0.00757554 0.00164038 1.71414)
(0.00473807 0.00244586 1.46918)
(0.00167806 0.00280345 1.06808)
(-3.79355e-05 0.00182622 0.45879)
(-0.000130063 -0.000196532 0.219913)
(-2.89076e-05 -0.000237995 0.458018)
(0.0005818 -0.000178479 0.602347)
(0.00147691 -9.14896e-05 0.688184)
(0.00223789 9.47076e-06 0.728962)
(0.0024853 0.000124402 0.729432)
(0.00205155 0.000255855 0.689252)
(0.00111149 0.000395916 0.603158)
(0.000215203 0.000513546 0.457773)
(-0.000161982 0.00040768 0.218954)
(-0.00014617 0.000321429 0.219246)
(0.000370349 0.000382598 0.456441)
(0.00179178 0.000281192 0.600385)
(0.00368483 0.000146671 0.686495)
(0.00531809 -6.26629e-06 0.728183)
(0.00601109 -0.000182559 0.730019)
(0.00536511 -0.000392899 0.6913)
(0.00351332 -0.00063221 0.606226)
(0.00136296 -0.000868784 0.460815)
(-9.97181e-05 -0.000707448 0.220609)
(1.88138e-06 0.00147818 0.459097)
(0.0022301 0.00228128 1.06418)
(0.00677691 0.00199813 1.46165)
(0.01228 0.0012413 1.70668)
(0.0168488 0.000222645 1.82628)
(0.0187572 -0.000989828 1.83079)
(0.0169521 -0.00235075 1.7184)
(0.0116674 -0.0036896 1.47567)
(0.00510392 -0.00446599 1.07423)
(0.000333348 -0.00307181 0.461642)
(0.000146711 0.00245317 0.61184)
(0.00409719 0.00413262 1.48255)
(0.0115172 0.00388867 2.08036)
(0.0201592 0.0026228 2.45748)
(0.0271668 0.000761216 2.6432)
(0.029992 -0.00147884 2.64933)
(0.0270775 -0.00390034 2.47328)
(0.01875 -0.00608225 2.09876)
(0.00829148 -0.00702942 1.49483)
(0.000613848 -0.00451359 0.613955)
(0.000243308 0.0030387 0.716333)
(0.00555659 0.00543535 1.77724)
(0.0152736 0.00538796 2.5261)
(0.0264019 0.00388023 3.0065)
(0.0352868 0.00148834 3.24474)
(0.038732 -0.0014211 3.25165)
(0.0348207 -0.00449122 3.02406)
(0.0240242 -0.00710229 2.54586)
(0.0105529 -0.00802478 1.78916)
(0.000768588 -0.0049523 0.716954)
(0.00028625 0.00319612 0.789925)
(0.00654346 0.00598881 1.98706)
(0.0179377 0.0061911 2.84712)
(0.0309031 0.0047164 3.40529)
(0.0411557 0.00219593 3.6835)
(0.0450008 -0.00090883 3.69062)
(0.0402757 -0.00413683 3.42313)
(0.0276196 -0.00678286 2.86643)
(0.0119935 -0.00761425 1.99725)
(0.000823634 -0.004591 0.788668)
(0.000293459 0.0030093 0.842079)
(0.007138 0.00584878 2.13634)
(0.0196711 0.00625621 3.07681)
(0.0339169 0.00499556 3.69194)
(0.0451222 0.00266966 3.99959)
(0.0492223 -0.000237507 4.00662)
(0.0438898 -0.00323752 3.70932)
(0.0299199 -0.0056465 3.09486)
(0.0128421 -0.00637907 2.14437)
(0.000825868 -0.00380256 0.839)
(0.000281385 0.00256859 0.878612)
(0.00745624 0.00513487 2.24104)
(0.0207143 0.00564228 3.23833)
(0.0358063 0.00467748 3.89399)
(0.0476488 0.0027545 4.22261)
(0.0519123 0.000313396 4.22943)
(0.0461606 -0.00220044 3.91063)
(0.0313144 -0.00420165 3.25491)
(0.0133075 -0.00482707 2.24701)
(0.00080506 -0.00287006 0.87399)
(0.000262732 0.00194979 0.903286)
(0.00760385 0.0039789 2.31177)
(0.0212939 0.00446015 3.34755)
(0.0369141 0.00380199 4.03076)
(0.0491623 0.00239148 4.37366)
(0.0535302 0.000574521 4.38026)