/*--------------------------------*- C++ -*----------------------------------*\
  =========                 |
  \\      /  F ield         | OpenFOAM: The Open Source CFD Toolbox
   \\    /   O peration     | Website:  https://openfoam.org
    \\  /    A nd           | Version:  6
     \\/     M anipulation  |
\*---------------------------------------------------------------------------*/
FoamFile
{
    version     2.0;
    format      ascii;
    class       volScalarField;
    location    "0.76";
    object      T;
}
// * * * * * * * * * * * * * * * * * * * * * * * * * * * * * * * * * * * * * //

dimensions      [0 0 0 1 0 0 0];

internalField   nonuniform List<scalar> 
7000
(
106.334
106.332
106.328
106.323
106.317
106.311
106.304
106.298
106.294
106.291
106.334
106.332
106.328
106.323
106.317
106.311
106.304
106.298
106.294
106.291
106.334
106.332
106.328
106.323
106.317
106.311
106.304
106.298
106.294
106.291
106.334
106.332
106.328
106.323
106.317
106.311
106.304
106.298
106.294
106.291
106.334
106.332
106.328
106.323
106.317
106.311
106.304
106.298
106.294
106.291
106.334
106.332
106.328
106.323
106.317
106.311
106.304
106.298
106.294
106.291
106.334
106.332
106.328
106.323
106.317
106.311
106.304
106.298
106.294
106.291
106.334
106.332
106.328
106.323
106.317
106.311
106.304
106.298
106.294
106.291
106.334
106.332
106.328
106.323
106.317
106.311
106.304
106.298
106.294
106.291
106.334
106.332
106.328
106.323
106.317
106.311
106.304
106.298
106.294
106.291
99.0259
99.0203
99.0094
98.994
98.9753
98.9548
98.9344
98.9162
98.9026
98.8953
99.0259
99.0203
99.0094
98.994
98.9753
98.9548
98.9343
98.9162
98.9026
98.8953
99.0259
99.0203
99.0094
98.994
98.9753
98.9547
98.9343
98.9162
98.9026
98.8953
99.0259
99.0202
99.0094
98.994
98.9753
98.9547
98.9343
98.9162
98.9026
98.8953
99.0259
99.0202
99.0094
98.994
98.9753
98.9547
98.9343
98.9162
98.9026
98.8953
99.0259
99.0202
99.0094
98.994
98.9753
98.9547
98.9343
98.9162
98.9026
98.8953
99.0259
99.0202
99.0094
98.994
98.9753
98.9547
98.9343
98.9162
98.9026
98.8953
99.0259
99.0202
99.0094
98.994
98.9753
98.9547
98.9343
98.9162
98.9026
98.8953
99.0259
99.0203
99.0094
98.994
98.9753
98.9547
98.9343
98.9162
98.9026
98.8953
99.0259
99.0203
99.0094
98.994
98.9753
98.9548
98.9343
98.9162
98.9026
98.8953
91.7911
91.7815
91.7628
91.7363
91.7038
91.6679
91.632
91.5998
91.5754
91.5623
91.7911
91.7815
91.7628
91.7363
91.7038
91.6679
91.632
91.5998
91.5754
91.5622
91.7911
91.7815
91.7628
91.7363
91.7038
91.6679
91.632
91.5998
91.5754
91.5622
91.7911
91.7815
91.7628
91.7363
91.7038
91.6679
91.6319
91.5998
91.5754
91.5622
91.7911
91.7814
91.7628
91.7363
91.7038
91.6679
91.6319
91.5998
91.5754
91.5622
91.7911
91.7814
91.7628
91.7363
91.7038
91.6679
91.6319
91.5998
91.5754
91.5622
91.7911
91.7814
91.7628
91.7363
91.7038
91.6679
91.6319
91.5998
91.5754
91.5622
91.7911
91.7815
91.7628
91.7363
91.7038
91.6679
91.6319
91.5998
91.5754
91.5622
91.7911
91.7815
91.7628
91.7363
91.7038
91.6679
91.632
91.5998
91.5754
91.5622
91.7911
91.7815
91.7628
91.7363
91.7038
91.6679
91.632
91.5998
91.5754
91.5622
84.6772
84.6632
84.636
84.597
84.5489
84.4952
84.4407
84.3912
84.3532
84.3324
84.6772
84.6632
84.6359
84.597
84.5489
84.4952
84.4406
84.3912
84.3532
84.3324
84.6772
84.6632
84.6359
84.597
84.5489
84.4951
84.4406
84.3912
84.3532
84.3324
84.6772
84.6632
84.6359
84.597
84.5488
84.4951
84.4406
84.3912
84.3532
84.3324
84.6772
84.6632
84.6359
84.597
84.5488
84.4951
84.4406
84.3912
84.3531
84.3324
84.6772
84.6632
84.6359
84.597
84.5488
84.4951
84.4406
84.3911
84.3531
84.3324
84.6772
84.6632
84.6359
84.597
84.5488
84.4951
84.4406
84.3912
84.3532
84.3324
84.6772
84.6632
84.6359
84.597
84.5488
84.4951
84.4406
84.3912
84.3532
84.3324
84.6772
84.6632
84.6359
84.597
84.5489
84.4951
84.4406
84.3912
84.3532
84.3324
84.6772
84.6632
84.6359
84.597
84.5489
84.4952
84.4406
84.3912
84.3532
84.3324
77.7304
77.7116
77.6749
77.6219
77.5557
77.4806
77.4029
77.331
77.2745
77.243
77.7304
77.7116
77.6748
77.6219
77.5556
77.4806
77.4029
77.3309
77.2744
77.243
77.7304
77.7116
77.6748
77.6219
77.5556
77.4805
77.4029
77.3309
77.2744
77.243
77.7303
77.7115
77.6748
77.6218
77.5556
77.4805
77.4029
77.3309
77.2744
77.243
77.7303
77.7115
77.6748
77.6218
77.5556
77.4805
77.4029
77.3309
77.2744
77.243
77.7303
77.7115
77.6748
77.6218
77.5556
77.4805
77.4029
77.3309
77.2744
77.243
77.7303
77.7115
77.6748
77.6218
77.5556
77.4805
77.4029
77.3309
77.2744
77.243
77.7303
77.7115
77.6748
77.6218
77.5556
77.4805
77.4029
77.3309
77.2744
77.243
77.7304
77.7116
77.6748
77.6219
77.5556
77.4805
77.4029
77.3309
77.2744
77.243
77.7304
77.7116
77.6748
77.6219
77.5557
77.4806
77.4029
77.331
77.2745
77.243
70.9947
70.9707
70.9236
70.8551
70.768
70.6671
70.56
70.4575
70.3743
70.3266
70.9946
70.9707
70.9236
70.855
70.7679
70.6671
70.56
70.4575
70.3743
70.3266
70.9946
70.9707
70.9236
70.855
70.7679
70.667
70.5599
70.4575
70.3743
70.3266
70.9946
70.9706
70.9236
70.855
70.7679
70.667
70.5599
70.4575
70.3743
70.3266
70.9946
70.9706
70.9235
70.855
70.7679
70.667
70.5599
70.4574
70.3742
70.3266
70.9946
70.9706
70.9235
70.855
70.7679
70.667
70.5599
70.4574
70.3742
70.3266
70.9946
70.9706
70.9235
70.855
70.7679
70.667
70.5599
70.4575
70.3743
70.3266
70.9946
70.9706
70.9236
70.855
70.7679
70.667
70.5599
70.4575
70.3743
70.3266
70.9946
70.9707
70.9236
70.855
70.7679
70.6671
70.5599
70.4575
70.3743
70.3266
70.9946
70.9707
70.9236
70.855
70.7679
70.6671
70.56
70.4575
70.3743
70.3266
64.5111
64.4819
64.4241
64.3388
64.2283
64.0969
63.9523
63.8075
63.6835
63.6086
64.5111
64.4819
64.4241
64.3388
64.2283
64.0969
63.9522
63.8074
63.6834
63.6085
64.511
64.4819
64.424
64.3387
64.2283
64.0969
63.9522
63.8074
63.6834
63.6085
64.511
64.4818
64.424
64.3387
64.2282
64.0969
63.9522
63.8074
63.6834
63.6085
64.511
64.4818
64.424
64.3387
64.2282
64.0968
63.9522
63.8074
63.6834
63.6085
64.511
64.4818
64.424
64.3387
64.2282
64.0968
63.9522
63.8074
63.6834
63.6085
64.511
64.4818
64.424
64.3387
64.2282
64.0968
63.9522
63.8074
63.6834
63.6085
64.511
64.4818
64.424
64.3387
64.2283
64.0969
63.9522
63.8074
63.6834
63.6085
64.511
64.4819
64.424
64.3387
64.2283
64.0969
63.9522
63.8074
63.6834
63.6085
64.5111
64.4819
64.4241
64.3388
64.2283
64.0969
63.9523
63.8075
63.6835
63.6086
58.3173
58.2832
58.2151
58.1133
57.9784
57.8126
57.6213
57.4173
57.2276
57.1016
58.3172
58.2832
58.2151
58.1132
57.9783
57.8125
57.6212
57.4172
57.2275
57.1016
58.3172
58.2831
58.215
58.1132
57.9783
57.8125
57.6212
57.4172
57.2275
57.1015
58.3172
58.2831
58.215
58.1132
57.9783
57.8125
57.6212
57.4171
57.2275
57.1015
58.3172
58.2831
58.215
58.1132
57.9783
57.8125
57.6212
57.4171
57.2275
57.1015
58.3172
58.2831
58.215
58.1132
57.9783
57.8125
57.6212
57.4171
57.2275
57.1015
58.3172
58.2831
58.215
58.1132
57.9783
57.8125
57.6212
57.4171
57.2275
57.1015
58.3172
58.2831
58.215
58.1132
57.9783
57.8125
57.6212
57.4172
57.2275
57.1015
58.3172
58.2831
58.2151
58.1132
57.9783
57.8125
57.6212
57.4172
57.2275
57.1016
58.3172
58.2832
58.2151
58.1132
57.9784
57.8126
57.6213
57.4172
57.2276
57.1016
52.4461
52.4082
52.3318
52.2159
52.0587
51.8582
51.6134
51.329
51.0298
50.7939
52.446
52.4081
52.3317
52.2158
52.0586
51.8581
51.6133
51.329
51.0298
50.7939
52.446
52.4081
52.3317
52.2158
52.0586
51.8581
51.6133
51.329
51.0298
50.7938
52.446
52.408
52.3317
52.2158
52.0586
51.8581
51.6132
51.3289
51.0297
50.7938
52.446
52.408
52.3317
52.2157
52.0586
51.858
51.6132
51.3289
51.0297
50.7938
52.446
52.408
52.3317
52.2157
52.0586
51.858
51.6132
51.3289
51.0297
50.7938
52.446
52.408
52.3317
52.2158
52.0586
51.8581
51.6132
51.3289
51.0297
50.7938
52.446
52.408
52.3317
52.2158
52.0586
51.8581
51.6133
51.3289
51.0297
50.7938
52.446
52.4081
52.3317
52.2158
52.0586
51.8581
51.6133
51.329
51.0298
50.7939
52.446
52.4081
52.3318
52.2159
52.0587
51.8582
51.6133
51.329
51.0298
50.7939
46.9249
46.885
46.8042
46.68
46.5081
46.2807
45.9857
45.6055
45.1274
44.6153
46.9248
46.8849
46.8041
46.68
46.508
46.2807
45.9856
45.6054
45.1273
44.6152
46.9248
46.8849
46.8041
46.6799
46.508
46.2806
45.9856
45.6054
45.1273
44.6152
46.9248
46.8849
46.8041
46.6799
46.508
46.2806
45.9856
45.6053
45.1273
44.6151
46.9248
46.8849
46.804
46.6799
46.508
46.2806
45.9855
45.6053
45.1272
44.6151
46.9248
46.8849
46.804
46.6799
46.5079
46.2806
45.9855
45.6053
45.1272
44.6151
46.9248
46.8849
46.804
46.6799
46.508
46.2806
45.9855
45.6053
45.1273
44.6151
46.9248
46.8849
46.8041
46.6799
46.508
46.2806
45.9856
45.6053
45.1273
44.6152
46.9248
46.8849
46.8041
46.68
46.508
46.2807
45.9856
45.6054
45.1273
44.6152
46.9248
46.885
46.8041
46.68
46.5081
46.2807
45.9857
45.6054
45.1274
44.6153
41.7743
41.7352
41.6556
41.5327
41.3605
41.1275
40.8105
40.36
39.6538
38.3329
41.7743
41.7351
41.6556
41.5327
41.3605
41.1274
40.8104
40.3599
39.6538
38.3328
41.7742
41.7351
41.6555
41.5326
41.3604
41.1273
40.8104
40.3599
39.6537
38.3328
41.7742
41.735
41.6555
41.5326
41.3604
41.1273
40.8104
40.3598
39.6537
38.3327
41.7742
41.735
41.6555
41.5326
41.3604
41.1273
40.8103
40.3598
39.6537
38.3327
41.7742
41.735
41.6555
41.5326
41.3604
41.1273
40.8103
40.3598
39.6537
38.3327
41.7742
41.735
41.6555
41.5326
41.3604
41.1273
40.8103
40.3598
39.6537
38.3327
41.7742
41.735
41.6555
41.5326
41.3604
41.1273
40.8104
40.3599
39.6537
38.3327
41.7743
41.7351
41.6555
41.5326
41.3604
41.1274
40.8104
40.3599
39.6538
38.3328
41.7743
41.7351
41.6556
41.5327
41.3605
41.1274
40.8105
40.36
39.6538
38.3329
37.0074
36.9721
36.9007
36.7909
36.6382
36.4333
36.1578
35.7766
35.2246
34.4032
37.0074
36.9721
36.9006
36.7909
36.6382
36.4332
36.1578
35.7766
35.2245
34.4031
37.0073
36.972
36.9006
36.7908
36.6381
36.4332
36.1577
35.7765
35.2245
34.4031
37.0073
36.972
36.9005
36.7908
36.6381
36.4332
36.1577
35.7765
35.2244
34.403
37.0073
36.972
36.9005
36.7908
36.6381
36.4331
36.1577
35.7765
35.2244
34.403
37.0073
36.972
36.9005
36.7908
36.6381
36.4331
36.1577
35.7765
35.2244
34.403
37.0073
36.972
36.9005
36.7908
36.6381
36.4332
36.1577
35.7765
35.2244
34.403
37.0073
36.972
36.9006
36.7908
36.6381
36.4332
36.1577
35.7765
35.2245
34.4031
37.0073
36.972
36.9006
36.7909
36.6382
36.4332
36.1578
35.7766
35.2245
34.4031
37.0074
36.9721
36.9007
36.7909
36.6382
36.4333
36.1578
35.7766
35.2246
34.4032
32.629
32.6006
32.5439
32.4587
32.3442
32.198
32.0154
31.789
31.5161
31.2273
32.629
32.6005
32.5438
32.4586
32.3441
32.198
32.0153
31.789
31.516
31.2272
32.6289
32.6005
32.5438
32.4586
32.3441
32.1979
32.0153
31.7889
31.516
31.2272
32.6289
32.6005
32.5437
32.4585
32.3441
32.1979
32.0152
31.7889
31.516
31.2271
32.6289
32.6005
32.5437
32.4585
32.344
32.1979
32.0152
31.7889
31.5159
31.2271
32.6289
32.6005
32.5437
32.4585
32.344
32.1979
32.0152
31.7889
31.5159
31.2271
32.6289
32.6005
32.5437
32.4585
32.3441
32.1979
32.0152
31.7889
31.516
31.2271
32.6289
32.6005
32.5437
32.4586
32.3441
32.1979
32.0153
31.7889
31.516
31.2272
32.6289
32.6005
32.5438
32.4586
32.3441
32.198
32.0153
31.789
31.516
31.2272
32.629
32.6006
32.5438
32.4586
32.3442
32.198
32.0154
31.789
31.5161
31.2273
28.6362
28.6169
28.5798
28.5274
28.4639
28.395
28.3297
28.2833
28.2864
28.4056
28.6361
28.6169
28.5797
28.5274
28.4638
28.395
28.3297
28.2833
28.2863
28.4056
28.6361
28.6168
28.5797
28.5273
28.4638
28.3949
28.3296
28.2832
28.2863
28.4055
28.636
28.6168
28.5797
28.5273
28.4637
28.3949
28.3296
28.2832
28.2863
28.4055
28.636
28.6168
28.5796
28.5273
28.4637
28.3949
28.3296
28.2832
28.2862
28.4055
28.636
28.6168
28.5796
28.5273
28.4637
28.3949
28.3296
28.2832
28.2862
28.4055
28.636
28.6168
28.5797
28.5273
28.4637
28.3949
28.3296
28.2832
28.2863
28.4055
28.636
28.6168
28.5797
28.5273
28.4638
28.3949
28.3296
28.2832
28.2863
28.4055
28.6361
28.6168
28.5797
28.5273
28.4638
28.3949
28.3297
28.2832
28.2863
28.4056
28.6361
28.6169
28.5798
28.5274
28.4638
28.395
28.3297
28.2833
28.2864
28.4056
25.0189
25.01
24.995
24.9792
24.9717
24.9857
25.041
25.1667
25.4071
25.8298
25.0188
25.01
24.9949
24.9792
24.9716
24.9856
25.0409
25.1666
25.407
25.8297
25.0188
25.0099
24.9949
24.9791
24.9716
24.9856
25.0409
25.1665
25.4069
25.8297
25.0188
25.0099
24.9948
24.9791
24.9715
24.9856
25.0408
25.1665
25.4069
25.8297
25.0187
25.0099
24.9948
24.9791
24.9715
24.9856
25.0408
25.1665
25.4069
25.8296
25.0187
25.0099
24.9948
24.9791
24.9715
24.9856
25.0408
25.1665
25.4069
25.8296
25.0187
25.0099
24.9948
24.9791
24.9715
24.9856
25.0408
25.1665
25.4069
25.8297
25.0188
25.0099
24.9949
24.9791
24.9716
24.9856
25.0409
25.1665
25.4069
25.8297
25.0188
25.0099
24.9949
24.9792
24.9716
24.9856
25.0409
25.1666
25.407
25.8297
25.0188
25.01
24.9949
24.9792
24.9717
24.9857
25.041
25.1666
25.407
25.8298
21.7617
21.7632
21.77
21.7902
21.8366
21.9287
22.0942
22.371
22.8091
23.469
21.7617
21.7632
21.77
21.7901
21.8365
21.9287
22.0941
22.371
22.809
23.469
21.7616
21.7631
21.7699
21.7901
21.8365
21.9286
22.0941
22.3709
22.809
23.4689
21.7616
21.7631
21.7699
21.79
21.8365
21.9286
22.0941
22.3709
22.8089
23.4689
21.7616
21.7631
21.7699
21.79
21.8365
21.9286
22.094
22.3709
22.8089
23.4688
21.7616
21.7631
21.7699
21.79
21.8365
21.9286
22.094
22.3709
22.8089
23.4688
21.7616
21.7631
21.7699
21.79
21.8365
21.9286
22.0941
22.3709
22.8089
23.4689
21.7616
21.7631
21.7699
21.7901
21.8365
21.9286
22.0941
22.3709
22.8089
23.4689
21.7616
21.7631
21.77
21.7901
21.8365
21.9287
22.0941
22.3709
22.809
23.4689
21.7617
21.7632
21.77
21.7902
21.8366
21.9287
22.0942
22.371
22.8091
23.469
18.8454
18.8561
18.8821
18.9334
19.0258
19.1834
19.4401
19.8417
20.445
21.3094
18.8453
18.856
18.8821
18.9333
19.0257
19.1833
19.44
19.8416
20.4449
21.3093
18.8453
18.856
18.882
18.9333
19.0257
19.1833
19.44
19.8416
20.4448
21.3093
18.8453
18.856
18.882
18.9332
19.0257
19.1833
19.44
19.8415
20.4448
21.3092
18.8453
18.8559
18.882
18.9332
19.0257
19.1832
19.4399
19.8415
20.4448
21.3092
18.8453
18.8559
18.882
18.9332
19.0257
19.1832
19.4399
19.8415
20.4448
21.3092
18.8453
18.856
18.882
18.9332
19.0257
19.1833
19.44
19.8415
20.4448
21.3092
18.8453
18.856
18.882
18.9333
19.0257
19.1833
19.44
19.8416
20.4448
21.3093
18.8453
18.856
18.8821
18.9333
19.0257
19.1833
19.44
19.8416
20.4449
21.3093
18.8454
18.8561
18.8821
18.9334
19.0258
19.1834
19.4401
19.8417
20.445
21.3094
16.2484
16.2662
16.3069
16.3813
16.5071
16.711
17.032
17.525
18.2626
19.3254
16.2484
16.2662
16.3069
16.3813
16.507
16.7109
17.0319
17.5249
18.2626
19.3253
16.2483
16.2661
16.3068
16.3812
16.507
16.7109
17.0319
17.5249
18.2625
19.3253
16.2483
16.2661
16.3068
16.3812
16.507
16.7109
17.0319
17.5249
18.2625
19.3252
16.2483
16.2661
16.3068
16.3812
16.507
16.7109
17.0319
17.5248
18.2625
19.3252
16.2483
16.2661
16.3068
16.3812
16.507
16.7109
17.0319
17.5248
18.2625
19.3252
16.2483
16.2661
16.3068
16.3812
16.507
16.7109
17.0319
17.5249
18.2625
19.3252
16.2483
16.2661
16.3068
16.3812
16.507
16.7109
17.0319
17.5249
18.2625
19.3253
16.2483
16.2661
16.3069
16.3813
16.507
16.7109
17.032
17.5249
18.2626
19.3253
16.2484
16.2662
16.3069
16.3813
16.5071
16.711
17.032
17.525
18.2626
19.3254
13.9486
13.9709
14.0205
14.1081
14.2512
14.4767
14.8254
15.3601
16.1804
17.4398
13.9485
13.9708
14.0205
14.1081
14.2512
14.4767
14.8254
15.3601
16.1804
17.4397
13.9485
13.9708
14.0204
14.108
14.2511
14.4767
14.8253
15.36
16.1803
17.4397
13.9485
13.9708
14.0204
14.108
14.2511
14.4766
14.8253
15.36
16.1803
17.4396
13.9485
13.9707
14.0204
14.108
14.2511
14.4766
14.8253
15.36
16.1803
17.4396
13.9485
13.9707
14.0204
14.108
14.2511
14.4766
14.8253
15.36
16.1803
17.4396
13.9485
13.9708
14.0204
14.108
14.2511
14.4766
14.8253
15.36
16.1803
17.4396
13.9485
13.9708
14.0204
14.108
14.2511
14.4767
14.8253
15.36
16.1803
17.4397
13.9485
13.9708
14.0205
14.1081
14.2512
14.4767
14.8254
15.3601
16.1804
17.4397
13.9485
13.9708
14.0205
14.1081
14.2512
14.4767
14.8254
15.3601
16.1804
17.4398
11.9242
11.9482
12.0008
12.0913
12.2348
12.4543
12.7848
13.2833
14.0609
15.3992
11.9241
11.9482
12.0008
12.0913
12.2348
12.4543
12.7847
13.2833
14.0608
15.3991
11.9241
11.9482
12.0008
12.0913
12.2348
12.4543
12.7847
13.2832
14.0608
15.3991
11.9241
11.9481
12.0008
12.0912
12.2347
12.4542
12.7847
13.2832
14.0607
15.399
11.924
11.9481
12.0007
12.0912
12.2347
12.4542
12.7847
13.2832
14.0607
15.399
11.924
11.9481
12.0007
12.0912
12.2347
12.4542
12.7847
13.2832
14.0607
15.399
11.9241
11.9481
12.0008
12.0912
12.2347
12.4542
12.7847
13.2832
14.0608
15.399
11.9241
11.9481
12.0008
12.0913
12.2348
12.4543
12.7847
13.2832
14.0608
15.3991
11.9241
11.9482
12.0008
12.0913
12.2348
12.4543
12.7848
13.2833
14.0608
15.3991
11.9241
11.9482
12.0008
12.0913
12.2348
12.4544
12.7848
13.2833
14.0609
15.3992
35.1222
34.2443
35.0049
37.1815
40.7615
45.8695
52.7702
61.9332
74.2091
91.3014
35.1221
34.2442
35.0048
37.1814
40.7613
45.8694
52.7701
61.9331
74.2089
91.3012
35.122
34.2442
35.0047
37.1813
40.7613
45.8693
52.77
61.933
74.2088
91.3011
35.122
34.2441
35.0047
37.1812
40.7612
45.8692
52.77
61.9329
74.2088
91.3011
35.122
34.2441
35.0047
37.1812
40.7612
45.8692
52.7699
61.9329
74.2087
91.301
35.1219
34.2441
35.0047
37.1812
40.7612
45.8692
52.7699
61.9329
74.2087
91.301
35.122
34.2441
35.0047
37.1812
40.7612
45.8692
52.7699
61.9329
74.2087
91.301
35.122
34.2441
35.0047
37.1812
40.7612
45.8692
52.77
61.9329
74.2088
91.3011
35.122
34.2442
35.0048
37.1813
40.7613
45.8693
52.77
61.933
74.2089
91.3012
35.1221
34.2443
35.0048
37.1814
40.7613
45.8694
52.7701
61.9331
74.209
91.3013
33.3145
33.1842
34.2164
36.4528
39.9545
44.843
51.3179
59.6717
70.2825
83.4605
33.3144
33.1841
34.2163
36.4527
39.9544
44.8429
51.3178
59.6716
70.2824
83.4604
33.3143
33.184
34.2162
36.4526
39.9543
44.8428
51.3177
59.6715
70.2823
83.4603
33.3143
33.184
34.2162
36.4526
39.9542
44.8428
51.3177
59.6714
70.2822
83.4602
33.3143
33.1839
34.2161
36.4526
39.9542
44.8427
51.3176
59.6714
70.2822
83.4602
33.3143
33.1839
34.2161
36.4526
39.9542
44.8427
51.3176
59.6714
70.2822
83.4602
33.3143
33.1839
34.2161
36.4526
39.9542
44.8427
51.3176
59.6714
70.2822
83.4602
33.3143
33.184
34.2162
36.4526
39.9543
44.8428
51.3177
59.6714
70.2823
83.4603
33.3144
33.184
34.2162
36.4527
39.9543
44.8428
51.3178
59.6715
70.2824
83.4604
33.3144
33.1841
34.2163
36.4528
39.9544
44.8429
51.3179
59.6716
70.2825
83.4605
31.0812
31.5416
32.8507
35.1324
38.4797
42.9938
48.7937
56.0011
64.6751
74.6274
31.0811
31.5415
32.8506
35.1323
38.4796
42.9936
48.7936
56.001
64.675
74.6273
31.081
31.5414
32.8505
35.1322
38.4795
42.9936
48.7935
56.0009
64.6749
74.6272
31.081
31.5414
32.8505
35.1321
38.4794
42.9935
48.7934
56.0009
64.6748
74.6271
31.081
31.5414
32.8505
35.1321
38.4794
42.9935
48.7934
56.0008
64.6748
74.6271
31.081
31.5414
32.8504
35.1321
38.4794
42.9935
48.7934
56.0008
64.6748
74.6271
31.081
31.5414
32.8505
35.1321
38.4794
42.9935
48.7934
56.0008
64.6748
74.6271
31.081
31.5414
32.8505
35.1322
38.4795
42.9935
48.7934
56.0009
64.6749
74.6272
31.0811
31.5415
32.8506
35.1322
38.4795
42.9936
48.7935
56.001
64.675
74.6272
31.0811
31.5416
32.8507
35.1323
38.4796
42.9937
48.7936
56.0011
64.6751
74.6274
28.7786
29.6311
31.1376
33.4162
36.5526
40.6168
45.6624
51.705
58.668
66.2841
28.7785
29.631
31.1376
33.4161
36.5525
40.6167
45.6623
51.7048
58.6679
66.284
28.7785
29.6309
31.1375
33.416
36.5525
40.6166
45.6622
51.7048
58.6678
66.2839
28.7784
29.6309
31.1374
33.416
36.5524
40.6166
45.6622
51.7047
58.6677
66.2838
28.7784
29.6308
31.1374
33.416
36.5524
40.6166
45.6621
51.7047
58.6677
66.2838
28.7784
29.6308
31.1374
33.416
36.5524
40.6166
45.6621
51.7047
58.6677
66.2838
28.7784
29.6309
31.1374
33.416
36.5524
40.6166
45.6622
51.7047
58.6677
66.2838
28.7785
29.6309
31.1375
33.416
36.5524
40.6166
45.6622
51.7047
58.6678
66.2839
28.7785
29.631
31.1375
33.4161
36.5525
40.6167
45.6623
51.7048
58.6679
66.284
28.7786
29.631
31.1376
33.4162
36.5526
40.6168
45.6624
51.7049
58.668
66.2841
26.5341
27.6449
29.2738
31.5069
34.4057
38.009
42.3258
47.3189
52.8749
58.7666
26.534
27.6448
29.2737
31.5068
34.4056
38.0089
42.3257
47.3188
52.8748
58.7665
26.534
27.6447
29.2737
31.5067
34.4056
38.0088
42.3256
47.3187
52.8747
58.7664
26.5339
27.6447
29.2736
31.5066
34.4055
38.0087
42.3255
47.3186
52.8746
58.7663
26.5339
27.6447
29.2736
31.5066
34.4055
38.0087
42.3255
47.3186
52.8746
58.7663
26.5339
27.6447
29.2736
31.5066
34.4055
38.0087
42.3255
47.3186
52.8746
58.7663
26.5339
27.6447
29.2736
31.5066
34.4055
38.0087
42.3255
47.3186
52.8746
58.7663
26.534
27.6447
29.2736
31.5067
34.4055
38.0088
42.3256
47.3187
52.8747
58.7664
26.534
27.6448
29.2737
31.5068
34.4056
38.0089
42.3256
47.3188
52.8748
58.7665
26.5341
27.6449
29.2738
31.5068
34.4057
38.009
42.3258
47.3189
52.8749
58.7666
24.4166
25.7139
27.421
29.5891
32.2541
35.4284
39.0932
43.1876
47.5983
52.1548
24.4165
25.7138
27.4209
29.589
32.254
35.4283
39.0931
43.1875
47.5982
52.1547
24.4164
25.7138
27.4208
29.589
32.2539
35.4282
39.093
43.1874
47.5981
52.1546
24.4164
25.7137
27.4208
29.5889
32.2539
35.4282
39.093
43.1874
47.5981
52.1545
24.4164
25.7137
27.4207
29.5889
32.2539
35.4282
39.0929
43.1874
47.598
52.1545
24.4164
25.7137
27.4207
29.5889
32.2539
35.4282
39.0929
43.1874
47.598
52.1545
24.4164
25.7137
27.4208
29.5889
32.2539
35.4282
39.093
43.1874
47.5981
52.1545
24.4164
25.7138
27.4208
29.589
32.2539
35.4282
39.093
43.1874
47.5981
52.1546
24.4165
25.7138
27.4209
29.589
32.254
35.4283
39.0931
43.1875
47.5982
52.1547
24.4165
25.7139
27.421
29.5891
32.2541
35.4284
39.0932
43.1876
47.5983
52.1548
22.475
23.939
25.7142
27.8236
30.2834
33.0876
36.1991
39.5434
43.0112
46.474
22.4749
23.939
25.7141
27.8235
30.2833
33.0875
36.1989
39.5433
43.0111
46.4738
22.4749
23.9389
25.714
27.8235
30.2832
33.0875
36.1989
39.5432
43.011
46.4738
22.4748
23.9389
25.714
27.8234
30.2832
33.0874
36.1988
39.5431
43.011
46.4737
22.4748
23.9388
25.7139
27.8234
30.2832
33.0874
36.1988
39.5431
43.0109
46.4737
22.4748
23.9388
25.7139
27.8234
30.2832
33.0874
36.1988
39.5431
43.011
46.4737
22.4748
23.9389
25.714
27.8234
30.2832
33.0874
36.1988
39.5431
43.011
46.4737
22.4749
23.9389
25.714
27.8235
30.2832
33.0875
36.1989
39.5432
43.011
46.4738
22.4749
23.939
25.7141
27.8235
30.2833
33.0875
36.1989
39.5433
43.0111
46.4739
22.475
23.939
25.7142
27.8236
30.2834
33.0877
36.1991
39.5434
43.0113
46.474
20.7501
22.4093
24.2712
26.3479
28.649
31.1592
33.8275
36.5639
39.2464
41.753
20.75
22.4092
24.2712
26.3478
28.6489
31.1591
33.8274
36.5638
39.2463
41.7529
20.75
22.4091
24.2711
26.3477
28.6488
31.159
33.8273
36.5637
39.2462
41.7528
20.75
22.4091
24.2711
26.3477
28.6488
31.159
33.8273
36.5636
39.2462
41.7527
20.7499
22.4091
24.271
26.3477
28.6487
31.1589
33.8273
36.5636
39.2461
41.7527
20.7499
22.4091
24.271
26.3477
28.6487
31.1589
33.8273
36.5636
39.2461
41.7527
20.75
22.4091
24.2711
26.3477
28.6488
31.159
33.8273
36.5636
39.2462
41.7527
20.75
22.4091
24.2711
26.3478
28.6488
31.159
33.8273
36.5637
39.2462
41.7528
20.75
22.4092
24.2712
26.3478
28.6489
31.1591
33.8274
36.5638
39.2463
41.7529
20.7501
22.4093
24.2713
26.3479
28.649
31.1592
33.8275
36.5639
39.2464
41.753
19.2928
21.2224
23.2029
25.2794
27.4775
29.7825
32.1322
34.4125
36.4571
38.0722
19.2927
21.2223
23.2028
25.2793
27.4774
29.7824
32.1321
34.4124
36.457
38.0721
19.2927
21.2222
23.2028
25.2793
27.4773
29.7823
32.132
34.4123
36.4569
38.072
19.2926
21.2222
23.2027
25.2792
27.4773
29.7822
32.132
34.4122
36.4569
38.072
19.2926
21.2222
23.2027
25.2792
27.4773
29.7822
32.1319
34.4122
36.4569
38.0719
19.2926
21.2222
23.2027
25.2792
27.4773
29.7822
32.1319
34.4122
36.4569
38.0719
19.2926
21.2222
23.2027
25.2792
27.4773
29.7823
32.132
34.4122
36.4569
38.072
19.2927
21.2223
23.2028
25.2793
27.4774
29.7823
32.132
34.4123
36.457
38.072
19.2927
21.2223
23.2028
25.2794
27.4774
29.7824
32.1321
34.4124
36.457
38.0721
19.2928
21.2224
23.2029
25.2795
27.4775
29.7825
32.1322
34.4125
36.4572
38.0723
18.2461
20.5201
22.6202
24.7143
26.8645
29.0634
31.2417
33.2598
34.8819
35.7035
18.2461
20.52
22.6201
24.7143
26.8645
29.0633
31.2416
33.2597
34.8818
35.7035
18.246
20.52
22.6201
24.7142
26.8644
29.0633
31.2415
33.2597
34.8817
35.7034
18.246
20.52
22.62
24.7142
26.8644
29.0632
31.2415
33.2596
34.8817
35.7033
18.246
20.5199
22.62
24.7142
26.8643
29.0632
31.2415
33.2596
34.8816
35.7033
18.246
20.5199
22.62
24.7142
26.8643
29.0632
31.2415
33.2596
34.8816
35.7033
18.246
20.52
22.62
24.7142
26.8644
29.0633
31.2415
33.2596
34.8817
35.7034
18.2461
20.52
22.6201
24.7142
26.8644
29.0633
31.2415
33.2597
34.8817
35.7034
18.2461
20.5201
22.6201
24.7143
26.8645
29.0634
31.2416
33.2598
34.8818
35.7035
18.2462
20.5201
22.6202
24.7144
26.8646
29.0635
31.2417
33.2599
34.8819
35.7036
117.158
129.46
137.004
142.287
146.198
149.135
151.312
152.857
153.849
154.335
117.158
129.46
137.004
142.287
146.198
149.135
151.312
152.857
153.849
154.335
117.158
129.46
137.003
142.287
146.197
149.134
151.312
152.857
153.849
154.335
117.158
129.459
137.003
142.287
146.197
149.134
151.312
152.857
153.849
154.334
117.158
129.459
137.003
142.287
146.197
149.134
151.312
152.857
153.849
154.334
117.158
129.459
137.003
142.287
146.197
149.134
151.312
152.857
153.849
154.334
117.158
129.459
137.003
142.287
146.197
149.134
151.312
152.857
153.849
154.335
117.158
129.46
137.003
142.287
146.197
149.134
151.312
152.857
153.849
154.335
117.158
129.46
137.003
142.287
146.198
149.135
151.312
152.857
153.849
154.335
117.158
129.46
137.004
142.287
146.198
149.135
151.312
152.857
153.849
154.335
98.5516
109.535
117.303
122.943
127.131
130.261
132.568
134.198
135.241
135.751
98.5514
109.535
117.303
122.943
127.131
130.26
132.568
134.198
135.241
135.751
98.5513
109.535
117.303
122.943
127.131
130.26
132.568
134.198
135.241
135.75
98.5512
109.535
117.303
122.943
127.131
130.26
132.568
134.198
135.241
135.75
98.5512
109.535
117.303
122.943
127.13
130.26
132.567
134.198
135.241
135.75
98.5512
109.535
117.303
122.943
127.13
130.26
132.567
134.198
135.241
135.75
98.5512
109.535
117.303
122.943
127.131
130.26
132.568
134.198
135.241
135.75
98.5513
109.535
117.303
122.943
127.131
130.26
132.568
134.198
135.241
135.75
98.5514
109.535
117.303
122.943
127.131
130.26
132.568
134.198
135.241
135.751
98.5515
109.535
117.303
122.943
127.131
130.261
132.568
134.198
135.241
135.751
85.0027
93.8005
100.728
106.066
110.153
113.254
115.557
117.19
118.237
118.749
85.0026
93.8003
100.728
106.066
110.153
113.254
115.557
117.19
118.237
118.749
85.0025
93.8002
100.727
106.066
110.153
113.254
115.557
117.19
118.237
118.749
85.0024
93.8001
100.727
106.066
110.153
113.253
115.557
117.19
118.237
118.749
85.0024
93.8001
100.727
106.066
110.153
113.253
115.557
117.19
118.237
118.749
85.0024
93.8001
100.727
106.066
110.153
113.253
115.557
117.19
118.237
118.749
85.0024
93.8001
100.727
106.066
110.153
113.253
115.557
117.19
118.237
118.749
85.0025
93.8002
100.727
106.066
110.153
113.254
115.557
117.19
118.237
118.749
85.0026
93.8003
100.728
106.066
110.153
113.254
115.557
117.19
118.237
118.749
85.0027
93.8004
100.728
106.066
110.153
113.254
115.557
117.19
118.237
118.749
73.9748
80.9061
86.7337
91.4538
95.1911
98.0894
100.272
101.834
102.84
103.333
73.9746
80.9059
86.7335
91.4536
95.1909
98.0892
100.272
101.834
102.84
103.333
73.9745
80.9058
86.7334
91.4535
95.1908
98.0891
100.272
101.833
102.84
103.333
73.9745
80.9057
86.7333
91.4534
95.1908
98.0891
100.272
101.833
102.84
103.333
73.9744
80.9057
86.7333
91.4534
95.1907
98.089
100.272
101.833
102.84
103.333
73.9744
80.9057
86.7333
91.4534
95.1907
98.089
100.272
101.833
102.84
103.333
73.9745
80.9057
86.7333
91.4534
95.1908
98.0891
100.272
101.833
102.84
103.333
73.9745
80.9058
86.7334
91.4535
95.1908
98.0892
100.272
101.833
102.84
103.333
73.9746
80.9059
86.7335
91.4536
95.1909
98.0893
100.272
101.834
102.84
103.333
73.9748
80.9061
86.7337
91.4538
95.1911
98.0894
100.272
101.834
102.84
103.334
64.6364
70.0721
74.8271
78.8244
82.0859
84.6729
86.6531
88.0856
89.0156
89.4732
64.6363
70.072
74.8269
78.8243
82.0858
84.6728
86.6529
88.0854
89.0155
89.4731
64.6362
70.0719
74.8268
78.8242
82.0857
84.6727
86.6528
88.0853
89.0154
89.4731
64.6361
70.0718
74.8268
78.8241
82.0856
84.6726
86.6528
88.0853
89.0153
89.473
64.6361
70.0718
74.8267
78.8241
82.0856
84.6726
86.6527
88.0852
89.0153
89.473
64.6361
70.0718
74.8267
78.8241
82.0856
84.6726
86.6527
88.0852
89.0153
89.473
64.6361
70.0718
74.8268
78.8241
82.0856
84.6726
86.6528
88.0853
89.0154
89.473
64.6362
70.0719
74.8268
78.8242
82.0857
84.6727
86.6529
88.0854
89.0154
89.4731
64.6363
70.072
74.8269
78.8243
82.0858
84.6728
86.653
88.0855
89.0156
89.4732
64.6364
70.0721
74.8271
78.8244
82.086
84.673
86.6531
88.0856
89.0157
89.4734
56.6442
60.8559
64.6374
67.9097
70.651
72.8732
74.6031
75.8701
76.6996
77.1098
56.644
60.8557
64.6373
67.9095
70.6508
72.8731
74.603
75.87
76.6995
77.1097
56.6439
60.8556
64.6372
67.9094
70.6507
72.873
74.6029
75.8699
76.6994
77.1096
56.6439
60.8556
64.6371
67.9094
70.6507
72.8729
74.6028
75.8698
76.6994
77.1095
56.6438
60.8555
64.6371
67.9093
70.6506
72.8729
74.6028
75.8698
76.6993
77.1095
56.6438
60.8555
64.6371
67.9093
70.6506
72.8729
74.6028
75.8698
76.6994
77.1095
56.6439
60.8556
64.6371
67.9094
70.6507
72.8729
74.6029
75.8699
76.6994
77.1096
56.6439
60.8557
64.6372
67.9095
70.6507
72.873
74.6029
75.87
76.6995
77.1097
56.644
60.8558
64.6373
67.9096
70.6509
72.8731
74.6031
75.8701
76.6996
77.1098
56.6442
60.8559
64.6374
67.9097
70.651
72.8733
74.6032
75.8702
76.6998
77.1099
49.8188
52.9817
55.889
58.4757
60.7004
62.5445
64.0056
65.0899
65.8063
66.1624
49.8187
52.9816
55.8888
58.4756
60.7003
62.5443
64.0055
65.0898
65.8062
66.1623
49.8186
52.9815
55.8887
58.4755
60.7002
62.5442
64.0054
65.0897
65.8061
66.1623
49.8186
52.9814
55.8887
58.4754
60.7001
62.5442
64.0053
65.0897
65.8061
66.1622
49.8185
52.9814
55.8886
58.4754
60.7001
62.5441
64.0053
65.0896
65.8061
66.1622
49.8185
52.9814
55.8886
58.4754
60.7001
62.5441
64.0053
65.0896
65.8061
66.1622
49.8186
52.9814
55.8887
58.4755
60.7001
62.5442
64.0053
65.0897
65.8061
66.1623
49.8186
52.9815
55.8888
58.4755
60.7002
62.5443
64.0054
65.0898
65.8062
66.1623
49.8187
52.9816
55.8889
58.4756
60.7003
62.5444
64.0055
65.0899
65.8063
66.1624
49.8189
52.9817
55.889
58.4758
60.7004
62.5445
64.0057
65.09
65.8065
66.1626
44.0389
46.2453
48.3603
50.3186
52.0588
53.5389
54.7348
55.6352
56.236
56.5363
44.0388
46.2452
48.3602
50.3185
52.0587
53.5388
54.7347
55.6351
56.2358
56.5362
44.0387
46.2451
48.3601
50.3184