/*--------------------------------*- C++ -*----------------------------------*\
  =========                 |
  \\      /  F ield         | OpenFOAM: The Open Source CFD Toolbox
   \\    /   O peration     | Website:  https://openfoam.org
    \\  /    A nd           | Version:  6
     \\/     M anipulation  |
\*---------------------------------------------------------------------------*/
FoamFile
{
    version     2.0;
    format      ascii;
    class       surfaceScalarField;
    location    "0.1";
    object      phi;
}
// * * * * * * * * * * * * * * * * * * * * * * * * * * * * * * * * * * * * * //

dimensions      [0 3 -1 0 0 0 0];

internalField   nonuniform List<scalar> 
162400
(
-3.10156e-10
1.45192e-09
5.5093e-06
7.26505e-10
2.3605e-09
1.14818e-05
2.77715e-09
2.16919e-09
1.50989e-05
4.77459e-09
1.52112e-09
1.7238e-05
5.59131e-09
6.51165e-10
1.82355e-05
4.68414e-09
-3.75277e-10
1.82161e-05
2.45582e-09
-1.52339e-09
1.71818e-05
1.93242e-10
-2.64043e-09
1.50139e-05
-6.30864e-10
-3.27556e-09
1.13881e-05
-2.31768e-09
5.44882e-06
8.38798e-10
3.58147e-09
1.15395e-05
5.14644e-09
6.18427e-09
2.67756e-05
1.17603e-08
6.08667e-09
3.67658e-05
1.77922e-08
4.60508e-09
4.28653e-05
2.04104e-08
2.35811e-09
4.57517e-05
1.82002e-08
-3.82555e-10
4.57101e-05
1.20006e-08
-3.40098e-09
4.27454e-05
4.82452e-09
-6.17631e-09
3.65869e-05
4.04699e-10
-7.48919e-09
2.65844e-05
-4.92948e-09
1.14268e-05
2.08571e-09
5.21477e-09
1.53751e-05
9.72733e-09
9.57718e-09
3.72991e-05
2.05884e-08
9.94972e-09
5.23284e-05
3.02392e-08
8.00557e-09
6.17279e-05
3.44862e-08
4.68967e-09
6.62315e-05
3.12128e-08
5.16152e-10
6.61743e-05
2.15447e-08
-4.05668e-09
6.15634e-05
9.81153e-09
-8.13611e-09
5.20843e-05
1.68465e-09
-9.91877e-09
3.70412e-05
-6.34525e-09
1.52272e-05
3.02658e-09
6.08355e-09
1.79928e-05
1.33064e-08
1.17494e-08
4.47018e-05
2.75476e-08
1.27674e-08
6.3531e-05
4.00614e-08
1.08371e-08
7.55151e-05
4.55667e-08
7.07359e-09
8.13123e-05
4.1402e-08
2.17286e-09
8.12408e-05
2.89413e-08
-3.21434e-09
7.53098e-05
1.35924e-08
-7.9682e-09
6.32274e-05
2.60355e-09
-1.00518e-08
4.43829e-05
-6.38312e-09
1.78117e-05
3.58555e-09
6.2121e-09
1.98306e-05
1.56671e-08
1.24923e-08
4.99617e-05
3.23192e-08
1.40867e-08
7.15872e-05
4.68951e-08
1.25113e-08
8.55194e-05
5.32775e-08
8.88907e-09
9.2305e-05
4.84011e-08
3.98995e-09
9.22191e-05
3.38658e-08
-1.45047e-09
8.52733e-05
1.59412e-08
-6.2688e-09
7.12247e-05
3.06553e-09
-8.50947e-09
4.9583e-05
-5.47184e-09
1.96171e-05
3.83934e-09
5.71632e-09
2.11286e-05
1.70093e-08
1.18634e-08
5.36947e-05
3.52304e-08
1.37787e-08
7.73402e-05
5.11791e-08
1.26947e-08
9.26995e-05
5.81253e-08
9.61566e-09
0.000100215
5.27181e-08
5.27668e-09
0.000100115
3.67511e-08
3.85459e-10
9.24139e-05
1.715e-08
-4.00489e-09
7.69214e-05
3.19071e-09
-6.22732e-09
5.32596e-05
-4.14154e-09
2.08848e-05
3.90025e-09
4.72457e-09
2.20346e-05
1.76501e-08
1.00377e-08
5.63056e-05
3.68106e-08
1.19223e-08
8.13763e-05
5.3611e-08
1.12953e-08
9.77503e-05
6.08952e-08
8.9597e-09
0.000105786
5.51189e-08
5.52944e-09
0.000105674
3.82285e-08
1.59617e-09
9.74294e-05
1.76216e-08
-1.99802e-09
8.09077e-05
3.12694e-09
-3.97831e-09
5.58213e-05
-2.79779e-09
2.17649e-05
3.86697e-09
3.35994e-09
2.26445e-05
1.78826e-08
7.25436e-09
5.80646e-05
3.75604e-08
8.75188e-09
8.40995e-05
5.48536e-08
8.45458e-09
0.000101163
6.23275e-08
6.91689e-09
0.000109552
5.63129e-08
4.57426e-09
0.00010943
3.88662e-08
1.84557e-09
0.000100813
1.77024e-08
-6.9113e-10
8.35909e-05
2.99284e-09
-2.18749e-09
5.75412e-05
-1.65505e-09
2.23546e-05
3.80991e-09
1.7436e-09
2.30203e-05
1.79251e-08
3.80016e-09
5.91487e-05
3.78602e-08
4.62684e-09
8.5779e-05
5.54137e-08
4.52112e-09
0.000103268
6.29853e-08
3.7649e-09
0.000111877
5.68318e-08
2.58287e-09
0.000111747
3.90798e-08
1.1907e-09
0.000102899
1.76363e-08
-1.19417e-10
8.52427e-05
2.8671e-09
-9.26421e-10
5.85984e-05
-7.51675e-10
2.27166e-05
3.77164e-09
-2.76259e-13
2.31993e-05
1.79143e-08
-3.4559e-13
5.96653e-05
3.79525e-08
-5.7061e-13
8.65796e-05
5.56162e-08
-6.03435e-13
0.000104272
6.32284e-08
-5.35314e-13
0.000112986
5.70117e-08
-4.36575e-13
0.000112852
3.91265e-08
-3.40009e-13
0.000103893
1.75699e-08
-2.50175e-13
8.60292e-05
2.79443e-09
-1.54233e-13
5.91014e-05
-8.22291e-14
2.28887e-05
3.77168e-09
-1.74421e-09
2.31993e-05
1.79144e-08
-3.80092e-09
5.96653e-05
3.79526e-08
-4.62806e-09
8.65796e-05
5.56164e-08
-4.52239e-09
0.000104272
6.32285e-08
-3.766e-09
0.000112986
5.70117e-08
-2.58376e-09
0.000112852
3.91265e-08
-1.19138e-09
0.000103893
1.75699e-08
1.18916e-10
8.60292e-05
2.79443e-09
9.26115e-10
5.91014e-05
7.51512e-10
2.28887e-05
3.81006e-09
-3.3607e-09
2.30203e-05
1.79255e-08
-7.25536e-09
5.91487e-05
3.78607e-08
-8.75335e-09
8.5779e-05
5.54142e-08
-8.45602e-09
0.000103268
6.29857e-08
-6.9181e-09
0.000111877
5.6832e-08
-4.5752e-09
0.000111747
3.908e-08
-1.84627e-09
0.000102899
1.76364e-08
6.90628e-10
8.52427e-05
2.86712e-09
2.18719e-09
5.85984e-05
1.65489e-09
2.27166e-05
3.86728e-09
-4.72567e-09
2.26445e-05
1.78833e-08
-1.00392e-08
5.80646e-05
3.75613e-08
-1.19243e-08
8.40995e-05
5.48545e-08
-1.1297e-08
0.000101163
6.23283e-08
-8.96108e-09
0.000109552
5.63134e-08
-5.53046e-09
0.00010943
3.88666e-08
-1.59689e-09
0.000100813
1.77025e-08
1.99752e-09
8.35909e-05
2.99287e-09
3.97803e-09
5.75412e-05
2.79764e-09
2.23546e-05
3.90089e-09
-5.71814e-09
2.20346e-05
1.76514e-08
-1.18656e-08
5.63056e-05
3.68122e-08
-1.37813e-08
8.13763e-05
5.36124e-08
-1.26969e-08
9.77503e-05
6.08964e-08
-9.61727e-09
0.000105786
5.51198e-08
-5.27779e-09
0.000105674
3.8229e-08
-3.86207e-10
9.74294e-05
1.76218e-08
4.0044e-09
8.09077e-05
3.12698e-09
6.22706e-09
5.58213e-05
4.14139e-09
2.17649e-05
3.84067e-09
-6.21552e-09
2.11286e-05
1.70116e-08
-1.2496e-08
5.36947e-05
3.52331e-08
-1.40904e-08
7.73402e-05
5.11814e-08
-1.25141e-08
9.26995e-05
5.8127e-08
-8.89092e-09
0.000100215
5.27193e-08
-3.99112e-09
0.000100115
3.67517e-08
1.44974e-09
9.24139e-05
1.71504e-08
6.26837e-09
7.69214e-05
3.19077e-09
8.50927e-09
5.32596e-05
5.47171e-09
2.08849e-05
3.58843e-09
-6.09082e-09
1.98306e-05
1.56712e-08
-1.17556e-08
4.99617e-05
3.23234e-08
-1.27727e-08
7.15872e-05
4.68985e-08
-1.08405e-08
8.55194e-05
5.32799e-08
-7.0756e-09
9.2305e-05
4.84027e-08
-2.17397e-09
9.22192e-05
3.38666e-08
3.21376e-09
8.52733e-05
1.59416e-08
7.96792e-09
7.12247e-05
3.0656e-09
1.00517e-08
4.9583e-05
6.38305e-09
1.96171e-05
3.03247e-09
-5.23099e-09
1.79928e-05
1.33138e-08
-9.58813e-09
4.47018e-05
2.75542e-08
-9.95738e-09
6.3531e-05
4.00662e-08
-8.00974e-09
7.55151e-05
4.55698e-08
-4.69171e-09
8.13123e-05
4.14038e-08
-5.17053e-10
8.12408e-05
2.89423e-08
4.05635e-09
7.53098e-05
1.35928e-08
8.13606e-09
6.32274e-05
2.60363e-09
9.91888e-09
4.43829e-05
6.34526e-09
1.78117e-05
2.09615e-09
-3.61717e-09
1.53751e-05
9.74047e-09
-6.20556e-09
3.72991e-05
2.05982e-08
-6.09715e-09
5.23284e-05
3.02454e-08
-4.6098e-09
6.17279e-05
3.44898e-08
-2.36008e-09
6.62315e-05
3.12147e-08
3.81883e-10
6.61743e-05
2.15456e-08
3.40086e-09
6.15634e-05
9.81187e-09
6.17641e-09
5.20843e-05
1.68473e-09
7.48941e-09
3.70412e-05
4.92952e-09
1.52272e-05
8.69994e-10
-1.54988e-09
1.15395e-05
5.1699e-09
-2.39068e-09
2.67756e-05
1.17727e-08
-2.17856e-09
3.67658e-05
1.77987e-08
-1.52607e-09
4.28653e-05
2.04136e-08
-6.53333e-10
4.57517e-05
1.82016e-08
3.74454e-10
4.57101e-05
1.20011e-08
1.52311e-09
4.27454e-05
4.82468e-09
2.64037e-09
3.65869e-05
4.04712e-10
3.27557e-09
2.65844e-05
2.31766e-09
1.14268e-05
-2.11626e-10
5.50936e-06
7.63198e-10
1.14819e-05
2.79408e-09
1.50989e-05
4.78198e-09
1.7238e-05
5.59439e-09
1.82355e-05
4.6854e-09
1.82161e-05
2.4563e-09
1.71818e-05
1.93389e-10
1.50139e-05
-6.30864e-10
1.13881e-05
5.44882e-06
-2.25062e-09
4.11755e-09
5.50742e-06
-2.41179e-09
6.54063e-09
1.14755e-05
4.31636e-10
5.80022e-09
1.50902e-05
4.11673e-09
3.44251e-09
1.72309e-05
5.93616e-09
2.02911e-10
1.82335e-05
4.41503e-09
-3.54512e-09
1.82212e-05
3.69466e-10
-7.44341e-09
1.71933e-05
-3.1832e-09
-1.07547e-08
1.50282e-05
-2.94494e-09
-1.18817e-08
1.13998e-05
-7.5478e-09
5.45342e-06
-1.04615e-09
1.00394e-08
1.15346e-05
4.95715e-09
1.71826e-08
2.67589e-05
1.76931e-08
1.6077e-08
3.67428e-05
3.08701e-08
1.01784e-08
4.28454e-05
3.73879e-08
1.48059e-09
4.57439e-05
3.32661e-08
-8.71774e-09
4.57194e-05
2.01782e-08
-1.90693e-08
4.27701e-05
5.48384e-09
-2.7265e-08
3.66181e-05
-1.71551e-09
-2.90657e-08
2.66088e-05
-1.72817e-08
1.14348e-05
1.52528e-09
1.47632e-08
1.53688e-05
1.53775e-08
2.65823e-08
3.72758e-05
3.86984e-08
2.59558e-08
5.22952e-05
6.12666e-08
1.73946e-08
6.16981e-05
7.22502e-08
3.99341e-09
6.6218e-05
6.55846e-08
-1.19021e-08
6.61842e-05
4.35787e-08
-2.7775e-08
6.15941e-05
1.71897e-08
-3.9756e-08
5.21232e-05
8.98904e-10
-4.15408e-08
3.707e-05
-2.3833e-08
1.52346e-05
3.7455e-09
1.72519e-08
1.79865e-05
2.43107e-08
3.24163e-08
4.46754e-05
5.65669e-08
3.28596e-08
6.34919e-05
8.69021e-08
2.32382e-08
7.54789e-05
1.01392e-07
7.27714e-09
8.12945e-05
9.23401e-08
-1.18832e-08
8.12498e-05
6.27115e-08
-3.08199e-08
7.53424e-05
2.65692e-08
-4.46627e-08
6.32685e-05
2.90504e-09
-4.61786e-08
4.44112e-05
-2.58381e-08
1.78167e-05
5.06628e-09
1.75344e-08
1.98253e-05
3.03383e-08
3.41414e-08
4.99347e-05
6.91244e-08
3.57597e-08
7.15456e-05
1.05156e-07
2.65613e-08
8.548e-05
1.22083e-07
1.03733e-08
9.2285e-05
1.11001e-07
-9.31373e-09
9.22277e-05
7.55376e-08
-2.86674e-08
8.53066e-05
3.23133e-08
-4.25451e-08
7.12658e-05
3.77407e-09
-4.38592e-08
4.96092e-05
-2.41316e-08
1.96191e-05
5.56203e-09
1.60015e-08
2.11246e-05
3.36109e-08
3.20729e-08
5.36687e-05
7.66229e-08
3.45324e-08
7.72984e-05
1.16428e-07
2.67554e-08
9.26595e-05
1.34884e-07
1.22262e-08
0.000100194
1.22241e-07
-5.68536e-09
0.000100124
8.27218e-08
-2.32689e-08
9.2448e-05
3.49262e-08
-3.57642e-08
7.69624e-05
3.73591e-09
-3.69928e-08
5.32839e-05
-2.01466e-08
2.08846e-05
5.50771e-09
1.31021e-08
2.2032e-05
3.4886e-08
2.68577e-08
5.62814e-05
8.03217e-08
2.95578e-08
8.13359e-05
1.22396e-07
2.3687e-08
9.77112e-05
1.41721e-07
1.20716e-08
0.000105767
1.27983e-07
-2.43724e-09
0.000105684
8.58871e-08
-1.66978e-08
9.74649e-05
3.54637e-08
-2.68126e-08
8.09492e-05
3.1851e-09
-2.79534e-08
5.58445e-05
-1.51446e-08
2.17631e-05
5.19565e-09
9.24115e-09
2.26432e-05
3.50146e-08
1.92482e-08
5.80424e-05
8.16629e-08
2.15216e-08
8.40609e-05
1.24968e-07
1.76732e-08
0.000101125
1.44736e-07
9.67382e-09
0.000109535
1.30297e-07
-4.30331e-10
0.000109442
8.67083e-08
-1.03851e-08
0.000100851
3.49571e-08
-1.74589e-08
8.36333e-05
2.4787e-09
-1.83793e-08
5.75641e-05
-9.93942e-09
2.23518e-05
4.85987e-09
4.76909e-09
2.30199e-05
3.47029e-08
1.00287e-08
5.9128e-05
8.18626e-08
1.1321e-08
8.5742e-05
1.25759e-07
9.43437e-09
0.000103233
1.45726e-07
5.37703e-09
0.000111861
1.30886e-07
2.13307e-10
0.000111761
8.6522e-08
-4.88476e-09
0.000102938
3.41982e-08
-8.51657e-09
8.52861e-05
1.87635e-09
-9.03777e-09
5.86214e-05
-4.88691e-09
2.27134e-05
4.65452e-09
-2.97477e-13
2.31995e-05
3.44288e-08
-3.58447e-13
5.96456e-05
8.17546e-08
-6.19873e-13
8.65436e-05
1.25877e-07
-6.69374e-13
0.000104238
1.45915e-07
-6.02061e-13
0.000112971
1.30896e-07
-4.94463e-13
0.000112867
8.62127e-08
-3.83119e-13
0.000103933
3.36966e-08
-2.74896e-13
8.60732e-05
1.53794e-09
-1.60767e-13
5.91245e-05
-8.56361e-14
2.28854e-05
4.65457e-09
-4.76973e-09
2.31995e-05
3.44289e-08
-1.00295e-08
5.96456e-05
8.17548e-08
-1.13223e-08
8.65436e-05
1.25878e-07
-9.43578e-09
0.000104238
1.45915e-07
-5.37828e-09
0.000112971
1.30896e-07
-2.14324e-10
0.000112867
8.62128e-08
4.88397e-09
0.000103933
3.36967e-08
8.51601e-09
8.60732e-05
1.53794e-09
9.03744e-09
5.91245e-05
4.88674e-09
2.28854e-05
4.86002e-09
-9.24196e-09
2.30199e-05
3.47032e-08
-1.92492e-08
5.9128e-05
8.18631e-08
-2.15232e-08
8.5742e-05
1.2576e-07
-1.76748e-08
0.000103233
1.45726e-07
-9.67522e-09
0.000111861
1.30886e-07
4.2923e-10
0.000111761
8.65222e-08
1.03843e-08
0.000102938
3.41984e-08
1.74583e-08
8.52861e-05
1.87637e-09
1.83789e-08
5.86214e-05
9.93924e-09
2.27134e-05
5.19596e-09
-1.31032e-08
2.26432e-05
3.50153e-08
-2.68592e-08
5.80424e-05
8.16638e-08
-2.95598e-08
8.40609e-05
1.24969e-07
-2.3689e-08
0.000101125
1.44737e-07
-1.20732e-08
0.000109535
1.30298e-07
2.43602e-09
0.000109442
8.67087e-08
1.66969e-08
0.000100851
3.49573e-08
2.6812e-08
8.36333e-05
2.47874e-09
2.79531e-08
5.75641e-05
1.51444e-08
2.23518e-05
5.50831e-09
-1.60033e-08
2.2032e-05
3.48873e-08
-3.20752e-08
5.62814e-05
8.03233e-08
-3.45352e-08
8.13359e-05
1.22397e-07
-2.67578e-08
9.77113e-05
1.41722e-07
-1.2228e-08
0.000105767
1.27983e-07
5.68404e-09
0.000105684
8.58877e-08
2.3268e-08
9.7465e-05
3.5464e-08
3.57636e-08
8.09492e-05
3.18515e-09
3.69925e-08
5.58445e-05
2.01464e-08
2.17631e-05
5.56323e-09
-1.75375e-08
2.11246e-05
3.36132e-08
-3.41449e-08
5.36687e-05
7.66255e-08
-3.57635e-08
7.72984e-05
1.16431e-07
-2.65643e-08
9.26595e-05
1.34886e-07
-1.03753e-08
0.000100194
1.22243e-07
9.31245e-09
0.000100124
8.27226e-08
2.86666e-08
9.2448e-05
3.49266e-08
4.25446e-08
7.69625e-05
3.73598e-09
4.38591e-08
5.32839e-05
2.41315e-08
2.08846e-05
5.0687e-09
-1.72577e-08
1.98253e-05
3.03423e-08
-3.24219e-08
4.99347e-05
6.91286e-08
-3.28648e-08
7.15456e-05
1.0516e-07
-2.32417e-08
8.54801e-05
1.22085e-07
-7.27917e-09
9.2285e-05
1.11003e-07
1.18822e-08
9.22277e-05
7.55386e-08
3.08195e-08
8.53066e-05
3.23138e-08
4.46626e-08
7.12658e-05
3.77415e-09
4.61787e-08
4.96092e-05
2.5838e-08
1.96191e-05
3.75018e-09
-1.47746e-08
1.79865e-05
2.43175e-08
-2.65913e-08
4.46754e-05
5.65734e-08
-2.59629e-08
6.34919e-05
8.6907e-08
-1.73986e-08
7.54789e-05
1.01396e-07
-3.99527e-09
8.12945e-05
9.23421e-08
1.19014e-08
8.12498e-05
6.27126e-08
2.7775e-08
7.53424e-05
2.65697e-08
3.97562e-08
6.32685e-05
2.90513e-09
4.15411e-08
4.44112e-05
2.3833e-08
1.78167e-05
1.53343e-09
-1.00598e-08
1.53688e-05
1.53888e-08
-1.71964e-08
3.72758e-05
3.87079e-08
-1.60856e-08
5.22952e-05
6.1273e-08
-1.01826e-08
6.16981e-05
7.22541e-08
-1.48221e-09
6.6218e-05
6.55868e-08
8.71736e-09
6.61842e-05
4.35797e-08
1.90694e-08
6.15941e-05
1.71901e-08
2.72653e-08
5.21232e-05
8.98984e-10
2.90661e-08
3.707e-05
1.72818e-08
1.52346e-05
-1.03237e-09
-4.14481e-09
1.15346e-05
4.97318e-09
-6.55342e-09
2.67589e-05
1.77039e-08
-5.80718e-09
3.67428e-05
3.08764e-08
-3.44608e-09
4.28453e-05
3.73911e-08
-2.04425e-10
4.57439e-05
3.32676e-08
3.54462e-09
4.57194e-05
2.01787e-08
7.44335e-09
4.27701e-05
5.48394e-09
1.07548e-08
3.66181e-05
-1.71543e-09
1.18818e-08
2.66088e-05
7.54781e-09
1.14348e-05
-2.22281e-09
5.50744e-06
-2.39032e-09
1.14755e-05
4.43793e-10
1.50902e-05
4.12286e-09
1.72309e-05
5.93907e-09
1.82335e-05
4.41633e-09
1.82212e-05
3.69983e-10
1.71933e-05
-3.18306e-09
1.50282e-05
-2.94489e-09
1.13998e-05
5.45342e-06
-3.17942e-09
7.89652e-09
5.5027e-06
-1.62847e-09
1.21974e-08
1.14617e-05
5.8077e-09
1.06207e-08
1.50722e-05
1.47243e-08
6.15991e-09
1.72158e-05
1.97062e-08
1.05948e-10
1.82284e-05
1.74505e-08
-6.9207e-09
1.82304e-05
8.87578e-09
-1.43323e-08
1.72162e-05
-5.11743e-10
-2.08289e-08
1.50584e-05
-3.45199e-09
-2.34493e-08
1.14262e-05
-1.53166e-08
5.46528e-06
4.34765e-10
1.87799e-08
1.15233e-05
1.60367e-08
3.16013e-08
2.67239e-05
4.48263e-08
2.91611e-08
3.66955e-05
7.43111e-08
1.80811e-08
4.28039e-05
9.03749e-08
1.94365e-09
4.5726e-05
8.42371e-08
-1.70024e-08
4.57356e-05
5.75338e-08
-3.64296e-08
4.28189e-05
2.36455e-08
-5.21915e-08
3.66833e-05
1.9139e-09
-5.63006e-08
2.66634e-05
-3.4071e-08
1.14555e-05
6.1463e-09
2.72429e-08
1.53542e-05
3.81394e-08
4.84223e-08
3.7227e-05
8.86873e-08
4.67304e-08
5.22271e-05
1.37691e-07
3.07158e-08
6.16365e-05
1.6372e-07
5.97353e-09
6.61879e-05
1.53522e-07
-2.33575e-08
6.62007e-05
1.0928e-07
-5.28408e-08
6.16548e-05
5.0915e-08
-7.54839e-08
5.22048e-05
8.77667e-09
-7.94464e-08
3.71353e-05
-4.61457e-08
1.52555e-05
1.09345e-08
3.15445e-08
1.79713e-05
5.67077e-08
5.86206e-08
4.46194e-05
1.25385e-07
5.87915e-08
6.34111e-05
1.90318e-07
4.08199e-08
7.54039e-05
2.24033e-07
1.14512e-08
8.12553e-05
2.09808e-07
-2.37193e-08
8.12644e-05
1.50614e-07
-5.86002e-08
7.54074e-05
7.21001e-08
-8.4383e-08
6.33559e-05
1.38178e-08
-8.75795e-08
4.44777e-05
-4.9445e-08
1.78338e-05
1.38941e-08
3.18411e-08
1.98111e-05
6.94184e-08
6.13775e-08
4.98764e-05
1.51399e-07
6.36387e-08
7.14587e-05
2.28038e-07
4.64415e-08
8.53978e-05
2.6712e-07
1.67194e-08
9.22407e-05
2.4936e-07
-1.92749e-08
9.2241e-05
1.78661e-07
-5.46883e-08
8.53734e-05
8.54489e-08
-8.02303e-08
7.13549e-05
1.63403e-08
-8.2778e-08
4.96735e-05
-4.58473e-08
1.96319e-05
1.52187e-08
2.8901e-08
2.11123e-05
7.67054e-08
5.73809e-08
5.36112e-05
1.67465e-07
6.11766e-08
7.72101e-05
2.51982e-07
4.65948e-08
9.25748e-05
2.94522e-07
1.99492e-08
0.000100149
2.73992e-07
-1.27057e-08
0.000100138
1.95203e-07
-4.47175e-08
9.25168e-05
9.23036e-08
-6.74992e-08
7.70526e-05
1.69393e-08
-6.96804e-08
5.33462e-05
-3.81303e-08
2.08938e-05
1.54386e-08
2.35647e-08
2.20219e-05
8.00345e-08
4.7866e-08
5.62264e-05
1.76029e-07
5.2172e-08
8.12489e-05
2.65431e-07
4.1118e-08
9.76273e-05
3.10043e-07
1.98246e-08
0.000105722
2.87551e-07
-6.57571e-09
0.0001057
2.03526e-07
-3.24417e-08
9.75367e-05
9.48213e-08
-5.07523e-08
8.10412e-05
1.64238e-08
-5.26618e-08
5.59059e-05
-2.86247e-08
2.177e-05
1.51009e-08
1.65697e-08
2.26351e-05
8.09992e-08
3.42074e-08
5.79901e-05
1.79798e-07
3.78847e-08
8.39764e-05
2.71984e-07
3.06056e-08
0.000101044
3.17749e-07
1.59405e-08
0.000109493
2.93994e-07
-2.42293e-09
0.000109462
2.0685e-07
-2.04337e-08
0.000100926
9.49957e-08
-3.31756e-08
8.37276e-05
1.54853e-08
-3.46717e-08
5.76256e-05
-1.87891e-08
2.23575e-05
1.46394e-08
8.53515e-09
2.30133e-05
8.09081e-08
1.7792e-08
5.90782e-05
1.81027e-07
1.98955e-08
8.56599e-05
2.74642e-07
1.63143e-08
0.000103153
3.20991e-07
8.87471e-09
0.000111822
2.96511e-07
-5.03951e-10
0.000111784
2.07696e-07
-9.71434e-09
0.000103016
9.43242e-08
-1.62371e-08
8.53825e-05
1.46142e-08
-1.7074e-08
5.86835e-05
-9.24388e-09
2.27185e-05
1.43394e-08
-3.05925e-13
2.31937e-05
8.06442e-08
-3.56291e-13
5.95971e-05
1.81258e-07
-6.45547e-13
8.64629e-05
2.75459e-07
-7.13235e-13
0.00010416
3.22045e-07
-6.51925e-13
0.000112933
2.97242e-07
-5.40071e-13
0.000112892
2.07716e-07
-4.16667e-13
0.000104013
9.37606e-08
-2.90635e-13
8.61709e-05
1.41093e-08
-1.58602e-13
5.91871e-05
-8.6177e-14
2.28902e-05
1.43394e-08
-8.53581e-09
2.31937e-05
8.06444e-08
-1.77928e-08
5.95971e-05
1.81258e-07
-1.98969e-08
8.64629e-05
2.75459e-07
-1.63158e-08
0.00010416
3.22046e-07
-8.87605e-09
0.000112933
2.97242e-07
5.02844e-10
0.000112892
2.07716e-07
9.71349e-09
0.000104013
9.37606e-08
1.62365e-08
8.61709e-05
1.41093e-08
1.70737e-08
5.91871e-05
9.24371e-09
2.28902e-05
1.46395e-08
-1.65705e-08
2.30133e-05
8.09084e-08
-3.42084e-08
5.90782e-05
1.81027e-07
-3.78864e-08
8.56599e-05
2.74643e-07
-3.06073e-08
0.000103153
3.20991e-07
-1.5942e-08
0.000111822
2.96511e-07
2.42175e-09
0.000111784
2.07696e-07
2.04328e-08
0.000103016
9.43244e-08
3.3175e-08
8.53825e-05
1.46142e-08
3.46714e-08
5.86835e-05
1.8789e-08
2.27185e-05
1.51011e-08
-2.35658e-08
2.26351e-05
8.09999e-08
-4.78674e-08
5.79901e-05
1.79799e-07
-5.2174e-08
8.39764e-05
2.71985e-07
-4.11201e-08
0.000101044
3.1775e-07
-1.98263e-08
0.000109493
2.93994e-07
6.57442e-09
0.000109462
2.06851e-07
3.24408e-08
0.000100926
9.49959e-08
5.07517e-08
8.37276e-05
1.54853e-08
5.26615e-08
5.76256e-05
2.86245e-08
2.23575e-05
1.54391e-08
-2.89026e-08
2.20219e-05
8.00357e-08
-5.73829e-08
5.62264e-05
1.76031e-07
-6.11792e-08
8.12489e-05
2.65433e-07
-4.65973e-08
9.76273e-05
3.10044e-07
-1.9951e-08
0.000105722
2.87552e-07
1.27044e-08
0.0001057
2.03527e-07
4.47165e-08
9.75367e-05
9.48216e-08
6.74986e-08
8.10412e-05
1.64239e-08
6.96802e-08
5.59059e-05
3.81302e-08
2.177e-05
1.52196e-08
-3.18436e-08
2.11123e-05
7.67074e-08
-6.13805e-08
5.36112e-05
1.67467e-07
-6.36422e-08
7.72101e-05
2.51984e-07
-4.64444e-08
9.25748e-05
2.94524e-07
-1.67215e-08
0.000100149
2.73993e-07
1.92736e-08
0.000100138
1.95204e-07
5.46875e-08
9.25168e-05
9.2304e-08
8.02298e-08
7.70526e-05
1.69394e-08
8.27778e-08
5.33462e-05
4.58472e-08
2.08938e-05
1.38959e-08
-3.15488e-08
1.98111e-05
6.94218e-08
-5.86251e-08
4.98764e-05
1.51403e-07
-5.87961e-08
7.14587e-05
2.28042e-07
-4.08231e-08
8.53978e-05
2.67122e-07
-1.14532e-08
9.22407e-05
2.49361e-07
2.37183e-08
9.2241e-05
1.78662e-07
5.85997e-08
8.53734e-05
8.54494e-08
8.43828e-08
7.13549e-05
1.63404e-08
8.75796e-08
4.96735e-05
4.9445e-08
1.96319e-05
1.09377e-08
-2.725e-08
1.79713e-05
5.67133e-08
-4.84291e-08
4.46194e-05
1.25391e-07
-4.67362e-08
6.34112e-05
1.90322e-07
-3.07194e-08
7.54039e-05
2.24036e-07
-5.9753e-09
8.12553e-05
2.0981e-07
2.33568e-08
8.12644e-05
1.50615e-07
5.28406e-08
7.54074e-05
7.21007e-08
7.5484e-08
6.33559e-05
1.38179e-08
7.94467e-08
4.44777e-05
4.61457e-08
1.78338e-05
6.15173e-09
-1.87901e-08
1.53542e-05
3.81481e-08
-3.161e-08
3.7227e-05
8.86953e-08
-2.91675e-08
5.22271e-05
1.37697e-07
-1.80844e-08
6.16365e-05
1.63724e-07
-1.94503e-09
6.61879e-05
1.53524e-07
1.7002e-08
6.62007e-05
1.09281e-07
3.64297e-08
6.16548e-05
5.09154e-08
5.21917e-08
5.22048e-05
8.77675e-09
5.63009e-08
3.71353e-05
3.40711e-08
1.52555e-05
4.42024e-10
-7.90513e-09
1.15233e-05
1.60473e-08
-1.22038e-08
2.67239e-05
4.48347e-08
-1.06251e-08
3.66955e-05
7.43163e-08
-6.1623e-09
4.28039e-05
9.03778e-08
-1.07057e-10
4.5726e-05
8.42385e-08
6.92025e-09
4.57356e-05
5.75344e-08
1.43321e-08
4.28189e-05
2.36456e-08
2.08289e-08
3.66833e-05
1.91393e-09
2.34494e-08
2.66634e-05
1.53166e-08
1.14555e-05
-3.17034e-09
5.50271e-06
-1.61731e-09
1.14617e-05
5.81556e-09
1.50722e-05
1.47289e-08
1.72158e-05
1.97086e-08
1.82284e-05
1.74517e-08
1.82304e-05
8.87631e-09
1.72162e-05
-5.11543e-10
1.50584e-05
-3.45194e-09
1.14262e-05
5.46528e-06
-2.11771e-09
1.36752e-08
5.49114e-06
6.40161e-09
2.04116e-08
1.14328e-05
2.54371e-08
1.74956e-08
1.50356e-05
4.63657e-08
1.02792e-08
1.71846e-05
5.90934e-08
6.71986e-10
1.8215e-05
5.67121e-08
-1.05773e-08
1.82433e-05
3.92419e-08
-2.28412e-08
1.72565e-05
1.55068e-08
-3.43473e-08
1.51165e-05
5.19478e-10
-4.04636e-08
1.14816e-05
-2.78935e-08
5.4937e-06
8.11139e-09
3.14427e-08
1.14974e-05
4.76466e-08
5.18831e-08
2.66529e-05
1.10708e-07
4.75758e-08
3.66023e-05
1.73932e-07
3.00776e-08
4.27209e-05
2.11372e-07
4.90285e-09
4.56843e-05
2.05018e-07
-2.49102e-08
4.57563e-05
1.53844e-07
-5.6377e-08
4.29036e-05
7.90036e-08
-8.35457e-08
3.68074e-05
1.86596e-08
-9.35227e-08
2.67768e-05
-5.89673e-08
1.15052e-05
2.02182e-08
4.47361e-08
1.53207e-05
9.19343e-08
7.85226e-08
3.71287e-05
1.96729e-07
7.57033e-08
5.20942e-05
2.97803e-07
5.09275e-08
6.15145e-05
3.56175e-07
1.28702e-08
6.61216e-05
3.44988e-07
-3.26342e-08
6.62196e-05
2.62454e-07
-7.95494e-08
6.17605e-05
1.39895e-07
-1.17668e-07
5.23615e-05
3.60061e-08
-1.27977e-07
3.72736e-05
-7.69766e-08
1.53095e-05
2.99098e-08
5.11675e-08
1.7935e-05
1.27862e-07
9.42646e-08
4.45057e-05
2.6661e-07
9.47397e-08
6.32534e-05
3.97905e-07
6.74407e-08
7.52561e-05
4.72105e-07
2.28211e-08
8.11712e-05
4.55561e-07
-3.10817e-08
8.12794e-05
3.46584e-07
-8.57716e-08
7.55226e-05
1.85576e-07
-1.28358e-07
6.35276e-05
4.82854e-08
-1.37466e-07
4.46244e-05
-8.01445e-08
1.78852e-05
3.61179e-08
5.12303e-08
1.97749e-05
1.52748e-07
9.81182e-08
4.97559e-05
3.16435e-07
1.02134e-07
7.12876e-05
4.69939e-07
7.64446e-08
8.52353e-05
5.55265e-07
3.17697e-08
9.21464e-05
5.33751e-07
-2.28315e-08
9.22542e-05
4.04391e-07
-7.76961e-08
8.54946e-05
2.15264e-07
-1.19272e-07
7.15349e-05
5.52339e-08
-1.27055e-07
4.98231e-05
-7.26112e-08
1.96796e-05
3.93666e-08
4.62451e-08
2.10779e-05
1.67891e-07
9.13451e-08
5.34895e-05
3.48411e-07
9.78689e-08
7.70339e-05
5.17144e-07
7.64194e-08
9.24061e-05
6.09873e-07
3.67306e-08
0.000100051
5.84363e-07
-1.23916e-08
0.000100153
4.40491e-07
-6.15259e-08
9.26445e-05
2.32378e-07
-9.82092e-08
7.72397e-05
5.83242e-08
-1.04902e-07
5.34981e-05
-5.92641e-08
2.09388e-05
4.06002e-08
3.7567e-08
2.199e-05
1.75924e-07
7.59719e-08
5.61064e-05
3.66964e-07
8.32573e-08
8.10724e-05
5.45502e-07
6.72194e-08
9.7458e-05
6.4293e-07
3.57345e-08
0.000105626
6.14557e-07
-3.72241e-09
0.00010572
4.61073e-07
-4.31506e-08
9.76718e-05
2.41025e-07
-7.24105e-08
8.12354e-05
5.91021e-08
-7.79993e-08
5.60609e-05
-4.38301e-08
2.18137e-05
4.07244e-08
2.63521e-08
2.26055e-05
1.79498e-07
5.41841e-08
5.78731e-05
3.76616e-07
6.03492e-08
8.38022e-05
5.61069e-07
4.99069e-08
0.000100876
6.61334e-07
2.83401e-08
0.0001094
6.31108e-07
1.02098e-09
0.000109487
4.71707e-07
-2.6304e-08
0.000101068
2.44678e-07
-4.65638e-08
8.39288e-05
5.87744e-08
-5.07047e-08
5.77842e-05
-2.84529e-08
2.24009e-05
4.04351e-08
1.35558e-08
2.29856e-05
1.8072e-07
2.81494e-08
5.89639e-05
3.81015e-07
3.16585e-08
8.54883e-05
5.68721e-07
2.656e-08
0.000102989
6.70567e-07
1.56556e-08
0.000111733
6.39279e-07
1.74154e-09
0.000111815
4.76577e-07
-1.21937e-08
0.000103165
2.45834e-07
-2.25359e-08
8.55892e-05
5.81586e-08
-2.47647e-08
5.88452e-05
-1.39019e-08
2.27621e-05
4.01821e-08
-3.01435e-13
2.3167e-05
1.80989e-07
-3.38157e-13
5.94844e-05
3.8261e-07
-6.48691e-13
8.62929e-05
5.71737e-07
-7.36564e-13
0.000103997
6.74284e-07
-6.86382e-13
0.000112846
6.42521e-07
-5.75118e-13
0.000112925
4.78365e-07
-4.42388e-13
0.000104165
2.46045e-07
-2.9943e-13
8.63807e-05
5.77396e-08
-1.49615e-13
5.93506e-05
-8.46507e-14
2.29341e-05
4.01821e-08
-1.35564e-08
2.3167e-05
1.80989e-07
-2.81501e-08
5.94844e-05
3.8261e-07
-3.16598e-08
8.62929e-05
5.71737e-07
-2.65615e-08
0.000103997
6.74284e-07
-1.5657e-08
0.000112846
6.42521e-07
-1.74271e-09
0.000112925
4.78365e-07
1.21928e-08
0.000104165
2.46045e-07
2.25353e-08
8.63807e-05
5.77396e-08
2.47644e-08
5.93506e-05
1.39018e-08
2.29341e-05
4.04352e-08
-2.63529e-08
2.29856e-05
1.80721e-07
-5.4185e-08
5.89639e-05
3.81015e-07
-6.03508e-08
8.54883e-05
5.68722e-07
-4.99086e-08
0.000102989
6.70568e-07
-2.83416e-08
0.000111733
6.39279e-07
-1.02222e-09
0.000111815
4.76577e-07
2.63031e-08
0.000103165
2.45834e-07
4.65632e-08
8.55892e-05
5.81586e-08
5.07044e-08
5.88452e-05
2.84528e-08
2.27621e-05
4.07247e-08
-3.75679e-08
2.26055e-05
1.79499e-07
-7.59731e-08
5.78731e-05
3.76617e-07
-8.32593e-08
8.38022e-05
5.6107e-07
-6.72214e-08
0.000100876
6.61335e-07
-3.57361e-08
0.0001094
6.31109e-07
3.7211e-09
0.000109487
4.71708e-07
4.31497e-08
0.000101068
2.44678e-07
7.24099e-08
8.39288e-05
5.87745e-08
7.7999e-08
5.77842e-05
4.38299e-08
2.24009e-05
4.06007e-08
-4.62464e-08
2.199e-05
1.75925e-07
-9.13468e-08
5.61064e-05
3.66965e-07
-9.78713e-08
8.10724e-05
5.45504e-07
-7.64217e-08
9.7458e-05
6.42931e-07
-3.67325e-08
0.000105626
6.14558e-07
1.23902e-08
0.00010572
4.61074e-07
6.15249e-08
9.76718e-05
2.41025e-07
9.82087e-08
8.12354e-05
5.91021e-08
1.04902e-07
5.60609e-05
5.9264e-08
2.18137e-05
3.93673e-08
-5.12323e-08
2.10779e-05
1.67893e-07
-9.81206e-08
5.34895e-05
3.48414e-07
-1.02137e-07
7.70339e-05
5.17146e-07
-7.64473e-08
9.24061e-05
6.09874e-07
-3.17716e-08
0.000100051
5.84364e-07
2.28302e-08
0.000100153
4.40492e-07
7.76953e-08
9.26445e-05
2.32379e-07
1.19271e-07
7.72397e-05
5.83243e-08
1.27054e-07
5.34981e-05
7.26112e-08
2.09388e-05
3.61192e-08
-5.11706e-08
1.97749e-05
1.52751e-07
-9.42682e-08
4.97559e-05
3.16438e-07
-9.47436e-08
7.12877e-05
4.69942e-07
-6.74436e-08
8.52353e-05
5.55267e-07
-2.2823e-08
9.21464e-05
5.33753e-07
3.10806e-08
9.22543e-05
4.04392e-07
8.57711e-08
8.54946e-05
2.15264e-07
1.28358e-07
7.15349e-05
5.5234e-08
1.37466e-07
4.98231e-05
8.01444e-08
1.96796e-05
2.99121e-08
-4.47406e-08
1.7935e-05
1.27867e-07
-7.85277e-08
4.45057e-05
2.66615e-07
-7.57079e-08
6.32534e-05
3.97909e-07
-5.09305e-08
7.52561e-05
4.72108e-07
-1.28719e-08
8.11712e-05
4.55563e-07
3.26334e-08
8.12794e-05
3.46586e-07
7.95491e-08
7.55226e-05
1.85577e-07
1.17668e-07
6.35276e-05
4.82855e-08
1.27977e-07
4.46244e-05
7.69766e-08
1.78852e-05
2.02219e-08
-3.14485e-08
1.53207e-05
9.19408e-08
-5.18893e-08
3.71287e-05
1.96736e-07
-4.75805e-08
5.20942e-05
2.97808e-07
-3.00803e-08
6.15145e-05
3.56178e-07
-4.90413e-09
6.61216e-05
3.44989e-07
2.49096e-08
6.62196e-05
2.62455e-07
5.63769e-08
6.17605e-05
1.39896e-07
8.35458e-08
5.23615e-05
3.60061e-08
9.35228e-08
3.72736e-05
5.89673e-08
1.53095e-05
8.11629e-09
-1.36796e-08
1.14974e-05
4.76542e-08
-2.0416e-08
2.66529e-05
1.10715e-07
-1.74986e-08
3.66023e-05
1.73936e-07
-1.02809e-08
4.27209e-05
2.11375e-07
-6.7291e-10
4.56843e-05
2.05019e-07
1.05768e-08
4.57563e-05
1.53845e-07
2.28409e-08
4.29036e-05
7.90038e-08
3.43472e-08
3.68074e-05
1.86597e-08
4.04635e-08
2.67768e-05
2.78934e-08
1.15052e-05
-2.11302e-09
5.49114e-06
6.40817e-09
1.14328e-05
2.54423e-08
1.50356e-05
4.63691e-08
1.71846e-05
5.90954e-08
1.8215e-05
5.67132e-08
1.82433e-05
3.92425e-08
1.72565e-05
1.5507e-08
1.51165e-05
5.19574e-10
1.14816e-05
5.4937e-06
2.27874e-09
2.235e-08
5.46651e-06
2.61622e-08
3.22795e-08
1.13766e-05
6.81017e-08
2.7326e-08
1.49664e-05
1.12555e-07
1.65171e-08
1.71236e-05
1.41881e-07
2.43885e-09
1.81833e-05
1.42494e-07
-1.42426e-08
1.8257e-05
1.1092e-07
-3.32214e-08
1.73213e-05
5.90791e-08
-5.25529e-08
1.52209e-05
1.50564e-08
-6.57367e-08
1.15914e-05
-4.82102e-08
5.55696e-06
2.56822e-08
4.96803e-08
1.14444e-05
1.11654e-07
8.04618e-08
2.65187e-05
2.38024e-07
7.36376e-08
3.64296e-05
3.64222e-07
4.82561e-08
4.2563e-05
4.45474e-07
1.22108e-08
4.55933e-05
4.469e-07
-3.09824e-08
4.57716e-05
3.58251e-07
-7.8343e-08
4.30374e-05
2.07602e-07
-1.22545e-07
3.7028e-05
6.37799e-08
-1.4455e-07
2.69994e-05
-9.60059e-08
1.16168e-05
4.91791e-08
6.92909e-08
1.52519e-05
1.94208e-07
1.20251e-07
3.69438e-05
3.96012e-07
1.16415e-07
5.18496e-05
5.91838e-07
8.15093e-08
6.12855e-05
7.15049e-07
2.80767e-08
6.59825e-05
7.14144e-07
-3.6595e-08
6.62261e-05
5.73878e-07
-1.05597e-07
6.1928e-05
3.35736e-07
-1.65904e-07
5.2643e-05
1.04087e-07
-1.89595e-07
3.75503e-05
-1.19609e-07
1.54372e-05
6.73597e-08
7.82604e-08
1.78586e-05
2.59302e-07
1.43154e-07
4.42908e-05
5.21178e-07
1.44999e-07
6.29629e-05
7.71516e-07
1.0759e-07
7.49797e-05
9.25964e-07
4.60364e-08
8.09987e-05
9.20374e-07
-2.9308e-08
8.12777e-05
7.36889e-07
-1.08217e-07
7.57087e-05
4.29515e-07
-1.7411e-07
6.38432e-05
1.32094e-07
-1.96136e-07
4.49284e-05
-1.19826e-07
1.80175e-05
7.93164e-08
7.77196e-08
1.96961e-05
3.04819e-07
1.48163e-07
4.95254e-05
6.10848e-07
1.55757e-07
7.09709e-05
9.01247e-07
1.21498e-07
8.4931e-05
1.07781e-06
6.08304e-08
9.1955e-05
1.06705e-06
-1.44157e-08
9.22501e-05
8.50163e-07
-9.2361e-08
8.56957e-05
4.9205e-07
-1.5562e-07
7.18746e-05
1.49257e-07
-1.75164e-07