/*--------------------------------*- C++ -*----------------------------------*\
  =========                 |
  \\      /  F ield         | OpenFOAM: The Open Source CFD Toolbox
   \\    /   O peration     | Website:  https://openfoam.org
    \\  /    A nd           | Version:  6
     \\/     M anipulation  |
\*---------------------------------------------------------------------------*/
FoamFile
{
    version     2.0;
    format      ascii;
    class       volScalarField;
    location    "0.82";
    object      T;
}
// * * * * * * * * * * * * * * * * * * * * * * * * * * * * * * * * * * * * * //

dimensions      [0 0 0 1 0 0 0];

internalField   nonuniform List<scalar> 
7000
(
106.464
106.462
106.459
106.455
106.45
106.444
106.438
106.433
106.429
106.427
106.464
106.462
106.459
106.455
106.45
106.444
106.438
106.433
106.429
106.427
106.464
106.462
106.459
106.455
106.45
106.444
106.438
106.433
106.429
106.427
106.464
106.462
106.459
106.455
106.45
106.444
106.438
106.433
106.429
106.427
106.464
106.462
106.459
106.455
106.45
106.444
106.438
106.433
106.429
106.427
106.464
106.462
106.459
106.455
106.45
106.444
106.438
106.433
106.429
106.427
106.464
106.462
106.459
106.455
106.45
106.444
106.438
106.433
106.429
106.427
106.464
106.462
106.459
106.455
106.45
106.444
106.438
106.433
106.429
106.427
106.464
106.462
106.459
106.455
106.45
106.444
106.438
106.433
106.429
106.427
106.464
106.462
106.459
106.455
106.45
106.444
106.438
106.433
106.429
106.427
99.4139
99.4091
99.3997
99.3865
99.3704
99.3528
99.3353
99.3198
99.3081
99.3018
99.4139
99.409
99.3997
99.3865
99.3704
99.3528
99.3353
99.3198
99.3081
99.3018
99.4139
99.409
99.3997
99.3865
99.3704
99.3528
99.3353
99.3197
99.308
99.3018
99.4139
99.409
99.3997
99.3865
99.3704
99.3528
99.3353
99.3197
99.308
99.3018
99.4139
99.409
99.3997
99.3865
99.3704
99.3528
99.3353
99.3197
99.308
99.3018
99.4139
99.409
99.3997
99.3865
99.3704
99.3528
99.3353
99.3197
99.308
99.3018
99.4139
99.409
99.3997
99.3865
99.3704
99.3528
99.3353
99.3197
99.308
99.3018
99.4139
99.409
99.3997
99.3865
99.3704
99.3528
99.3353
99.3197
99.308
99.3018
99.4139
99.409
99.3997
99.3865
99.3704
99.3528
99.3353
99.3197
99.3081
99.3018
99.4139
99.409
99.3997
99.3865
99.3704
99.3528
99.3353
99.3198
99.3081
99.3018
92.4308
92.4226
92.4066
92.384
92.3562
92.3255
92.2948
92.2674
92.2465
92.2353
92.4308
92.4226
92.4066
92.3839
92.3562
92.3255
92.2948
92.2674
92.2465
92.2353
92.4308
92.4225
92.4066
92.3839
92.3562
92.3255
92.2948
92.2673
92.2465
92.2352
92.4308
92.4225
92.4066
92.3839
92.3561
92.3255
92.2948
92.2673
92.2465
92.2352
92.4308
92.4225
92.4066
92.3839
92.3561
92.3255
92.2948
92.2673
92.2465
92.2352
92.4308
92.4225
92.4066
92.3839
92.3561
92.3255
92.2948
92.2673
92.2465
92.2352
92.4308
92.4225
92.4066
92.3839
92.3561
92.3255
92.2948
92.2673
92.2465
92.2352
92.4308
92.4225
92.4066
92.3839
92.3561
92.3255
92.2948
92.2673
92.2465
92.2352
92.4308
92.4225
92.4066
92.3839
92.3562
92.3255
92.2948
92.2673
92.2465
92.2353
92.4308
92.4225
92.4066
92.3839
92.3562
92.3255
92.2948
92.2674
92.2465
92.2353
85.5583
85.5464
85.5233
85.4903
85.4495
85.4039
85.3576
85.3157
85.2834
85.2658
85.5583
85.5464
85.5233
85.4903
85.4494
85.4039
85.3576
85.3156
85.2834
85.2658
85.5583
85.5464
85.5233
85.4902
85.4494
85.4038
85.3576
85.3156
85.2834
85.2657
85.5583
85.5464
85.5233
85.4902
85.4494
85.4038
85.3576
85.3156
85.2834
85.2657
85.5583
85.5464
85.5232
85.4902
85.4494
85.4038
85.3576
85.3156
85.2834
85.2657
85.5583
85.5464
85.5232
85.4902
85.4494
85.4038
85.3576
85.3156
85.2834
85.2657
85.5583
85.5464
85.5232
85.4902
85.4494
85.4038
85.3576
85.3156
85.2834
85.2657
85.5583
85.5464
85.5233
85.4902
85.4494
85.4038
85.3576
85.3156
85.2834
85.2657
85.5583
85.5464
85.5233
85.4902
85.4494
85.4038
85.3576
85.3156
85.2834
85.2657
85.5583
85.5464
85.5233
85.4903
85.4494
85.4039
85.3576
85.3157
85.2834
85.2658
78.8389
78.8231
78.7922
78.7477
78.6921
78.629
78.5637
78.5031
78.4555
78.429
78.8388
78.823
78.7922
78.7477
78.692
78.6289
78.5636
78.5031
78.4555
78.429
78.8388
78.823
78.7922
78.7477
78.692
78.6289
78.5636
78.503
78.4554
78.4289
78.8388
78.823
78.7921
78.7477
78.692
78.6289
78.5636
78.503
78.4554
78.4289
78.8388
78.823
78.7921
78.7476
78.692
78.6289
78.5636
78.503
78.4554
78.4289
78.8388
78.823
78.7921
78.7476
78.692
78.6289
78.5636
78.503
78.4554
78.4289
78.8388
78.823
78.7921
78.7476
78.692
78.6289
78.5636
78.503
78.4554
78.4289
78.8388
78.823
78.7921
78.7477
78.692
78.6289
78.5636
78.503
78.4554
78.4289
78.8388
78.823
78.7922
78.7477
78.692
78.6289
78.5636
78.503
78.4554
78.4289
78.8388
78.823
78.7922
78.7477
78.692
78.6289
78.5636
78.5031
78.4555
78.429
72.313
72.2932
72.2541
72.1972
72.1249
72.0411
71.952
71.8665
71.797
71.7571
72.313
72.2932
72.2541
72.1972
72.1249
72.0411
71.9519
71.8665
71.797
71.757
72.313
72.2931
72.2541
72.1972
72.1249
72.0411
71.9519
71.8665
71.7969
71.757
72.313
72.2931
72.254
72.1972
72.1248
72.041
71.9519
71.8665
71.7969
71.757
72.313
72.2931
72.254
72.1971
72.1248
72.041
71.9519
71.8664
71.7969
71.757
72.3129
72.2931
72.254
72.1971
72.1248
72.041
71.9519
71.8664
71.7969
71.757
72.313
72.2931
72.254
72.1972
72.1248
72.041
71.9519
71.8665
71.7969
71.757
72.313
72.2931
72.2541
72.1972
72.1248
72.041
71.9519
71.8665
71.7969
71.757
72.313
72.2931
72.2541
72.1972
72.1249
72.0411
71.9519
71.8665
71.797
71.757
72.313
72.2931
72.2541
72.1972
72.1249
72.0411
71.9519
71.8665
71.797
71.7571
66.0189
65.9951
65.9479
65.8783
65.7879
65.6802
65.5613
65.4418
65.339
65.2766
66.0189
65.9951
65.9479
65.8782
65.7879
65.6802
65.5613
65.4417
65.3389
65.2766
66.0189
65.995
65.9479
65.8782
65.7879
65.6802
65.5612
65.4417
65.3389
65.2765
66.0188
65.995
65.9478
65.8782
65.7878
65.6802
65.5612
65.4417
65.3389
65.2765
66.0188
65.995
65.9478
65.8782
65.7878
65.6801
65.5612
65.4417
65.3389
65.2765
66.0188
65.995
65.9478
65.8782
65.7878
65.6801
65.5612
65.4417
65.3389
65.2765
66.0188
65.995
65.9478
65.8782
65.7878
65.6801
65.5612
65.4417
65.3389
65.2765
66.0188
65.995
65.9478
65.8782
65.7878
65.6802
65.5612
65.4417
65.3389
65.2765
66.0189
65.9951
65.9479
65.8782
65.7879
65.6802
65.5612
65.4417
65.3389
65.2766
66.0189
65.9951
65.9479
65.8782
65.7879
65.6802
65.5613
65.4418
65.339
65.2766
59.9914
59.9642
59.9098
59.8283
59.7201
59.5866
59.4316
59.2651
59.1089
59.0043
59.9914
59.9642
59.9098
59.8283
59.7201
59.5866
59.4316
59.265
59.1089
59.0042
59.9914
59.9641
59.9098
59.8283
59.7201
59.5865
59.4316
59.265
59.1088
59.0042
59.9913
59.9641
59.9097
59.8282
59.72
59.5865
59.4315
59.265
59.1088
59.0042
59.9913
59.9641
59.9097
59.8282
59.72
59.5865
59.4315
59.265
59.1088
59.0042
59.9913
59.9641
59.9097
59.8282
59.72
59.5865
59.4315
59.265
59.1088
59.0041
59.9913
59.9641
59.9097
59.8282
59.72
59.5865
59.4315
59.265
59.1088
59.0042
59.9913
59.9641
59.9097
59.8282
59.7201
59.5865
59.4315
59.265
59.1088
59.0042
59.9914
59.9641
59.9098
59.8283
59.7201
59.5865
59.4316
59.265
59.1089
59.0042
59.9914
59.9642
59.9098
59.8283
59.7201
59.5866
59.4316
59.2651
59.1089
59.0043
54.2614
54.232
54.1727
54.0825
53.9597
53.8019
53.6073
53.3782
53.1332
52.9367
54.2613
54.2319
54.1726
54.0824
53.9596
53.8019
53.6073
53.3782
53.1331
52.9367
54.2613
54.2319
54.1726
54.0824
53.9596
53.8019
53.6073
53.3781
53.1331
52.9366
54.2613
54.2318
54.1726
54.0824
53.9596
53.8018
53.6072
53.3781
53.1331
52.9366
54.2613
54.2318
54.1726
54.0824
53.9596
53.8018
53.6072
53.3781
53.1331
52.9366
54.2613
54.2318
54.1726
54.0824
53.9596
53.8018
53.6072
53.3781
53.1331
52.9366
54.2613
54.2318
54.1726
54.0824
53.9596
53.8018
53.6072
53.3781
53.1331
52.9366
54.2613
54.2319
54.1726
54.0824
53.9596
53.8018
53.6072
53.3781
53.1331
52.9366
54.2613
54.2319
54.1726
54.0824
53.9596
53.8019
53.6073
53.3782
53.1331
52.9367
54.2613
54.2319
54.1726
54.0825
53.9597
53.8019
53.6073
53.3782
53.1332
52.9367
48.8545
48.8248
48.7647
48.672
48.5428
48.3701
48.1421
47.8412
47.452
47.0224
48.8544
48.8248
48.7646
48.6719
48.5427
48.37
48.142
47.8412
47.4519
47.0224
48.8544
48.8247
48.7646
48.6719
48.5427
48.37
48.142
47.8411
47.4519
47.0223
48.8544
48.8247
48.7646
48.6719
48.5427
48.37
48.1419
47.8411
47.4518
47.0223
48.8544
48.8247
48.7645
48.6718
48.5427
48.3699
48.1419
47.8411
47.4518
47.0223
48.8544
48.8247
48.7645
48.6718
48.5426
48.3699
48.1419
47.8411
47.4518
47.0223
48.8544
48.8247
48.7645
48.6718
48.5427
48.3699
48.1419
47.8411
47.4518
47.0223
48.8544
48.8247
48.7646
48.6719
48.5427
48.37
48.142
47.8411
47.4518
47.0223
48.8544
48.8247
48.7646
48.6719
48.5427
48.37
48.142
47.8411
47.4519
47.0223
48.8544
48.8248
48.7646
48.6719
48.5428
48.3701
48.142
47.8412
47.4519
47.0224
43.7904
43.7631
43.7077
43.6219
43.5007
43.3341
43.1016
42.758
42.1914
41.0728
43.7904
43.7631
43.7077
43.6218
43.5006
43.3341
43.1016
42.758
42.1913
41.0727
43.7903
43.763
43.7076
43.6218
43.5006
43.334
43.1015
42.7579
42.1913
41.0727
43.7903
43.763
43.7076
43.6218
43.5005
43.334
43.1015
42.7579
42.1913
41.0726
43.7903
43.763
43.7076
43.6217
43.5005
43.334
43.1015
42.7579
42.1912
41.0726
43.7903
43.763
43.7076
43.6217
43.5005
43.334
43.1015
42.7579
42.1912
41.0726
43.7903
43.763
43.7076
43.6218
43.5005
43.334
43.1015
42.7579
42.1913
41.0726
43.7903
43.763
43.7076
43.6218
43.5006
43.334
43.1015
42.7579
42.1913
41.0726
43.7903
43.7631
43.7077
43.6218
43.5006
43.334
43.1016
42.7579
42.1913
41.0727
43.7904
43.7631
43.7077
43.6219
43.5006
43.3341
43.1016
42.758
42.1914
41.0727
39.0817
39.0598
39.0157
38.9479
38.8534
38.7249
38.5475
38.291
37.8995
37.2893
39.0817
39.0598
39.0156
38.9479
38.8533
38.7249
38.5474
38.291
37.8994
37.2893
39.0817
39.0598
39.0156
38.9478
38.8533
38.7248
38.5474
38.2909
37.8994
37.2892
39.0816
39.0597
39.0156
38.9478
38.8533
38.7248
38.5473
38.2909
37.8993
37.2892
39.0816
39.0597
39.0155
38.9478
38.8533
38.7248
38.5473
38.2909
37.8993
37.2892
39.0816
39.0597
39.0155
38.9478
38.8532
38.7248
38.5473
38.2909
37.8993
37.2892
39.0816
39.0597
39.0155
38.9478
38.8533
38.7248
38.5473
38.2909
37.8993
37.2892
39.0816
39.0597
39.0156
38.9478
38.8533
38.7248
38.5474
38.2909
37.8993
37.2892
39.0817
39.0598
39.0156
38.9479
38.8533
38.7248
38.5474
38.291
37.8994
37.2892
39.0817
39.0598
39.0156
38.9479
38.8534
38.7249
38.5474
38.291
37.8995
37.2893
34.7337
34.7199
34.693
34.6537
34.603
34.5405
34.4647
34.3726
34.2665
34.1822
34.7337
34.7199
34.6929
34.6537
34.6029
34.5405
34.4647
34.3725
34.2664
34.1821
34.7336
34.7198
34.6929
34.6536
34.6029
34.5404
34.4646
34.3725
34.2664
34.1821
34.7336
34.7198
34.6928
34.6536
34.6028
34.5404
34.4646
34.3725
34.2663
34.1821
34.7336
34.7198
34.6928
34.6536
34.6028
34.5404
34.4646
34.3724
34.2663
34.182
34.7336
34.7198
34.6928
34.6536
34.6028
34.5404
34.4646
34.3724
34.2663
34.182
34.7336
34.7198
34.6928
34.6536
34.6028
34.5404
34.4646
34.3725
34.2663
34.182
34.7336
34.7198
34.6929
34.6536
34.6028
34.5404
34.4646
34.3725
34.2663
34.1821
34.7336
34.7199
34.6929
34.6537
34.6029
34.5405
34.4647
34.3725
34.2664
34.1821
34.7337
34.7199
34.6929
34.6537
34.6029
34.5405
34.4647
34.3726
34.2664
34.1822
30.7443
30.7406
30.7351
30.7314
30.7354
30.755
30.8018
30.8942
31.0655
31.3834
30.7443
30.7406
30.735
30.7314
30.7353
30.7549
30.8018
30.8941
31.0654
31.3833
30.7443
30.7405
30.735
30.7313
30.7353
30.7549
30.8017
30.894
31.0653
31.3833
30.7442
30.7405
30.735
30.7313
30.7353
30.7549
30.8017
30.894
31.0653
31.3832
30.7442
30.7405
30.735
30.7313
30.7352
30.7548
30.8017
30.894
31.0653
31.3832
30.7442
30.7405
30.7349
30.7313
30.7352
30.7548
30.8017
30.894
31.0653
31.3832
30.7442
30.7405
30.735
30.7313
30.7352
30.7549
30.8017
30.894
31.0653
31.3832
30.7442
30.7405
30.735
30.7313
30.7353
30.7549
30.8017
30.894
31.0653
31.3833
30.7443
30.7406
30.735
30.7314
30.7353
30.7549
30.8017
30.8941
31.0654
31.3833
30.7443
30.7406
30.7351
30.7314
30.7354
30.755
30.8018
30.8941
31.0654
31.3834
27.1054
27.1125
27.1301
27.1647
27.2267
27.3317
27.5018
27.7685
28.1776
28.7965
27.1053
27.1125
27.1301
27.1646
27.2267
27.3317
27.5017
27.7684
28.1775
28.7964
27.1053
27.1124
27.13
27.1646
27.2266
27.3316
27.5017
27.7683
28.1775
28.7963
27.1052
27.1124
27.13
27.1645
27.2266
27.3316
27.5017
27.7683
28.1774
28.7963
27.1052
27.1124
27.13
27.1645
27.2266
27.3316
27.5016
27.7683
28.1774
28.7963
27.1052
27.1124
27.13
27.1645
27.2266
27.3316
27.5016
27.7683
28.1774
28.7963
27.1052
27.1124
27.13
27.1645
27.2266
27.3316
27.5017
27.7683
28.1774
28.7963
27.1053
27.1124
27.13
27.1646
27.2266
27.3316
27.5017
27.7683
28.1774
28.7963
27.1053
27.1125
27.13
27.1646
27.2267
27.3317
27.5017
27.7684
28.1775
28.7964
27.1053
27.1125
27.1301
27.1647
27.2267
27.3317
27.5018
27.7684
28.1776
28.7965
23.8036
23.8213
23.8609
23.9317
24.0482
24.232
24.513
24.9317
25.5394
26.3964
23.8036
23.8212
23.8609
23.9317
24.0482
24.2319
24.5129
24.9316
25.5394
26.3963
23.8035
23.8212
23.8609
23.9316
24.0481
24.2319
24.5129
24.9316
25.5393
26.3963
23.8035
23.8212
23.8608
23.9316
24.0481
24.2319
24.5129
24.9315
25.5393
26.3962
23.8035
23.8211
23.8608
23.9316
24.0481
24.2318
24.5128
24.9315
25.5392
26.3962
23.8035
23.8211
23.8608
23.9316
24.0481
24.2318
24.5128
24.9315
25.5392
26.3962
23.8035
23.8211
23.8608
23.9316
24.0481
24.2318
24.5129
24.9315
25.5393
26.3962
23.8035
23.8212
23.8609
23.9316
24.0481
24.2319
24.5129
24.9316
25.5393
26.3963
23.8035
23.8212
23.8609
23.9317
24.0482
24.2319
24.5129
24.9316
25.5393
26.3963
23.8036
23.8212
23.8609
23.9317
24.0482
24.232
24.513
24.9317
25.5394
26.3964
20.8226
20.8492
20.9075
21.0085
21.1698
21.4177
21.7887
22.3316
23.1061
24.1721
20.8226
20.8491
20.9074
21.0084
21.1698
21.4176
21.7886
22.3316
23.106
24.172
20.8225
20.8491
20.9074
21.0084
21.1697
21.4176
21.7886
22.3315
23.1059
24.1719
20.8225
20.849
20.9074
21.0084
21.1697
21.4175
21.7885
22.3315
23.1059
24.1719
20.8225
20.849
20.9074
21.0083
21.1697
21.4175
21.7885
22.3315
23.1059
24.1719
20.8225
20.849
20.9074
21.0083
21.1697
21.4175
21.7885
22.3315
23.1059
24.1719
20.8225
20.849
20.9074
21.0084
21.1697
21.4175
21.7885
22.3315
23.1059
24.1719
20.8225
20.8491
20.9074
21.0084
21.1697
21.4176
21.7886
22.3315
23.1059
24.1719
20.8226
20.8491
20.9074
21.0084
21.1698
21.4176
21.7886
22.3316
23.106
24.172
20.8226
20.8491
20.9075
21.0085
21.1698
21.4176
21.7887
22.3316
23.106
24.1721
18.1441
18.1771
18.2486
18.3706
18.5623
18.8527
19.2841
19.9155
20.8248
22.0973
18.1441
18.177
18.2486
18.3706
18.5622
18.8527
19.284
19.9154
20.8247
22.0973
18.144
18.177
18.2486
18.3705
18.5622
18.8526
19.284
19.9154
20.8247
22.0972
18.144
18.177
18.2485
18.3705
18.5622
18.8526
19.284
19.9153
20.8246
22.0972
18.144
18.177
18.2485
18.3705
18.5621
18.8526
19.284
19.9153
20.8246
22.0972
18.144
18.177
18.2485
18.3705
18.5621
18.8526
19.284
19.9153
20.8246
22.0972
18.144
18.177
18.2485
18.3705
18.5622
18.8526
19.284
19.9153
20.8247
22.0972
18.144
18.177
18.2486
18.3705
18.5622
18.8526
19.284
19.9154
20.8247
22.0972
18.1441
18.177
18.2486
18.3705
18.5622
18.8527
19.284
19.9154
20.8247
22.0973
18.1441
18.1771
18.2486
18.3706
18.5623
18.8527
19.2841
19.9155
20.8248
22.0973
15.7495
15.7859
15.8642
15.9958
16.1999
16.5054
16.9565
17.6213
18.6087
20.0875
15.7495
15.7858
15.8641
15.9958
16.1998
16.5053
16.9564
17.6213
18.6087
20.0874
15.7494
15.7858
15.8641
15.9957
16.1998
16.5053
16.9564
17.6212
18.6086
20.0874
15.7494
15.7858
15.8641
15.9957
16.1998
16.5053
16.9563
17.6212
18.6086
20.0873
15.7494
15.7858
15.864
15.9957
16.1997
16.5053
16.9563
17.6212
18.6086
20.0873
15.7494
15.7858
15.864
15.9957
16.1997
16.5053
16.9563
17.6212
18.6086
20.0873
15.7494
15.7858
15.8641
15.9957
16.1998
16.5053
16.9563
17.6212
18.6086
20.0873
15.7494
15.7858
15.8641
15.9957
16.1998
16.5053
16.9564
17.6212
18.6086
20.0874
15.7495
15.7858
15.8641
15.9958
16.1998
16.5053
16.9564
17.6213
18.6087
20.0874
15.7495
15.7859
15.8642
15.9958
16.1999
16.5054
16.9565
17.6213
18.6087
20.0875
13.6209
13.6577
13.736
13.8659
14.0635
14.3534
14.7731
15.3843
16.3086
17.8596
13.6209
13.6577
13.736
13.8658
14.0634
14.3533
14.773
15.3842
16.3085
17.8596
13.6209
13.6576
13.7359
13.8658
14.0634
14.3533
14.773
15.3842
16.3085
17.8595
13.6209
13.6576
13.7359
13.8658
14.0634
14.3533
14.773
15.3842
16.3085
17.8595
13.6208
13.6576
13.7359
13.8658
14.0634
14.3533
14.773
15.3841
16.3085
17.8595
13.6208
13.6576
13.7359
13.8658
14.0634
14.3533
14.773
15.3841
16.3085
17.8595
13.6209
13.6576
13.7359
13.8658
14.0634
14.3533
14.773
15.3842
16.3085
17.8595
13.6209
13.6576
13.7359
13.8658
14.0634
14.3533
14.773
15.3842
16.3085
17.8595
13.6209
13.6577
13.736
13.8658
14.0634
14.3533
14.773
15.3842
16.3085
17.8596
13.6209
13.6577
13.736
13.8659
14.0635
14.3534
14.7731
15.3843
16.3086
17.8596
38.2383
37.677
38.7278
41.1804
45.0263
50.3901
57.534
66.9236
79.4034
96.6672
38.2383
37.6769
38.7277
41.1803
45.0262
50.3899
57.5339
66.9235
79.4033
96.6671
38.2382
37.6768
38.7276
41.1803
45.0261
50.3899
57.5338
66.9234
79.4032
96.667
38.2382
37.6768
38.7276
41.1802
45.0261
50.3898
57.5337
66.9233
79.4031
96.6669
38.2381
37.6767
38.7275
41.1802
45.0261
50.3898
57.5337
66.9233
79.4031
96.6669
38.2381
37.6767
38.7275
41.1802
45.0261
50.3898
57.5337
66.9233
79.4031
96.6669
38.2381
37.6768
38.7275
41.1802
45.0261
50.3898
57.5337
66.9233
79.4031
96.6669
38.2382
37.6768
38.7276
41.1802
45.0261
50.3898
57.5338
66.9234
79.4032
96.667
38.2382
37.6768
38.7276
41.1803
45.0262
50.3899
57.5338
66.9234
79.4032
96.667
38.2383
37.6769
38.7277
41.1804
45.0262
50.39
57.5339
66.9235
79.4033
96.6671
36.4785
36.6304
37.939
40.4449
44.2086
49.3501
56.0662
64.6455
75.4615
88.8185
36.4784
36.6303
37.9389
40.4448
44.2085
49.35
56.0661
64.6454
75.4614
88.8184
36.4783
36.6302
37.9388
40.4447
44.2084
49.3499
56.066
64.6453
75.4613
88.8183
36.4783
36.6302
37.9387
40.4447
44.2083
49.3498
56.0659
64.6453
75.4612
88.8182
36.4783
36.6301
37.9387
40.4446
44.2083
49.3498
56.0659
64.6452
75.4612
88.8182
36.4783
36.6301
37.9387
40.4446
44.2083
49.3498
56.0659
64.6452
75.4612
88.8182
36.4783
36.6301
37.9387
40.4446
44.2083
49.3498
56.0659
64.6452
75.4612
88.8182
36.4783
36.6302
37.9388
40.4447
44.2084
49.3499
56.066
64.6453
75.4612
88.8182
36.4784
36.6302
37.9388
40.4447
44.2084
49.3499
56.066
64.6454
75.4613
88.8183
36.4784
36.6303
37.9389
40.4448
44.2085
49.35
56.0661
64.6455
75.4614
88.8184
34.2776
34.9954
36.5663
39.1086
42.7119
47.4741
53.5112
60.9411
69.8192
79.9537
34.2775
34.9953
36.5662
39.1085
42.7118
47.474
53.5111
60.941
69.8191
79.9536
34.2775
34.9952
36.5661
39.1084
42.7117
47.4739
53.511
60.9409
69.819
79.9535
34.2774
34.9952
36.566
39.1083
42.7116
47.4739
53.5109
60.9408
69.8189
79.9534
34.2774
34.9952
36.566
39.1083
42.7116
47.4738
53.5109
60.9408
69.8189
79.9534
34.2774
34.9952
36.566
39.1083
42.7116
47.4738
53.5109
60.9408
69.8189
79.9534
34.2774
34.9952
36.566
39.1083
42.7116
47.4739
53.5109
60.9408
69.8189
79.9534
34.2774
34.9952
36.5661
39.1084
42.7116
47.4739
53.5109
60.9409
69.8189
79.9535
34.2775
34.9953
36.5661
39.1084
42.7117
47.474
53.511
60.941
69.819
79.9536
34.2776
34.9953
36.5662
39.1085
42.7118
47.4741
53.5111
60.9411
69.8191
79.9537
31.9823
33.0776
34.8351
37.3663
40.7521
45.0584
50.3352
56.5945
63.757
71.5528
31.9822
33.0775
34.835
37.3662
40.752
45.0583
50.3351
56.5944
63.7569
71.5527
31.9821
33.0774
34.8349
37.3661
40.7519
45.0582
50.335
56.5943
63.7568
71.5526
31.9821
33.0774
34.8349
37.3661
40.7518
45.0582
50.3349
56.5943
63.7567
71.5525
31.9821
33.0773
34.8349
37.366
40.7518
45.0581
50.3349
56.5942
63.7567
71.5525
31.9821
33.0773
34.8349
37.366
40.7518
45.0581
50.3349
56.5942
63.7567
71.5525
31.9821
33.0774
34.8349
37.366
40.7518
45.0582
50.3349
56.5943
63.7567
71.5525
31.9821
33.0774
34.8349
37.3661
40.7519
45.0582
50.335
56.5943
63.7568
71.5526
31.9822
33.0775
34.835
37.3662
40.752
45.0583
50.3351
56.5944
63.7568
71.5527
31.9822
33.0775
34.8351
37.3662
40.7521
45.0584
50.3352
56.5945
63.757
71.5528
29.7205
31.0674
32.9411
35.421
38.5633
42.4021
46.9426
52.1442
57.891
63.9542
29.7205
31.0674
32.9411
35.4209
38.5632
42.4019
46.9424
52.1441
57.8908
63.9541
29.7204
31.0673
32.941
35.4208
38.5631
42.4019
46.9424
52.144
57.8907
63.954
29.7204
31.0673
32.9409
35.4208
38.5631
42.4018
46.9423
52.1439
57.8907
63.9539
29.7203
31.0672
32.9409
35.4207
38.563
42.4018
46.9423
52.1439
57.8906
63.9539
29.7203
31.0672
32.9409
35.4207
38.563
42.4018
46.9423
52.1439
57.8906
63.9539
29.7204
31.0672
32.9409
35.4208
38.563
42.4018
46.9423
52.1439
57.8907
63.9539
29.7204
31.0673
32.941
35.4208
38.5631
42.4019
46.9423
52.144
57.8907
63.954
29.7204
31.0673
32.941
35.4209
38.5632
42.4019
46.9424
52.1441
57.8908
63.9541
29.7205
31.0674
32.9411
35.421
38.5633
42.402
46.9425
52.1442
57.8909
63.9542
27.5642
29.0975
31.0479
33.46
36.3637
39.7671
43.647
47.9393
52.5282
57.2425
27.5642
29.0974
31.0478
33.4599
36.3636
39.767
43.6469
47.9392
52.5281
57.2424
27.5641
29.0974
31.0477
33.4598
36.3636
39.7669
43.6468
47.9391
52.528
57.2423
27.5641
29.0973
31.0477
33.4597
36.3635
39.7668
43.6467
47.939
52.528
57.2422
27.5641
29.0973
31.0477
33.4597
36.3635
39.7668
43.6467
47.939
52.5279
57.2422
27.5641
29.0973
31.0477
33.4597
36.3635
39.7668
43.6467
47.939
52.5279
57.2422
27.5641
29.0973
31.0477
33.4597
36.3635
39.7668
43.6467
47.939
52.528
57.2422
27.5641
29.0973
31.0477
33.4598
36.3636
39.7669
43.6468
47.9391
52.528
57.2423
27.5642
29.0974
31.0478
33.4599
36.3636
39.767
43.6469
47.9392
52.5281
57.2424
27.5642
29.0975
31.0479
33.4599
36.3637
39.7671
43.647
47.9393
52.5282
57.2425
25.5655
27.272
29.2941
31.6479
34.3436
37.371
40.6884
44.2181
47.8481
51.4492
25.5654
27.2719
29.294
31.6478
34.3435
37.3708
40.6883
44.218
47.848
51.4491
25.5653
27.2718
29.294
31.6477
34.3434
37.3708
40.6882
44.2179
47.8479
51.449
25.5653
27.2718
29.2939
31.6477
34.3434
37.3707
40.6882
44.2179
47.8479
51.449
25.5653
27.2718
29.2939
31.6476
34.3434
37.3707
40.6881
44.2179
47.8478
51.4489
25.5653
27.2718
29.2939
31.6476
34.3434
37.3707
40.6881
44.2179
47.8478
51.4489
25.5653
27.2718
29.2939
31.6477
34.3434
37.3707
40.6882
44.2179
47.8479
51.449
25.5653
27.2718
29.294
31.6477
34.3434
37.3708
40.6882
44.2179
47.8479
51.449
25.5654
27.2719
29.294
31.6478
34.3435
37.3708
40.6883
44.218
47.848
51.4491
25.5655
27.272
29.2941
31.6479
34.3436
37.371
40.6884
44.2181
47.8481
51.4492
23.768
25.6849
27.8031
30.1277
32.6639
35.3923
38.2579
41.1662
43.9918
46.6109
23.7679
25.6848
27.803
30.1276
32.6638
35.3922
38.2578
41.1661
43.9916
46.6108
23.7678
25.6848
27.803
30.1275
32.6637
35.3922
38.2577
41.166
43.9916
46.6107
23.7678
25.6847
27.8029
30.1275
32.6637
35.3921
38.2577
41.166
43.9915
46.6107
23.7678
25.6847
27.8029
30.1275
32.6636
35.3921
38.2577
41.166
43.9915
46.6106
23.7678
25.6847
27.8029
30.1275
32.6636
35.3921
38.2577
41.166
43.9915
46.6106
23.7678
25.6847
27.803
30.1275
32.6637
35.3921
38.2577
41.166
43.9915
46.6107
23.7679
25.6848
27.803
30.1276
32.6637
35.3922
38.2578
41.1661
43.9916
46.6107
23.7679
25.6848
27.8031
30.1276
32.6638
35.3922
38.2578
41.1661
43.9917
46.6108
23.768
25.6849
27.8031
30.1277
32.6639
35.3924
38.2579
41.1663
43.9918
46.6109
22.2275
24.4421
26.6931
29.0234
31.4572
33.9771
36.5166
38.9563
41.1235
42.8183
22.2275
24.442
26.693
29.0233
31.4571
33.977
36.5165
38.9562
41.1234
42.8182
22.2274
24.4419
26.6929
29.0233
31.4571
33.9769
36.5165
38.9561
41.1233
42.8181
22.2274
24.4419
26.6929
29.0232
31.457
33.9768
36.5164
38.9561
41.1233
42.8181
22.2274
24.4419
26.6929
29.0232
31.457
33.9768
36.5164
38.9561
41.1232
42.8181
22.2274
24.4419
26.6929
29.0232
31.457
33.9768
36.5164
38.9561
41.1232
42.8181
22.2274
24.4419
26.6929
29.0233
31.457
33.9769
36.5164
38.9561
41.1233
42.8181
22.2274
24.442
26.6929
29.0233
31.4571
33.9769
36.5165
38.9562
41.1233
42.8182
22.2275
24.442
26.693
29.0234
31.4572
33.977
36.5166
38.9562
41.1234
42.8182
22.2276
24.4421
26.6931
29.0235
31.4573
33.9771
36.5167
38.9563
41.1235
42.8184
21.103
23.6997
26.0846
28.4379
30.8249
33.2369
35.6006
37.7697
39.4979
40.3635
21.1029
23.6996
26.0845
28.4379
30.8248
33.2368
35.6005
37.7696
39.4978
40.3634
21.1029
23.6996
26.0845
28.4378
30.8248
33.2368
35.6004
37.7695
39.4978
40.3633
21.1028
23.6995
26.0844
28.4378
30.8247
33.2367
35.6004
37.7695
39.4977
40.3633
21.1028
23.6995
26.0844
28.4378
30.8247
33.2367
35.6003
37.7695
39.4977
40.3633
21.1028
23.6995
26.0844
28.4378
30.8247
33.2367
35.6004
37.7695
39.4977
40.3633
21.1028
23.6995
26.0844
28.4378
30.8247
33.2367
35.6004
37.7695
39.4977
40.3633
21.1029
23.6996
26.0845
28.4378
30.8248
33.2368
35.6004
37.7695
39.4978
40.3634
21.1029
23.6996
26.0845
28.4379
30.8249
33.2369
35.6005
37.7696
39.4979
40.3634
21.103
23.6997
26.0846
28.438
30.825
33.237
35.6006
37.7697
39.498
40.3636
122.646
135.045
142.678
148.043
152.028
155.03
157.261
158.847
159.868
160.367
122.645
135.045
142.677
148.043
152.028
155.03
157.26
158.847
159.867
160.367
122.645
135.044
142.677
148.043
152.028
155.029
157.26
158.847
159.867
160.367
122.645
135.044
142.677
148.043
152.028
155.029
157.26
158.847
159.867
160.367
122.645
135.044
142.677
148.043
152.028
155.029
157.26
158.847
159.867
160.367
122.645
135.044
142.677
148.043
152.028
155.029
157.26
158.847
159.867
160.367
122.645
135.044
142.677
148.043
152.028
155.029
157.26
158.847
159.867
160.367
122.645
135.044
142.677
148.043
152.028
155.029
157.26
158.847
159.867
160.367
122.645
135.044
142.677
148.043
152.028
155.03
157.26
158.847
159.868
160.367
122.645
135.045
142.678
148.043
152.028
155.03
157.261
158.847
159.868
160.367
104.058
115.166
123.044
128.78
133.052
136.253
138.619
140.294
141.368
141.892
104.058
115.166
123.043
128.779
133.051
136.253
138.619
140.294
141.368
141.892
104.058
115.166
123.043
128.779
133.051
136.253
138.619
140.294
141.368
141.892
104.058
115.166
123.043
128.779
133.051
136.253
138.619
140.294
141.368
141.892
104.058
115.166
123.043
128.779
133.051
136.253
138.619
140.294
141.367
141.892
104.057
115.166
123.043
128.779
133.051
136.253
138.619
140.294
141.367
141.892
104.058
115.166
123.043
128.779
133.051
136.253
138.619
140.294
141.368
141.892
104.058
115.166
123.043
128.779
133.051
136.253
138.619
140.294
141.368
141.892
104.058
115.166
123.043
128.779
133.051
136.253
138.619
140.294
141.368
141.892
104.058
115.166
123.044
128.78
133.052
136.253
138.619
140.294
141.368
141.893
90.4878
99.4232
106.47
111.913
116.091
119.268
121.633
123.313
124.392
124.919
90.4877
99.423
106.47
111.913
116.09
119.267
121.632
123.313
124.392
124.919
90.4876
99.4229
106.47
111.913
116.09
119.267
121.632
123.313
124.392
124.919
90.4875
99.4228
106.47
111.913
116.09
119.267
121.632
123.313
124.392
124.919
90.4875
99.4228
106.47
111.913
116.09
119.267
121.632
123.313
124.391
124.919
90.4875
99.4228
106.47
111.913
116.09
119.267
121.632
123.313
124.392
124.919
90.4875
99.4228
106.47
111.913
116.09
119.267
121.632
123.313
124.392
124.919
90.4876
99.4229
106.47
111.913
116.09
119.267
121.632
123.313
124.392
124.919
90.4877
99.423
106.47
111.913
116.09
119.268
121.633
123.313
124.392
124.919
90.4878
99.4231
106.47
111.913
116.091
119.268
121.633
123.313
124.392
124.92
79.4028
86.4741
92.4243
97.2514
101.081
104.057
106.302
107.911
108.95
109.459
79.4027
86.474
92.4242
97.2512
101.081
104.056
106.302
107.911
108.95
109.459
79.4026
86.4739
92.4241
97.2511
101.081
104.056
106.302
107.911
108.949
109.459
79.4025
86.4738
92.424
97.2511
101.08
104.056
106.302
107.911
108.949
109.459
79.4025
86.4738
92.424
97.251
101.08
104.056
106.302
107.911
108.949
109.459
79.4025
86.4738
92.424
97.251
101.08
104.056
106.302
107.911
108.949
109.459
79.4025
86.4738
92.424
97.2511
101.08
104.056
106.302
107.911
108.949
109.459
79.4026
86.4739
92.4241
97.2511
101.081
104.056
106.302
107.911
108.95
109.459
79.4026
86.474
92.4242
97.2512
101.081
104.056
106.302
107.911
108.95
109.459
79.4028
86.4741
92.4243
97.2514
101.081
104.057
106.302
107.911
108.95
109.459
69.9763
75.5465
80.4198
84.5207
87.8717
90.5342
92.5756
94.0546
95.0159
95.4893
69.9762
75.5463
80.4197
84.5206
87.8716
90.5341
92.5754
94.0544
95.0158
95.4892
69.9761
75.5462
80.4196
84.5205
87.8715
90.534
92.5753
94.0543
95.0157
95.4891
69.976
75.5462
80.4195
84.5204
87.8714
90.5339
92.5753
94.0543
95.0156
95.4891
69.976
75.5461
80.4195
84.5204
87.8714
90.5339
92.5752
94.0542
95.0156
95.4891
69.976
75.5461
80.4195
84.5204
87.8714
90.5339
92.5753
94.0542
95.0156
95.4891
69.976
75.5462
80.4195
84.5204
87.8714
90.5339
92.5753
94.0543
95.0157
95.4891
69.9761
75.5462
80.4196
84.5205
87.8715
90.534
92.5754
94.0544
95.0158
95.4892
69.9762
75.5463
80.4197
84.5206
87.8716
90.5341
92.5755
94.0545
95.0159
95.4893
69.9763
75.5465
80.4198
84.5208
87.8718
90.5342
92.5756
94.0546
95.016
95.4895
61.8704
66.2041
70.0936
73.4612
76.2855
78.5783
80.3657
81.6766
82.5357
82.9608
61.8703
66.204
70.0935
73.4611
76.2853
78.5781
80.3656
81.6765
82.5356
82.9607
61.8702
66.2039
70.0934
73.461
76.2852
78.578
80.3655
81.6764
82.5355
82.9606
61.8701
66.2039
70.0934
73.4609
76.2852
78.578
80.3654
81.6763
82.5355
82.9606
61.8701
66.2038
70.0933
73.4609
76.2851
78.5779
80.3654
81.6763
82.5354
82.9606
61.8701
66.2038
70.0933
73.4609
76.2852
78.5779
80.3654
81.6763
82.5355
82.9606
61.8701
66.2039
70.0934
73.4609
76.2852
78.578
80.3654
81.6763
82.5355
82.9606
61.8702
66.2039
70.0934
73.461
76.2853
78.5781
80.3655
81.6764
82.5356
82.9607
61.8703
66.204
70.0935
73.4611
76.2854
78.5782
80.3656
81.6765
82.5357
82.9608
61.8704
66.2042
70.0937
73.4612
76.2855
78.5783
80.3658
81.6767
82.5358
82.9609
54.9116
58.1774
61.1768
63.8464
66.1444
68.0517
69.565
70.6894
71.4329
71.8028
54.9115
58.1773
61.1767
63.8463
66.1443
68.0516
69.5648
70.6892
71.4328
71.8027
54.9114
58.1772
61.1766
63.8462
66.1442
68.0515
69.5647
70.6891
71.4327
71.8026
54.9114
58.1771
61.1765
63.8461
66.1442
68.0514
69.5647
70.6891
71.4327
71.8025
54.9113
58.1771
61.1765
63.8461
66.1441
68.0514
69.5647
70.6891
71.4327
71.8025
54.9113
58.1771
61.1765
63.8461
66.1441
68.0514
69.5647
70.6891
71.4327
71.8025
54.9114
58.1771
61.1766
63.8461
66.1442
68.0515
69.5647
70.6891
71.4327
71.8026
54.9114
58.1772
61.1766
63.8462
66.1442
68.0515
69.5648
70.6892
71.4328
71.8027
54.9115
58.1773
61.1767
63.8463
66.1443
68.0516
69.5649
70.6893
71.4329
71.8028
54.9116
58.1774
61.1769
63.8464
66.1445
68.0518
69.565
70.6894
71.433
71.8029
48.9837
51.2668
53.4535
55.4791
57.281
58.8154
60.0569
60.9927
61.6176
61.9302
48.9836
51.2666
53.4534
55.479
57.2809