/*--------------------------------*- C++ -*----------------------------------*\
  =========                 |
  \\      /  F ield         | OpenFOAM: The Open Source CFD Toolbox
   \\    /   O peration     | Website:  https://openfoam.org
    \\  /    A nd           | Version:  6
     \\/     M anipulation  |
\*---------------------------------------------------------------------------*/
FoamFile
{
    version     2.0;
    format      ascii;
    class       volVectorField;
    location    "1100";
    object      U;
}
// * * * * * * * * * * * * * * * * * * * * * * * * * * * * * * * * * * * * * //

dimensions      [0 1 -1 0 0 0 0];

internalField   nonuniform List<vector> 
7000
(
(0.000596458 0.000601324 0.997867)
(0.000752067 0.000602105 0.999405)
(0.000208687 0.000601497 0.998942)
(7.52206e-05 0.000601217 0.998943)
(1.13974e-05 0.000600861 0.998946)
(-5.22061e-05 0.000600419 0.998946)
(-0.000112081 0.000599918 0.998943)
(-0.000239557 0.000599442 0.998942)
(-0.000785739 0.000599396 0.999417)
(-0.000616261 0.00059773 0.997859)
(0.00059726 0.000760191 0.999411)
(0.00075201 0.000760099 1.00095)
(0.000208025 0.000759617 1.00049)
(7.45806e-05 0.000758934 1.00049)
(1.06922e-05 0.000758164 1.00049)
(-5.30173e-05 0.000757278 1.00049)
(-0.000112843 0.000756348 1.00049)
(-0.000240138 0.000755565 1.00048)
(-0.000787086 0.000754809 1.00096)
(-0.000617881 0.000753478 0.999399)
(0.000596677 0.000216651 0.998945)
(0.000751558 0.00021599 1.00048)
(0.000207527 0.000215539 1.00002)
(7.38996e-05 0.000214877 1.00002)
(9.86888e-06 0.000214064 1.00002)
(-5.39163e-05 0.000213164 1.00002)
(-0.00011371 0.000212262 1.00002)
(-0.000240919 0.000211471 1.00002)
(-0.000787794 0.000210728 1.00049)
(-0.000617888 0.000210325 0.998934)
(0.000596478 8.615e-05 0.998945)
(0.000751009 8.56068e-05 1.00048)
(0.000206921 8.51015e-05 1.00002)
(7.31399e-05 8.44179e-05 1.00002)
(8.99662e-06 8.35879e-05 1.00002)
(-5.48225e-05 8.26868e-05 1.00002)
(-0.000114556 8.17955e-05 1.00002)
(-0.000241668 8.10037e-05 1.00002)
(-0.000788403 8.0259e-05 1.00049)
(-0.00061823 7.98739e-05 0.998933)
(0.000596275 2.50232e-05 0.998948)
(0.00075052 2.45514e-05 1.00049)
(0.000206316 2.40627e-05 1.00002)
(7.23898e-05 2.34356e-05 1.00002)
(8.14108e-06 2.26768e-05 1.00003)
(-5.57076e-05 2.1859e-05 1.00003)
(-0.000115392 2.10496e-05 1.00002)
(-0.000242432 2.03081e-05 1.00002)
(-0.000789021 1.96019e-05 1.0005)
(-0.000618498 1.93727e-05 0.998935)
(0.000596068 -3.70027e-05 0.998948)
(0.000750081 -3.7431e-05 1.00049)
(0.000205797 -3.78504e-05 1.00002)
(7.17563e-05 -3.83477e-05 1.00002)
(7.4216e-06 -3.89489e-05 1.00003)
(-5.64495e-05 -3.95922e-05 1.00003)
(-0.000116107 -4.02331e-05 1.00002)
(-0.00024311 -4.08507e-05 1.00002)
(-0.000789478 -4.14406e-05 1.0005)
(-0.00061862 -4.14066e-05 0.998935)
(0.000595877 -9.70308e-05 0.998945)
(0.00074973 -9.7306e-05 1.00048)
(0.00020541 -9.76254e-05 1.00002)
(7.12922e-05 -9.79652e-05 1.00002)
(6.89537e-06 -9.83779e-05 1.00002)
(-5.69943e-05 -9.88198e-05 1.00002)
(-0.000116654 -9.92728e-05 1.00002)
(-0.000243656 -9.97487e-05 1.00002)
(-0.000789754 -0.000100212 1.00049)
(-0.000618601 -0.000100056 0.998931)
(0.000595737 -0.000225999 0.998945)
(0.000749558 -0.000226046 1.00048)
(0.000205163 -0.000226306 1.00002)
(7.10029e-05 -0.000226534 1.00002)
(6.56397e-06 -0.000226806 1.00002)
(-5.73478e-05 -0.000227094 1.00002)
(-0.00011704 -0.000227401 1.00002)
(-0.000244083 -0.000227765 1.00002)
(-0.000789977 -0.000228086 1.00049)
(-0.000618512 -0.000227949 0.99893)
(0.000596022 -0.000769165 0.999413)
(0.00074938 -0.000769766 1.00095)
(0.000204918 -0.00076994 1.00049)
(7.07627e-05 -0.000770076 1.00049)
(6.32082e-06 -0.000770305 1.00049)
(-5.75841e-05 -0.00077051 1.00049)
(-0.000117303 -0.000770679 1.00049)
(-0.000244348 -0.000770892 1.00049)
(-0.000789997 -0.000770952 1.00096)
(-0.000618743 -0.000770272 0.999398)
(0.000594861 -0.000605988 0.997866)
(0.000748782 -0.000607131 0.999402)
(0.000204908 -0.000606849 0.998939)
(7.05831e-05 -0.000606971 0.998939)
(6.09813e-06 -0.000607103 0.998941)
(-5.77181e-05 -0.000607189 0.998941)
(-0.000117388 -0.000607207 0.998937)
(-0.000244423 -0.000607169 0.998935)
(-0.000789437 -0.000607448 0.999409)
(-0.000617626 -0.000606292 0.997848)
(0.00144732 0.00146979 0.994354)
(0.00168559 0.00147497 0.99917)
(0.000382042 0.00147166 0.997316)
(0.000199117 0.0014716 0.997304)
(1.25213e-06 0.00147088 0.997291)
(-0.00020397 0.00146991 0.997287)
(-0.000382971 0.0014687 0.997291)
(-0.000530365 0.00146695 0.997294)
(-0.00183212 0.00146881 0.999212)
(-0.00153019 0.00146007 0.994258)
(0.00145243 0.00173026 0.999203)
(0.00168666 0.00173171 1.00402)
(0.00038033 0.00173031 1.00217)
(0.000197629 0.00172975 1.00216)
(-8.28262e-07 0.00172908 1.00214)
(-0.000206666 0.00172817 1.00213)
(-0.000386026 0.00172702 1.00213)
(-0.00053261 0.00172584 1.00213)
(-0.00183862 0.00172574 1.00405)
(-0.00153891 0.00171974 0.999077)
(0.00144921 0.000436957 0.997333)
(0.00168535 0.00043609 1.00215)
(0.000380526 0.000436466 1.0003)
(0.000197698 0.000436655 1.00028)
(-7.81303e-07 0.000437077 1.00027)
(-0.000206707 0.000437641 1.00026)
(-0.000386119 0.000438252 1.00026)
(-0.000532863 0.000438897 1.00026)
(-0.00183841 0.000439068 1.00219)
(-0.00153678 0.000438252 0.997214)
(0.00144951 0.000273927 0.997324)
(0.00168528 0.000273927 1.00214)
(0.000380839 0.000274522 1.00029)
(0.00019825 0.000275273 1.00027)
(1.02333e-07 0.000276479 1.00026)
(-0.000205616 0.000278061 1.00025)
(-0.000384942 0.000279819 1.00025)
(-0.000531834 0.000281571 1.00025)
(-0.0018382 0.000282772 1.00218)
(-0.00153753 0.000282585 0.9972)
(0.00144944 9.16383e-05 0.997314)
(0.00168558 9.1769e-05 1.00213)
(0.000381775 9.27581e-05 1.00028)
(0.000199643 9.42533e-05 1.00026)
(1.99847e-06 9.63855e-05 1.00025)
(-0.000203374 9.90865e-05 1.00024)
(-0.000382614 0.000102071 1.00024)
(-0.00052978 0.000104969 1.00024)
(-0.00183666 0.000107229 1.00217)
(-0.00153693 0.00010896 0.99719)
(0.00144945 -0.000105371 0.997314)
(0.00168618 -0.000105173 1.00213)
(0.000383278 -0.000103908 1.00028)
(0.000201867 -0.000101789 1.00026)
(4.93062e-06 -9.88719e-05 1.00025)
(-0.00019993 -9.52192e-05 1.00024)
(-0.000379055 -9.11873e-05 1.00024)
(-0.000526577 -8.73058e-05 1.00024)
(-0.00183355 -8.40672e-05 1.00217)
(-0.0015353 -8.04323e-05 0.997193)
(0.00144953 -0.000286573 0.997324)
(0.00168699 -0.000286295 1.00214)
(0.000385181 -0.000284861 1.00029)
(0.000204675 -0.000282356 1.00027)
(8.56993e-06 -0.000279021 1.00026)
(-0.00019568 -0.000274905 1.00025)
(-0.00037469 -0.000270404 1.00026)
(-0.00052261 -0.000266127 1.00026)
(-0.00182926 -0.000262372 1.00218)
(-0.00153286 -0.000257593 0.997208)
(0.00144923 -0.000447562 0.997333)
(0.00168802 -0.000446465 1.00215)
(0.000387294 -0.000445219 1.00029)
(0.000207707 -0.000442817 1.00028)
(1.23879e-05 -0.000439645 1.00027)
(-0.000191298 -0.000435736 1.00026)
(-0.000370261 -0.000431471 1.00027)
(-0.000518541 -0.000427376 1.00027)
(-0.00182467 -0.000423671 1.00219)
(-0.00152971 -0.000419842 0.997224)
(0.00145247 -0.00174842 0.999219)
(0.00169001 -0.00175064 1.00404)
(0.000388829 -0.00174855 1.00218)
(0.000210174 -0.00174679 1.00217)
(1.56395e-05 -0.00174431 1.00216)
(-0.000187442 -0.00174098 1.00215)
(-0.00036621 -0.00173697 1.00216)
(-0.000514712 -0.00173284 1.00216)
(-0.00182196 -0.00173046 1.00408)
(-0.00153057 -0.00172422 0.999111)
(0.00144635 -0.00148328 0.994341)
(0.00168786 -0.00148933 0.999148)
(0.000390421 -0.00148604 0.997298)
(0.000211764 -0.00148588 0.997286)
(1.81958e-05 -0.00148489 0.997273)
(-0.000183774 -0.0014834 0.997269)
(-0.000361768 -0.0014814 0.997274)
(-0.000511118 -0.00147872 0.997279)
(-0.00181555 -0.00147991 0.999197)
(-0.0015225 -0.00147194 0.994246)
(0.00196176 0.00199675 0.99017)
(0.00209003 0.00200737 0.998747)
(0.000357774 0.00199899 0.995506)
(0.000310022 0.00199904 0.995478)
(-1.09735e-05 0.00199683 0.995408)
(-0.000321215 0.00199418 0.995396)
(-0.000614147 0.00199115 0.995439)
(-0.000601127 0.00198619 0.995442)
(-0.00233311 0.00199083 0.998831)
(-0.00210297 0.00197215 0.989911)
(0.00197241 0.00215901 0.998828)
(0.00209252 0.00216206 1.00742)
(0.000354572 0.00215706 1.00417)
(0.000306983 0.00215563 1.00414)
(-1.61029e-05 0.00215328 1.00406)
(-0.00032798 0.00215028 1.00404)
(-0.000622447 0.00214666 1.00407)
(-0.000607805 0.00214252 1.00406)
(-0.00234788 0.00214309 1.00745)
(-0.00212135 0.00212923 0.998483)
(0.00196423 0.000443855 0.995551)
(0.00208771 0.000442224 1.00413)
(0.00035441 0.000442402 1.00088)
(0.000306302 0.000441773 1.00085)
(-1.68673e-05 0.000441519 1.00078)
(-0.000329004 0.0004413 1.00076)
(-0.00062351 0.000441038 1.0008)
(-0.000609144 0.000441077 1.00079)
(-0.00234673 0.000440522 1.00419)
(-0.00211624 0.00043656 0.995223)
(0.00196506 0.000428695 0.995529)
(0.00208729 0.000428523 1.00411)
(0.000354012 0.000428843 1.00086)
(0.000306028 0.000428984 1.00083)
(-1.67356e-05 0.000429738 1.00076)
(-0.000328651 0.000430947 1.00074)
(-0.000622919 0.000432452 1.00077)
(-0.000608448 0.000434226 1.00077)
(-0.00234843 0.000435695 1.00417)
(-0.0021194 0.000432643 0.995193)
(0.00196426 0.000132767 0.995469)
(0.00208698 0.000132036 1.00405)
(0.000354772 0.000133088 1.0008)
(0.000307169 0.000134496 1.00077)
(-1.49331e-05 0.000136779 1.0007)
(-0.000326305 0.000139944 1.00068)
(-0.000620248 0.00014376 1.00071)
(-0.000605774 0.000147809 1.00071)
(-0.00234693 0.00015154 1.00411)
(-0.0021191 0.000153026 0.995133)
(0.00196377 -0.000162919 0.99547)
(0.00208716 -0.000163764 1.00404)
(0.00035644 -0.000162218 1.0008)
(0.000309701 -0.000159735 1.00077)
(-1.13009e-05 -0.00015608 1.0007)
(-0.000321673 -0.000151118 1.00068)
(-0.00061506 -0.000145164 1.00072)
(-0.000600549 -0.000138949 1.00071)
(-0.00234215 -0.000132982 1.00411)
(-0.00211692 -0.000127489 0.995144)
(0.00196361 -0.000456594 0.99553)
(0.00208777 -0.000457914 1.0041)
(0.000358799 -0.000455925 1.00086)
(0.000313297 -0.000452629 1.00083)
(-6.30624e-06 -0.000448133 1.00076)
(-0.000315365 -0.00044218 1.00074)
(-0.000608052 -0.000435119 1.00078)
(-0.000593436 -0.000427872 1.00078)
(-0.00233486 -0.000420927 1.00418)
(-0.00211333 -0.00041224 0.995222)
(0.00196191 -0.000465137 0.995551)
(0.00208839 -0.000464649 1.00412)
(0.000361794 -0.000462905 1.00088)
(0.000317499 -0.000459438 1.00085)
(-8.24139e-07 -0.000454909 1.00078)
(-0.000308621 -0.000448956 1.00077)
(-0.000600709 -0.000441924 1.00081)
(-0.00058623 -0.000434961 1.00081)
(-0.00232636 -0.000427748 1.0042)
(-0.00210723 -0.000420147 0.995263)
(0.00196958 -0.00219383 0.998866)
(0.0020935 -0.00219938 1.00744)
(0.000364033 -0.00219409 1.0042)
(0.00032125 -0.0021923 1.00418)
(4.21392e-06 -0.00218891 1.00411)
(-0.000302305 -0.00218401 1.00409)
(-0.000593919 -0.00217777 1.00413)
(-0.000579047 -0.00217047 1.00413)
(-0.00232288 -0.00216769 1.00753)
(-0.00211082 -0.00215591 0.998586)
(0.00195669 -0.00202337 0.99014)
(0.00208813 -0.00203605 0.998695)
(0.000365434 -0.00202828 0.995464)
(0.000322119 -0.00202926 0.995434)
(7.38846e-06 -0.00202793 0.995366)
(-0.000296993 -0.00202592 0.995356)
(-0.000586254 -0.00202322 0.995406)
(-0.00057219 -0.00201806 0.995416)
(-0.00231116 -0.00202233 0.998808)
(-0.00209557 -0.00200699 0.989898)
(0.00229408 0.0023429 0.985003)
(0.0022535 0.00235948 0.997782)
(0.000273949 0.00234465 0.993287)
(0.000388898 0.00234489 0.993255)
(-5.9686e-05 0.00234004 0.993121)
(-0.000413086 0.00233472 0.993099)
(-0.000825416 0.00232904 0.993187)
(-0.00062152 0.0023186 0.993174)
(-0.0026084 0.002326 0.997931)
(-0.00250645 0.00229305 0.984516)
(0.00231086 0.00234583 0.997925)
(0.00225728 0.00235029 1.01072)
(0.000268942 0.00234015 1.0062)
(0.000383802 0.00233727 1.00616)
(-6.93989e-05 0.00233176 1.00601)
(-0.000426006 0.00232506 1.00597)
(-0.000842258 0.00231734 1.00604)
(-0.00063577 0.00230742 1.00599)
(-0.00263602 0.00230791 1.01076)
(-0.00253832 0.00228099 0.997238)
(0.00229641 0.000387896 0.993368)
(0.00224751 0.000385354 1.00614)
(0.000267894 0.000384922 1.00164)
(0.000381203 0.000382465 1.0016)
(-7.21888e-05 0.000380547 1.00145)
(-0.000429257 0.000378319 1.00142)
(-0.000845609 0.000375782 1.00149)
(-0.000639859 0.000373778 1.00145)
(-0.00263509 0.000371308 1.00623)
(-0.00253064 0.00036118 0.992716)
(0.0022981 0.000549693 0.993347)
(0.00224651 0.000549354 1.00612)
(0.000265874 0.000548612 1.00161)
(0.000379132 0.000547344 1.00158)
(-7.39608e-05 0.000546733 1.00143)
(-0.000430972 0.00054654 1.00139)
(-0.000847075 0.000546705 1.00146)
(-0.000640544 0.000547445 1.00143)
(-0.00264074 0.000548911 1.00621)
(-0.00253806 0.00054106 0.992673)
(0.00229592 0.000137417 0.993229)
(0.00224484 0.000135332 1.00599)
(0.000265896 0.000135971 1.00149)
(0.000379279 0.000136685 1.00146)
(-7.30561e-05 0.000138505 1.00131)
(-0.000429315 0.000141607 1.00127)
(-0.00084475 0.000145919 1.00134)
(-0.000637671 0.000151059 1.00131)
(-0.00263931 0.000156707 1.00609)
(-0.00253786 0.000158523 0.992554)
(0.00229475 -0.000192026 0.99323)
(0.00224426 -0.000194357 1.00599)
(0.000267315 -0.000192679 1.00149)
(0.000381652 -0.000190225 1.00146)
(-6.90604e-05 -0.000186096 1.00131)
(-0.000423568 -0.000179801 1.00128)
(-0.000837655 -0.000171474 1.00135)
(-0.000629705 -0.000162033 1.00132)
(-0.00263177 -0.000152341 1.0061)
(-0.00253452 -0.000142631 0.992575)
(0.00229462 -0.000600249 0.993348)
(0.00224472 -0.000604066 1.0061)
(0.000269887 -0.000601342 1.00161)
(0.000385849 -0.000597422 1.00157)
(-6.26089e-05 -0.000591738 1.00143)
(-0.000414647 -0.000583517 1.0014)
(-0.000826934 -0.000572931 1.00148)
(-0.000618081 -0.00056136 1.00145)
(-0.00261965 -0.000549718 1.00623)
(-0.00252879 -0.000533438 0.99273)
(0.00229083 -0.000425385 0.993368)
(0.00224451 -0.00042592 1.00612)
(0.000273899 -0.000423682 1.00162)
(0.000391274 -0.000418868 1.00159)
(-5.50901e-05 -0.000412687 1.00145)
(-0.000404694 -0.000404006 1.00142)
(-0.000815423 -0.000393106 1.00151)
(-0.000606003 -0.000381578 1.00148)
(-0.00260437 -0.000369174 1.00626)
(-0.00251781 -0.000355405 0.992795)
(0.00230422 -0.00239958 0.997994)
(0.00225404 -0.00240888 1.01077)
(0.000276984 -0.00239929 1.00626)
(0.000396963 -0.00239764 1.00623)
(-4.75366e-05 -0.0023927 1.0061)
(-0.000395089 -0.00238559 1.00607)
(-0.000804469 -0.0023761 1.00615)
(-0.000593717 -0.00236343 1.00613)
(-0.00260033 -0.00236101 1.01091)
(-0.00252482 -0.0023397 0.997439)
(0.00228344 -0.00238292 0.984946)
(0.00224479 -0.00240318 0.997676)
(0.000277763 -0.00238988 0.993199)
(0.000396609 -0.00239257 0.993164)
(-4.34369e-05 -0.00239036 0.993029)
(-0.000387126 -0.00238757 0.99301)
(-0.00079155 -0.00238383 0.993106)
(-0.000582525 -0.00237486 0.993107)
(-0.00258011 -0.00238346 0.997876)
(-0.00249876 -0.00235673 0.984473)
(0.00253917 0.00260419 0.979369)
(0.00234016 0.00262661 0.996576)
(0.000204108 0.00260455 0.990867)
(0.000441582 0.00260471 0.990827)
(-0.000147147 0.00259564 0.990646)
(-0.000495675 0.00258607 0.990616)
(-0.0010418 0.00257588 0.990731)
(-0.000683784 0.00255671 0.990708)
(-0.00283999 0.00256403 0.996838)
(-0.00284505 0.00250961 0.978585)
(0.00256208 0.0024586 0.996798)
(0.0023444 0.0024637 1.01403)
(0.000196344 0.00244775 1.00827)
(0.000433105 0.00244255 1.00822)
(-0.000163996 0.00243192 1.00801)
(-0.000518378 0.00241927 1.00794)
(-0.00107238 0.00240443 1.00802)
(-0.000711677 0.00238459 1.00793)
(-0.00288964 0.00238049 1.01408)
(-0.0028967 0.00233084 0.995606)
(0.00254071 0.000349144 0.990992)
(0.00232911 0.000345272 1.00818)
(0.000194112 0.000344104 1.00246)
(0.0004274 0.000338911 1.00241)
(-0.000170171 0.000334386 1.00221)
(-0.000525663 0.000328788 1.00215)
(-0.0010801 0.000322059 1.00223)
(-0.000721538 0.000316159 1.00216)
(-0.00289337 0.000308889 1.00831)
(-0.00288939 0.000287764 0.989857)
(0.00254343 0.000651338 0.990965)
(0.00232725 0.000650684 1.00815)
(0.000189704 0.000648265 1.00243)
(0.000422705 0.000645031 1.00238)
(-0.000175007 0.000642323 1.00217)
(-0.000530918 0.000639856 1.00211)
(-0.00108536 0.000637773 1.00219)
(-0.000725546 0.000636464 1.00211)
(-0.00290608 0.000637211 1.00828)
(-0.0029033 0.000622176 0.989778)
(0.00253918 0.000113931 0.990806)
(0.00232353 0.000110049 1.00798)
(0.000188683 0.00011004 1.00226)
(0.000421389 0.000109772 1.00221)
(-0.000175467 0.000110958 1.00201)
(-0.000530277 0.000114062 1.00194)
(-0.00108359 0.000119424 1.00202)
(-0.000722425 0.000126583 1.00195)
(-0.00290445 0.000135614 1.00811)
(-0.00290296 0.000139364 0.98961)
(0.00253716 -0.000196371 0.990806)
(0.00232198 -0.000200383 1.00797)
(0.00018976 -0.000198502 1.00226)
(0.000423622 -0.000196012 1.00221)
(-0.000170747 -0.000190997 1.002)
(-0.000522473 -0.000182374 1.00194)
(-0.00107291 -0.00016978 1.00203)
(-0.000709439 -0.000154356 1.00196)
(-0.00289123 -0.000137353 1.00813)
(-0.00289677 -0.000118877 0.989651)
(0.00253748 -0.000727913 0.990966)
(0.00232263 -0.00073469 1.00813)
(0.000192648 -0.000730819 1.00241)
(0.000428878 -0.000726031 1.00237)
(-0.000161784 -0.000718393 1.00216)
(-0.000508989 -0.000706367 1.00211)
(-0.0010555 -0.000689578 1.0022)
(-0.000688965 -0.000669672 1.00214)
(-0.00286948 -0.000649207 1.00832)
(-0.00288666 -0.00061832 0.989885)
(0.00253112 -0.000405398 0.990994)
(0.00232145 -0.000407194 1.00814)
(0.000198127 -0.000404602 1.00243)
(0.00043609 -0.000397859 1.00239)
(-0.000150958 -0.000389189 1.00219)
(-0.000493548 -0.000376077 1.00214)
(-0.00103609 -0.000358212 1.00224)
(-0.000667894 -0.0003388 1.0022)
(-0.00284143 -0.000315771 1.00836)
(-0.00286653 -0.000287357 0.989996)
(0.00255058 -0.00253261 0.996906)
(0.0023355 -0.00254542 1.0141)
(0.000202064 -0.00253122 1.00837)
(0.000444716 -0.0025295 1.00833)
(-0.000139452 -0.00252175 1.00813)
(-0.000478219 -0.00251059 1.00809)
(-0.00101836 -0.0024955 1.00819)
(-0.000645666 -0.00247358 1.00814)
(-0.00282927 -0.00246462 1.01432)
(-0.00287292 -0.00242853 0.995949)
(0.00252162 -0.00265818 0.979273)
(0.00232271 -0.00268607 0.996393)
(0.000202464 -0.00266669 0.990713)
(0.000443341 -0.00267135 0.990662)
(-0.00013307 -0.00266733 0.990474)
(-0.000465692 -0.0026628 0.990441)
(-0.000996443 -0.00265735 0.990566)
(-0.000623708 -0.00264166 0.990562)
(-0.00279639 -0.0026512 0.996723)
(-0.00283538 -0.00261171 0.978469)
(0.00271978 0.00280258 0.973658)
(0.00237784 0.00283036 0.995375)
(0.000146072 0.00280028 0.988444)
(0.000470287 0.00279944 0.988378)
(-0.0002641 0.00278392 0.988173)
(-0.000581411 0.00276719 0.98814)
(-0.00127107 0.0027489 0.988271)
(-0.000796261 0.00271473 0.988264)
(-0.00307258 0.00271567 0.995838)
(-0.00315148 0.00262462 0.972514)
(0.00274845 0.00252392 0.995694)
(0.00238136 0.00252865 1.01746)
(0.000134046 0.00250605 1.01044)
(0.000455905 0.00249689 1.01036)
(-0.000292609 0.00247817 1.01009)
(-0.000620278 0.00245536 1.00999)
(-0.00132501 0.00242792 1.01004)
(-0.000850098 0.00238939 1.00991)
(-0.00316398 0.00237028 1.01752)
(-0.00323651 0.00227601 0.993758)
(0.00271958 0.00032445 0.98862)
(0.00235996 0.000318638 1.0103)
(0.000129907 0.000316261 1.00335)
(0.000445348 0.000307019 1.00327)
(-0.000304486 0.000298194 1.00302)
(-0.000634942 0.000286685 1.00294)
(-0.00134174 0.00027232 1.003)
(-0.000872959 0.000257315 1.0029)
(-0.00318422 0.000239272 1.01051)
(-0.0032364 0.000192873 0.986781)
(0.00272316 0.000734943 0.988565)
(0.00235653 0.000733455 1.01025)
(0.000122022 0.000728538 1.00329)
(0.000436584 0.000722362 1.0032)
(-0.000314529 0.000716144 1.00296)
(-0.00064649 0.00070973 1.00287)
(-0.00135497 0.00070345 1.00293)
(-0.000884637 0.00069748 1.00281)
(-0.00321249 0.00069653 1.01044)
(-0.00326311 0.000667453 0.986616)
(0.00271607 7.14259e-05 0.988382)
(0.00234986 6.50209e-05 1.01004)
(0.000119365 6.4001e-05 1.00309)
(0.000432856 6.21356e-05 1.00301)
(-0.000317334 6.21881e-05 1.00275)
(-0.00064777 6.51729e-05 1.00266)
(-0.00135418 7.22356e-05 1.00272)
(-0.000880784 8.36787e-05 1.00261)
(-0.00320957 0.000100568 1.01024)
(-0.00326264 0.00011165 0.986409)
(0.00271292 -0.000185868 0.988383)
(0.00234696 -0.000191925 1.01002)
(0.000119823 -0.000189964 1.00308)
(0.000434801 -0.000187484 1.003)
(-0.00031153 -0.000181138 1.00275)
(-0.000636479 -0.000168799 1.00266)
(-0.00133661 -0.000148747 1.00272)
(-0.000856665 -0.000121372 1.00262)
(-0.00318132 -8.76869e-05 1.01026)
(-0.00324811 -4.70614e-05 0.986484)
(0.00271389 -0.000841334 0.988567)
(0.00234788 -0.000851613 1.0102)
(0.00012305 -0.000846287 1.00326)
(0.000441669 -0.000840386 1.00318)
(-0.000298575 -0.000829683 1.00293)
(-0.00061527 -0.000811465 1.00285)
(-0.00130667 -0.000783932 1.00293)
(-0.000817861 -0.000748108 1.00285)
(-0.00313663 -0.000707755 1.01049)
(-0.00322583 -0.000646587 0.986806)
(0.0027046 -0.000402601 0.988624)
(0.00234561 -0.000405706 1.01023)
(0.000130425 -0.000402634 1.00331)
(0.000451487 -0.000393239 1.00322)
(-0.0002824 -0.000380721 1.00298)
(-0.000590542 -0.000360424 1.00291)
(-0.00127306 -0.000330969 1.003)
(-0.000778096 -0.000295196 1.00295)
(-0.00308302 -0.00025192 1.01057)
(-0.00318964 -0.000197349 0.987021)
(0.0027306 -0.00262019 0.995849)
(0.00236463 -0.00263642 1.01753)
(0.00013566 -0.00261745 1.01056)
(0.000464492 -0.00261516 1.01049)
(-0.000264713 -0.00260295 1.01025)
(-0.000565924 -0.0025853 1.01018)
(-0.0012418 -0.00255995 1.01028)
(-0.000737131 -0.00252052 1.01021)
(-0.00305497 -0.00249982 1.01787)
(-0.00319168 -0.00243301 0.994314)
(0.00269287 -0.00287129 0.973517)
(0.00234796 -0.00290712 0.995089)
(0.000135663 -0.00288149 0.988199)
(0.000462437 -0.00288814 0.98811)
(-0.000254548 -0.00288131 0.987883)
(-0.000545298 -0.00287397 0.987835)
(-0.00120473 -0.00286435 0.987969)
(-0.000699363 -0.00283822 0.987986)
(-0.002997 -0.00284728 0.995609)
(-0.00313188 -0.00278283 0.972295)
(0.00284332 0.00294452 0.967955)
(0.00236883 0.0029767 0.994204)
(8.72361e-05 0.00293755 0.986067)
(0.000475333 0.00293402 0.985966)
(-0.000401697 0.00290886 0.98576)
(-0.000674793 0.00288058 0.985739)
(-0.00151418 0.00284735 0.98589)
(-0.00095536 0.00278826 0.98593)
(-0.00333111 0.00277159 0.995005)
(-0.00345324 0.00261218 0.966409)
(0.00287691 0.00254192 0.994638)
(0.00236987 0.00254482 1.02095)
(6.86802e-05 0.00251413 1.01268)
(0.000450954 0.0024983 1.01255)
(-0.000448778 0.00246707 1.01225)
(-0.000740632 0.0024276 1.01211)
(-0.00160764 0.00237732 1.01211)
(-0.00105607 0.00230528 1.01193)
(-0.00350165 0.00225483 1.02104)
(-0.00359555 0.002067 0.991572)
(0.00283988 0.000298328 0.9863)
(0.0023413 0.000289746 1.01249)
(6.11948e-05 0.000285093 1.00432)
(0.000432933 0.000269818 1.00419)
(-0.000470032 0.000253861 1.00391)
(-0.000768548 0.000232129 1.00381)
(-0.00164219 0.000203456 1.00384)
(-0.00110323 0.000170655 1.00371)
(-0.00356038 0.000131131 1.01283)
(-0.00362225 3.21286e-05 0.983338)
(0.00284373 0.000797091 0.986202)
(0.00233506 0.000793887 1.01239)
(4.82085e-05 0.000785278 1.00421)
(0.000417681 0.000774503 1.00408)
(-0.000488962 0.00076234 1.0038)
(-0.00079172 0.000748735 1.00368)
(-0.00167026 0.000734172 1.0037)
(-0.00113188 0.000719358 1.00354)
(-0.00361804 0.000711475 1.01268)
(-0.0036727 0.000657655 0.982976)
(0.00283293 1.49909e-05 0.986007)
(0.0023243 5.04859e-06 1.01215)
(4.28339e-05 2.38073e-06 1.00399)
(0.000409854 -2.22761e-06 1.00386)
(-0.000496141 -4.46571e-06 1.00357)
(-0.000796974 -2.49525e-06 1.00344)
(-0.00167192 6.73297e-06 1.00346)
(-0.00112786 2.46068e-05 1.0033)
(-0.00361455 5.57662e-05 1.01245)
(-0.00366969 8.42651e-05 0.982749)
(0.00282822 -0.000167734 0.986008)
(0.00231935 -0.000176432 1.01213)
(4.20705e-05 -0.000174781 1.00398)
(0.000410915 -0.000172648 1.00384)
(-0.000489273 -0.000164862 1.00355)
(-0.000780579 -0.000147405 1.00343)
(-0.00164337 -0.000115794 1.00346)
(-0.00108289 -6.85083e-05 1.00332)
(-0.00355598 -4.45e-06 1.01249)
(-0.00363757 8.41707e-05 0.982932)
(0.00282988 -0.000939289 0.986206)
(0.00232038 -0.000953708 1.01232)
(4.54753e-05 -0.000946782 1.00417)
(0.000419777 -0.00093973 1.00404)
(-0.000470793 -0.000924974 1.00375)
(-0.000747751 -0.000897885 1.00364)
(-0.00159292 -0.000853543 1.00368)
(-0.00101282 -0.000790537 1.00358)
(-0.00346811 -0.00071531 1.01276)
(-0.00359165 -0.000591721 0.983427)
(0.00281742 -0.000403302 0.986309)
(0.00231698 -0.000408381 1.01238)
(5.49878e-05 -0.000404788 1.00425)
(0.000432864 -0.000392275 1.00412)
(-0.000447108 -0.000374704 1.00384)
(-0.000708843 -0.000344107 1.00374)
(-0.00153572 -0.000295796 1.00381)
(-0.000940119 -0.000233884 1.00374)
(-0.00336458 -0.000151856 1.0129)
(-0.0035227 -3.57692e-05 0.983828)
(0.00284991 -0.0026646 0.99485)
(0.0023408 -0.00268415 1.02104)
(6.18436e-05 -0.00266034 1.01284)
(0.000451479 -0.00265696 1.01272)
(-0.000420924 -0.00263874 1.01245)
(-0.000669386 -0.00261096 1.01235)
(-0.00148328 -0.0025689 1.01242)
(-0.000865714 -0.00250146 1.01233)
(-0.00329217 -0.00244474 1.02152)
(-0.00350102 -0.00231309 0.992506)
(0.00280339 -0.00303026 0.967761)
(0.00232037 -0.00307366 0.993784)
(6.12964e-05 -0.00304161 0.985704)
(0.000449065 -0.00305013 0.98556)
(-0.000404499 -0.00303948 0.985305)
(-0.000636214 -0.00302723 0.985241)
(-0.00142184 -0.00301081 0.985374)
(-0.000791094 -0.0029674 0.985436)
(-0.00318153 -0.00296204 0.994619)
(-0.0034054 -0.00285625 0.966044)
(0.00292297 0.00304197 0.96225)
(0.00232997 0.00307746 0.993027)
(3.17246e-05 0.00302814 0.983727)
(0.000465616 0.00301943 0.983599)
(-0.000546057 0.00298037 0.983419)
(-0.000771229 0.00293354 0.983438)
(-0.00177059 0.00287472 0.983633)
(-0.00117218 0.00277459 0.983766)
(-0.00366627 0.00271428 0.994435)
(-0.00377407 0.00242195 0.960291)
(0.0029605 0.00252623 0.993591)
(0.00232637 0.00252564 1.02445)
(3.38774e-06 0.00248509 1.01496)
(0.000425223 0.00245871 1.01478)
(-0.00062238 0.00240866 1.01444)
(-0.000881034 0.00234201 1.01426)
(-0.00192919 0.00225256 1.0142)
(-0.00135958 0.00212181 1.01395)
(-0.00400226 0.00199116 1.02463)
(-0.00404362 0.00159231 0.988842)
(0.00291471 0.000269745 0.98402)
(0.0022894 0.000257203 1.01471)
(-9.5635e-06 0.000248608 1.00535)
(0.000395961 0.000224345 1.00518)
(-0.000658949 0.000196604 1.00489)
(-0.00093204 0.000157189 1.00476)
(-0.00199729 0.000102832 1.00476)
(-0.00146441 3.22324e-05 1.00459)
(-0.00418194 -6.96756e-05 1.01535)
(-0.00414361 -0.000321239 0.979435)
(0.00291787 0.000839126 0.983874)
(0.00227845 0.000832854 1.01455)
(-3.01233e-05 0.000818761 1.00519)
(0.000370222 0.000800607 1.00501)
(-0.000693108 0.00077824 1.00471)
(-0.000976131 0.000751557 1.00456)
(-0.00205626 0.000720874 1.00452)
(-0.00153733 0.000684116 1.00431)
(-0.0043322 0.000653711 1.01512)
(-0.00425004 0.000534392 0.978789)
(0.00290239 -5.1721e-05 0.983678)
(0.002262 -6.65846e-05 1.01429)
(-4.01658e-05 -7.21316e-05 1.00496)
(0.000355236 -8.16393e-05 1.00477)
(-0.000708503 -8.86763e-05 1.00446)
(-0.000989881 -8.99829e-05 1.0043)
(-0.00206531 -7.98402e-05 1.00425)
(-0.00153469 -5.17771e-05 1.00403)
(-0.00431791 1.13731e-05 1.01485)
(-0.00424634 0.000104759 0.978481)
(0.00289546 -0.000147459 0.983681)
(0.00225384 -0.000159762 1.01426)
(-4.34954e-05 -0.000159378 1.00494)
(0.000353832 -0.000158737 1.00475)
(-0.000701487 -0.000150271 1.00444)
(-0.000967359 -0.000126741 1.00428)
(-0.00201838 -7.84753e-05 1.00424)
(-0.00144715 4.28426e-06 1.00405)
(-0.0041696 0.00013815 1.01489)
(-0.00416001 0.000359253 0.978862)
(0.00289754 -0.00102442 0.983882)
(0.00225431 -0.00104388 1.01445)
(-4.06591e-05 -0.0010357 1.00513)
(0.000364381 -0.00102804 1.00494)
(-0.000676359 -0.00100872 1.00463)
(-0.000917867 -0.000969815 1.00449)
(-0.00193428 -0.000900452 1.00448)
(-0.00131384 -0.000791481 1.00435)
(-0.00396684 -0.000637142 1.01518)
(-0.00403539 -0.000368016 0.979614)
(0.00288168 -0.0004077 0.984041)
(0.00224946 -0.000415198 1.01455)
(-2.92315e-05 -0.000411101 1.00526)
(0.000381043 -0.000395292 1.00507)
(-0.000642801 -0.000371399 1.00477)
(-0.000858602 -0.000326446 1.00464)
(-0.00183963 -0.00025105 1.00466)
(-0.00117679 -0.000141746 1.00458)
(-0.00375515 1.6075e-05 1.01537)
(-0.00390006 0.00026821 0.980302)
(0.00292073 -0.00267985 0.993876)
(0.00227822 -0.00270282 1.02455)
(-2.02926e-05 -0.00267434 1.01516)
(0.00040665 -0.00266925 1.01499)
(-0.00060501 -0.00264312 1.01468)
(-0.000798046 -0.00260106 1.01455)
(-0.00175033 -0.00253211 1.01458)
(-0.00104055 -0.00241311 1.01447)
(-0.00358939 -0.00228738 1.02529)
(-0.00382957 -0.00200373 0.990353)
(0.00286485 -0.00314665 0.962)
(0.00225335 -0.00319771 0.992437)
(-2.17241e-05 -0.00315952 0.983215)
(0.00040447 -0.0031696 0.983011)
(-0.000579799 -0.00315397 0.982736)
(-0.000744493 -0.00313482 0.982661)
(-0.00164661 -0.00310517 0.982793)
(-0.000899751 -0.0030323 0.982934)
(-0.00335892 -0.00299474 0.993759)
(-0.0036506 -0.00279413 0.959788)
(0.00297313 0.00310776 0.95656)
(0.00228148 0.00314515 0.99184)
(-9.77912e-06 0.00308441 0.98143)
(0.000456136 0.0030672 0.981288)
(-0.000677589 0.00300867 0.981172)
(-0.000854333 0.00293397 0.981279)
(-0.00202806 0.00283426 0.981584)
(-0.00146783 0.00266751 0.981922)
(-0.00419445 0.00252958 0.994329)
(-0.00427665 0.00199135 0.954361)
(0.00301322 0.00249294 0.992548)
(0.00227029 0.00248672 1.02792)
(-5.24724e-05 0.00243411 1.01726)
(0.000391273 0.0023921 1.01702)
(-0.000797796 0.0023147 1.01666)
(-0.00103213 0.00220665 1.01645)
(-0.00229109 0.00205376 1.01633)
(-0.00180175 0.00182178 1.01602)
(-0.00481925 0.0015556 1.02841)
(-0.0047484 0.000740849 0.985223)
(0.00295815 0.000242507 0.981784)
(0.00222348 0.000224375 1.01693)
(-7.3679e-05 0.000209625 1.00645)
(0.000345725 0.000172371 1.00623)
(-0.000857891 0.00012621 1.00595)
(-0.00112098 5.82324e-05 1.00582)
(-0.0024203 -4.08495e-05 1.00579)
(-0.00201006 -0.000183012 1.00562)
(-0.00522201 -0.000392905 1.01823)
(-0.00507295 -0.000982286 0.974056)
(0.00295935 0.000864921 0.981587)
(0.00220541 0.000853827 1.01671)
(-0.000105139 0.000831938 1.00623)
(0.000303843 0.000802519 1.006)
(-0.000916602 0.000763878 1.0057)
(-0.00120144 0.000715156 1.00554)
(-0.00253615 0.000655213 1.00545)
(-0.002173 0.000576032 1.0052)
(-0.00556122 0.000498152 1.01789)
(-0.00539068 0.000234101 0.972439)
(0.00293815 -0.000125439 0.9814)
(0.0021813 -0.000146881 1.01644)
(-0.000122592 -0.000157048 1.00598)
(0.000277369 -0.000174508 1.00575)
(-0.000945983 -0.000190114 1.00543)
(-0.00123049 -0.000198585 1.00525)
(-0.00256055 -0.000188757 1.00514)
(-0.00217785 -0.00014461 1.00487)
(-0.00556134 -2.31357e-05 1.01754)
(-0.00535353 0.000221113 0.972334)
(0.00292821 -0.000129667 0.981407)
(0.00216841 -0.000146776 1.01639)
(-0.000130452 -0.000149085 1.00595)