/*--------------------------------*- C++ -*----------------------------------*\
  =========                 |
  \\      /  F ield         | OpenFOAM: The Open Source CFD Toolbox
   \\    /   O peration     | Website:  https://openfoam.org
    \\  /    A nd           | Version:  6
     \\/     M anipulation  |
\*---------------------------------------------------------------------------*/
FoamFile
{
    version     2.0;
    format      ascii;
    class       volScalarField;
    location    "0.05";
    object      p;
}
// * * * * * * * * * * * * * * * * * * * * * * * * * * * * * * * * * * * * * //

dimensions      [0 2 -2 0 0 0 0];

internalField   nonuniform List<scalar> 
48800
(
-2.29067e-05
-0.000144439
-5.52824e-06
-0.000151869
-8.91846e-05
-4.44615e-05
-7.50921e-05
-7.50535e-05
-7.58547e-05
-9.10052e-05
-0.000108192
-0.000122022
-0.000120388
-0.000117258
-0.000143955
-9.46178e-05
-2.98132e-05
-0.000171008
-2.93347e-05
-0.000121895
2.18701e-06
-0.00125981
0.000616586
-0.00025689
-0.000234011
7.08973e-05
-6.114e-05
-9.06202e-05
-6.35466e-05
-8.22805e-05
-0.000117742
-0.000135202
-0.000105902
-0.000133073
-0.000260627
5.00302e-05
6.78381e-05
-0.000786023
0.00107789
-0.000176086
5.34961e-05
-0.000671131
0.000938832
-0.000462123
-0.000270985
0.00013494
-9.15053e-05
-0.000120736
-6.48353e-05
-8.03424e-05
-0.000120648
-0.000134838
-7.65836e-05
-0.000103784
-0.000325625
8.8143e-05
0.00027032
-0.00110681
0.000482337
-0.000232353
-1.03143e-05
-0.000939187
0.000672718
-0.000536684
-0.000199864
0.000174123
-9.8959e-05
-0.000112692
-4.92434e-05
-7.48826e-05
-0.000126931
-0.000151257
-8.53228e-05
-9.70482e-05
-0.000365899
1.68549e-05
0.000344062
-0.000841095
0.000751069
-0.000169637
-2.50687e-05
-0.00100678
0.000714733
-0.000483573
-0.000198642
0.000149031
-0.000119112
-0.000116552
-4.93018e-05
-7.56648e-05
-0.000126423
-0.000151442
-8.15361e-05
-7.67154e-05
-0.000340577
1.63016e-05
0.000291636
-0.000882475
0.000819484
-0.000154458
-4.69538e-05
-0.000980411
0.000747792
-0.000488169
-0.000222086
0.000139351
-0.000118841
-0.000114293
-4.929e-05
-7.63147e-05
-0.000125746
-0.000151384
-8.36021e-05
-7.65834e-05
-0.000330332
4.06151e-05
0.00029731
-0.000914456
0.000793978
-0.000131416
-7.95902e-05
-0.00101223
0.000713003
-0.000517112
-0.000236381
0.000139329
-0.000117022
-0.000114268
-5.01095e-05
-7.66725e-05
-0.00012506
-0.000150191
-8.31551e-05
-7.77811e-05
-0.000329542
5.58953e-05
0.000327495
-0.000878227
0.000827379
-9.72261e-05
-0.000102104
-0.00103574
0.000692531
-0.000526822
-0.000239897
0.000138014
-0.000119545
-0.000116742
-5.13888e-05
-7.69138e-05
-0.000124478
-0.000148521
-8.01905e-05
-7.46203e-05
-0.000327429
6.03901e-05
0.000338388
-0.000856437
0.000852388
-7.31892e-05
-0.000116507
-0.0010444
0.000686283
-0.00052907
-0.00024249
0.000134972
-0.000122319
-0.000118246
-5.17435e-05
-7.67743e-05
-0.000124138
-0.000147654
-7.81078e-05
-7.11693e-05
-0.000323593
6.38971e-05
0.000341677
-0.000849096
0.000862225
-5.75768e-05
-0.000124518
-0.00104901
0.000682221
-0.000531907
-0.000245495
0.000132537
-0.000123709
-0.000118656
-5.16581e-05
-7.66188e-05
-0.000124053
-0.000147483
-7.74052e-05
-6.94326e-05
-0.000320743
6.73897e-05
0.00034508
-0.000844425
0.000867493
-4.88909e-05
-0.000124513
-0.001049
0.000682241
-0.000531878
-0.000245456
0.000132588
-0.000123647
-0.000118587
-5.15834e-05
-7.65423e-05
-0.000123978
-0.000147411
-7.73364e-05
-6.93669e-05
-0.00032068
6.74484e-05
0.000345133
-0.000844383
0.000867532
-4.88693e-05
-0.000116523
-0.00104439
0.000686306
-0.000529023
-0.000242416
0.000135076
-0.000122187
-0.000118096
-5.15837e-05
-7.66147e-05
-0.000123985
-0.000147513
-7.79749e-05
-7.10393e-05
-0.000323458
6.4037e-05
0.000341813
-0.000848967
0.000862346
-5.75001e-05
-0.000102189
-0.00103579
0.000692528
-0.000526772
-0.000239796
0.000138171
-0.000119337
-0.000116496
-5.11229e-05
-7.66422e-05
-0.000124214
-0.000148271
-7.99512e-05
-7.43734e-05
-0.00032716
6.06783e-05
0.000338675
-0.00085617
0.000852633
-7.30404e-05
-7.97432e-05
-0.00101231
0.00071298
-0.000517066
-0.000236277
0.000139496
-0.000116793
-0.000113993
-4.98048e-05
-7.63568e-05
-0.00012475
-0.000149896
-8.28626e-05
-7.74642e-05
-0.000329185
5.62727e-05
0.000327861
-0.000877892
0.000827686
-9.7035e-05
-4.7151e-05
-0.000980466
0.00074777
-0.000488128
-0.000221994
0.000139504
-0.000118625
-0.000114027
-4.89876e-05
-7.59943e-05
-0.000125428
-0.000151077
-8.32892e-05
-7.62381e-05
-0.000329958
4.09853e-05
0.000297645
-0.000914164
0.000794232
-0.000131245
-2.52424e-05
-0.00100673
0.000714766
-0.000483534
-0.000198574
0.000149167
-0.000118909
-0.000116298
-4.90095e-05
-7.53534e-05
-0.000126117
-0.000151154
-8.12517e-05
-7.64238e-05
-0.000340288
1.65579e-05
0.000291829
-0.000882349
0.000819574
-0.000154387
-1.03955e-05
-0.000939094
0.000672862
-0.000536595
-0.000199826
0.000174223
-9.87846e-05
-0.000112472
-4.89968e-05
-7.46378e-05
-0.000126727
-0.000151119
-8.52477e-05
-9.70107e-05
-0.000365883
1.68387e-05
0.000344005
-0.000841182
0.000750964
-0.000169674
5.23909e-05
-0.000671994
0.000938555
-0.000462121
-0.000270995
0.000135015
-9.13191e-05
-0.000120495
-6.45886e-05
-8.01476e-05
-0.000120574
-0.000134927
-7.68076e-05
-0.000104054
-0.000325853
8.80058e-05
0.000270265
-0.00110682
0.000482345
-0.000232321
-3.30522e-06
-0.00126291
0.000614936
-0.000257601
-0.000234402
7.07705e-05
-6.10427e-05
-9.04132e-05
-6.33406e-05
-8.21866e-05
-0.000117866
-0.000135583
-0.000106452
-0.000133605
-0.000260954
4.99935e-05
6.80628e-05
-0.000785627
0.00107836
-0.000175771
-5.69976e-05
-0.000150264
-7.18533e-06
-0.000152454
-8.9557e-05
-4.45636e-05
-7.49614e-05
-7.4802e-05
-7.55984e-05
-9.08677e-05
-0.00010828
-0.00012235
-0.000120819
-0.00011756
-0.00014393
-9.42298e-05
-2.91554e-05
-0.000170216
-2.84961e-05
-0.000121365
-0.0201711
-0.0202574
-0.0200811
-0.0201717
-0.0200418
-0.0199243
-0.0198809
-0.0198079
-0.0197373
-0.0196816
-0.019627
-0.0195663
-0.0194863
-0.019401
-0.0193436
-0.019212
-0.0190729
-0.0191554
-0.0189793
-0.0190633
-0.020123
-0.021364
-0.0194454
-0.0202611
-0.0201712
-0.0197953
-0.0198561
-0.0198158
-0.0197207
-0.019672
-0.0196392
-0.0195856
-0.0194814
-0.0194297
-0.019476
-0.0190849
-0.018993
-0.019786
-0.0178826
-0.0191212
-0.0200911
-0.0207835
-0.0191235
-0.0204621
-0.0202018
-0.0197246
-0.0198807
-0.0198418
-0.01972
-0.0196704
-0.0196448
-0.0195902
-0.0194591
-0.0194091
-0.0195504
-0.0190557
-0.0187969
-0.0201082
-0.0184712
-0.0191602
-0.0201958
-0.0210792
-0.0194066
-0.0205463
-0.0201355
-0.0196874
-0.0198889
-0.0198342
-0.019705
-0.0196662
-0.019653
-0.0196091
-0.0194704
-0.0194042
-0.0195907
-0.0191238
-0.0187149
-0.0198267
-0.0181763
-0.0190593
-0.0202627
-0.0211854
-0.0193913
-0.0205115
-0.0201464
-0.0197204
-0.0199142
-0.0198416
-0.0197078
-0.0196691
-0.019654
-0.0196101
-0.0194661
-0.0193811
-0.0195593
-0.0191134
-0.0187497
-0.0198416
-0.0180698
-0.0189933
-0.0203399
-0.0212019
-0.0193896
-0.0205389
-0.0201861
-0.0197416
-0.019922
-0.019845
-0.0197117
-0.0196723
-0.0196545
-0.0196096
-0.0194655
-0.0193753
-0.0195392
-0.0190736
-0.0187212
-0.0198418
-0.018052
-0.0189147
-0.0204246
-0.021275
-0.0194557
-0.0205913
-0.0202178
-0.0197543
-0.0199293
-0.0198515
-0.019717
-0.0196753
-0.0196548
-0.0196073
-0.0194614
-0.0193696
-0.0195271
-0.0190414
-0.0186671
-0.0197732
-0.0179761
-0.0188272
-0.0204907
-0.0213338
-0.0195034
-0.020622
-0.0202371
-0.0197674
-0.0199405
-0.0198602
-0.0197225
-0.0196781
-0.0196549
-0.0196043
-0.0194548
-0.0193596
-0.0195143
-0.0190214
-0.0186348
-0.0197231
-0.0179145
-0.0187582
-0.0205362
-0.0213679
-0.0195297
-0.0206398
-0.0202516
-0.0197793
-0.0199499
-0.0198664
-0.019726
-0.0196797
-0.019655
-0.0196024
-0.0194497
-0.0193509
-0.0195024
-0.0190062
-0.0186156
-0.0196949
-0.017878
-0.0187101
-0.0205604
-0.0213858
-0.0195443
-0.0206509
-0.020261
-0.0197866
-0.0199549
-0.0198695
-0.0197277
-0.0196806
-0.0196552
-0.0196016
-0.0194474
-0.0193463
-0.0194951
-0.0189964
-0.0186037
-0.0196792
-0.0178587
-0.0186845
-0.0205604
-0.0213859
-0.0195443
-0.0206509
-0.020261
-0.0197866
-0.0199548
-0.0198694
-0.0197276
-0.0196805
-0.0196551
-0.0196015
-0.0194473
-0.0193462
-0.019495
-0.0189964
-0.0186036
-0.0196791
-0.0178587
-0.0186844
-0.0205363
-0.021368
-0.0195297
-0.0206398
-0.0202516
-0.0197793
-0.0199498
-0.0198663
-0.0197259
-0.0196796
-0.0196549
-0.0196022
-0.0194496
-0.0193508
-0.0195022
-0.0190061
-0.0186155
-0.0196948
-0.0178779
-0.01871
-0.0204908
-0.0213339
-0.0195036
-0.0206221
-0.0202372
-0.0197673
-0.0199404
-0.01986
-0.0197222
-0.0196778
-0.0196546
-0.0196041
-0.0194545
-0.0193594
-0.0195141
-0.0190212
-0.0186346
-0.0197229
-0.0179142
-0.018758
-0.0204249
-0.0212753
-0.0194559
-0.0205915
-0.0202179
-0.0197543
-0.0199292
-0.0198513
-0.0197167
-0.019675
-0.0196545
-0.019607
-0.0194611
-0.0193693
-0.0195268
-0.0190411
-0.0186668
-0.019773
-0.0179758
-0.0188271
-0.0203402
-0.0212021
-0.0193899
-0.020539
-0.0201862
-0.0197416
-0.0199219
-0.0198448
-0.0197114
-0.019672
-0.0196542
-0.0196093
-0.0194652
-0.019375
-0.0195389
-0.0190734
-0.018721
-0.0198416
-0.0180519
-0.0189146
-0.020263
-0.0211856
-0.0193915
-0.0205116
-0.0201465
-0.0197204
-0.0199141
-0.0198414
-0.0197075
-0.0196688
-0.0196537
-0.0196097
-0.0194658
-0.0193809
-0.0195592
-0.0191133
-0.0187496
-0.0198417
-0.0180698
-0.0189933
-0.020196
-0.0210794
-0.0194067
-0.0205464
-0.0201356
-0.0196875
-0.0198888
-0.0198341
-0.0197049
-0.019666
-0.0196528
-0.019609
-0.0194704
-0.0194042
-0.0195908
-0.019124
-0.0187151
-0.0198269
-0.0181765
-0.0190594
-0.020092
-0.0207843
-0.019124
-0.0204623
-0.0202019
-0.0197247
-0.0198806
-0.0198417
-0.0197198
-0.0196702
-0.0196447
-0.0195903
-0.0194594
-0.0194094
-0.0195507
-0.019056
-0.0187972
-0.0201084
-0.0184714
-0.0191603
-0.0201261
-0.0213654
-0.0194468
-0.020262
-0.0201719
-0.0197959
-0.0198564
-0.019816
-0.0197208
-0.0196722
-0.0196395
-0.0195862
-0.0194822
-0.0194305
-0.0194766
-0.0190853
-0.0189932
-0.019786
-0.0178825
-0.0191211
-0.020179
-0.0202606
-0.0200824
-0.0201725
-0.0200424
-0.0199246
-0.019881
-0.0198078
-0.0197371
-0.0196816
-0.0196271
-0.0195667
-0.0194868
-0.0194013
-0.0193435
-0.0192117
-0.0190724
-0.0191549
-0.0189789
-0.019063
-0.0402944
-0.0403629
-0.0401466
-0.0401785
-0.0399794
-0.0397889
-0.0396733
-0.0395309
-0.0393938
-0.0392731
-0.0391526
-0.0390227
-0.0388684
-0.0387032
-0.0385616
-0.0383457
-0.0381283
-0.0381472
-0.037932
-0.0380043
-0.0402461
-0.041462
-0.0394979
-0.040253
-0.0400945
-0.0396479
-0.0396395
-0.0395332
-0.0393751
-0.0392651
-0.0391702
-0.0390513
-0.0388766
-0.0387487
-0.0387139
-0.0382405
-0.0380703
-0.0387966
-0.036847
-0.0380641
-0.04024
-0.0408941
-0.0391783
-0.0404508
-0.0401194
-0.039571
-0.0396588
-0.0395557
-0.0393731
-0.0392646
-0.0391794
-0.0390621
-0.0388629
-0.0387384
-0.0387996
-0.0382218
-0.0378818
-0.0391202
-0.0374266
-0.0380808
-0.0403925
-0.0412222
-0.0394812
-0.0405463
-0.0400587
-0.0395361
-0.0396675
-0.039548
-0.0393583
-0.0392613
-0.0391892
-0.0390831
-0.0388764
-0.0387351
-0.0388397
-0.0382861
-0.0377898
-0.0388201
-0.0371006
-0.0379341
-0.0405185
-0.0413718
-0.0394956
-0.0405312
-0.0400822
-0.0395767
-0.0396972
-0.0395578
-0.0393622
-0.0392646
-0.0391902
-0.0390832
-0.0388699
-0.0387077
-0.0388004
-0.0382624
-0.0378038
-0.0388042
-0.0369498
-0.0378088
-0.0406575
-0.0414353
-0.0395277
-0.0405825
-0.0401382
-0.0396084
-0.0397115
-0.0395648
-0.0393677
-0.0392678
-0.0391893
-0.0390797
-0.0388641
-0.0386935
-0.0387674
-0.0382037
-0.0377485
-0.0387673
-0.036882
-0.0376663
-0.0407996
-0.0415534
-0.0396271
-0.0406593
-0.040187
-0.0396326
-0.0397261
-0.0395755
-0.0393748
-0.0392707
-0.0391874
-0.0390732
-0.0388533
-0.0386775
-0.0387405
-0.0381507
-0.0376662
-0.0386614
-0.0367573
-0.0375183
-0.0409133
-0.04165
-0.0397035
-0.0407112
-0.0402216
-0.0396562
-0.0397441
-0.0395881
-0.0393819
-0.039273
-0.0391854
-0.0390661
-0.0388399
-0.0386577
-0.0387139
-0.0381117
-0.0376086
-0.0385785
-0.0366539
-0.0373982
-0.0409927
-0.0417114
-0.0397506
-0.0407447
-0.0402475
-0.0396761
-0.0397586
-0.0395973
-0.0393867
-0.0392745
-0.0391837
-0.0390607
-0.0388296
-0.0386414
-0.0386913
-0.0380822
-0.0375705
-0.0385262
-0.0365871
-0.0373135
-0.0410345
-0.0417436
-0.0397763
-0.0407642
-0.040263
-0.0396877
-0.0397665
-0.0396021
-0.0393892
-0.0392752
-0.039183
-0.0390582
-0.0388245
-0.0386327
-0.0386783
-0.0380648
-0.0375486
-0.0384977
-0.0365519
-0.0372688
-0.0410346
-0.0417436
-0.0397763
-0.0407642
-0.040263
-0.0396878
-0.0397665
-0.0396021
-0.0393892
-0.0392752
-0.039183
-0.0390582
-0.0388245
-0.0386327
-0.0386784
-0.0380648
-0.0375486
-0.0384977
-0.0365519
-0.0372688
-0.0409928
-0.0417116
-0.0397509
-0.040745
-0.0402478
-0.0396764
-0.0397589
-0.0395976
-0.039387
-0.0392747
-0.039184
-0.039061
-0.0388298
-0.0386416
-0.0386914
-0.0380823
-0.0375706
-0.0385262
-0.0365871
-0.0373135
-0.0409135
-0.0416503
-0.0397039
-0.0407116
-0.040222
-0.0396566
-0.0397444
-0.0395884
-0.0393822
-0.0392733
-0.0391856
-0.0390663
-0.0388402
-0.038658
-0.0387141
-0.0381118
-0.0376086
-0.0385785
-0.0366538
-0.0373981
-0.0407998
-0.0415538
-0.0396276
-0.0406597
-0.0401875
-0.0396331
-0.0397266
-0.0395759
-0.0393752
-0.039271
-0.0391878
-0.0390736
-0.0388536
-0.0386778
-0.0387407
-0.0381508
-0.0376662
-0.0386614
-0.0367572
-0.0375182
-0.0406578
-0.0414357
-0.0395281
-0.0405829
-0.0401387
-0.0396089
-0.0397119
-0.0395652
-0.0393681
-0.0392682
-0.0391896
-0.03908
-0.0388644
-0.0386937
-0.0387676
-0.0382038
-0.0377485
-0.0387674
-0.036882
-0.0376663
-0.0405187
-0.041372
-0.0394958
-0.0405315
-0.0400825
-0.039577
-0.0396974
-0.039558
-0.0393624
-0.0392647
-0.0391903
-0.0390834
-0.0388701
-0.0387078
-0.0388005
-0.0382625
-0.0378039
-0.0388043
-0.0369499
-0.0378088
-0.0403926
-0.0412224
-0.0394813
-0.0405464
-0.0400589
-0.0395363
-0.0396676
-0.0395481
-0.0393584
-0.0392613
-0.0391893
-0.0390832
-0.0388766
-0.0387353
-0.0388399
-0.0382862
-0.0377901
-0.0388203
-0.0371008
-0.0379342
-0.0402404
-0.0408945
-0.0391787
-0.0404508
-0.0401193
-0.0395708
-0.0396585
-0.0395554
-0.0393728
-0.0392644
-0.0391793
-0.0390621
-0.038863
-0.0387385
-0.0387997
-0.0382219
-0.0378818
-0.0391202
-0.0374267
-0.0380809
-0.0402474
-0.0414626
-0.0394988
-0.0402535
-0.0400948
-0.039648
-0.0396394
-0.039533
-0.0393749
-0.039265
-0.0391702
-0.0390515
-0.038877
-0.038749
-0.0387141
-0.0382404
-0.0380701
-0.0387963
-0.0368468
-0.0380639
-0.0402969
-0.0403644
-0.0401474
-0.0401791
-0.0399799
-0.0397892
-0.0396733
-0.0395308
-0.0393936
-0.039273
-0.0391527
-0.0390231
-0.0388688
-0.0387034
-0.0385616
-0.0383453
-0.0381278
-0.0381467
-0.0379315
-0.038004
-0.0604106
-0.0604597
-0.0601975
-0.0601649
-0.0598928
-0.0596286
-0.0594431
-0.0592368
-0.059041
-0.0588645
-0.0586874
-0.0584967
-0.0582742
-0.058032
-0.0578057
-0.057501
-0.0571981
-0.0571447
-0.0568824
-0.0569384
-0.0603696
-0.0615522
-0.059534
-0.0602216
-0.0599907
-0.0594728
-0.0593981
-0.0592318
-0.0590191
-0.0588574
-0.0587102
-0.0585347
-0.0582963
-0.0580956
-0.0579799
-0.0574203
-0.0571647
-0.0578152
-0.0558095
-0.0569965
-0.0603991
-0.0610014
-0.059218
-0.0604161
-0.0600091
-0.0593888
-0.0594112
-0.05925
-0.0590153
-0.0588579
-0.0587234
-0.0585524
-0.0582919
-0.0580968
-0.0580779
-0.0574131
-0.0569839
-0.0581388
-0.0563755
-0.0569818
-0.0606114
-0.0613696
-0.0595449
-0.0605253
-0.0599554
-0.0593568
-0.0594209
-0.0592427
-0.0590011
-0.0588557
-0.0587351
-0.0585759
-0.0583081
-0.0580952
-0.0581173
-0.0574721
-0.0568794
-0.057815
-0.0560095
-0.0567761
-0.0608088
-0.0615712
-0.0595946
-0.0605337
-0.0599939
-0.0594066
-0.059456
-0.0592556
-0.0590067
-0.05886
-0.0587363
-0.0585754
-0.0582993
-0.0580628
-0.0580685
-0.0574323
-0.0568679
-0.0577611
-0.0558037
-0.0565767
-0.0610211
-0.0616905
-0.0596667
-0.0606132
-0.0600692
-0.0594511
-0.0594784
-0.0592674
-0.0590147
-0.0588639
-0.0587344
-0.0585689
-0.0582879
-0.0580391
-0.0580207
-0.0573512
-0.0567803
-0.0576795
-0.0556751
-0.056356
-0.0612306
-0.0618612
-0.0598051
-0.0607185
-0.0601381
-0.0594891
-0.059502
-0.0592835
-0.0590245
-0.0588672
-0.0587308
-0.0585582
-0.0582697
-0.0580116
-0.0579768
-0.057274
-0.0566645
-0.0575288
-0.0554916
-0.0561344
-0.0613998
-0.0620019
-0.0599148
-0.0607952
-0.0601906
-0.0595251
-0.0595281
-0.059301
-0.059034
-0.0588697
-0.0587268
-0.0585466
-0.058249
-0.0579808
-0.0579342
-0.0572128
-0.0565771
-0.0574069
-0.0553382
-0.055953
-0.0615185
-0.0620948
-0.0599861
-0.0608469
-0.0602298
-0.0595543
-0.0595489
-0.059314
-0.0590406
-0.0588712
-0.0587235
-0.0585378
-0.0582329
-0.0579558
-0.0578994
-0.0571666
-0.0565169
-0.057326
-0.0552352
-0.0558245
-0.0615806
-0.0621434
-0.0600244
-0.060876
-0.0602523
-0.0595708
-0.05956
-0.0593207
-0.0590439
-0.0588719
-0.0587217
-0.0585332
-0.0582245
-0.0579424
-0.0578798
-0.0571402
-0.0564831
-0.0572824
-0.0551811
-0.0557569
-0.0615806
-0.0621435
-0.0600244
-0.060876
-0.0602523
-0.0595708
-0.05956
-0.0593207
-0.0590439
-0.0588719
-0.0587217
-0.0585332
-0.0582245
-0.0579424
-0.0578798
-0.0571401
-0.0564831
-0.0572824
-0.0551811
-0.0557569
-0.0615186
-0.0620949
-0.0599863
-0.0608471
-0.0602299
-0.0595544
-0.059549
-0.0593141
-0.0590406
-0.0588712
-0.0587235
-0.0585378
-0.058233
-0.0579558
-0.0578994
-0.0571666
-0.0565168
-0.0573259
-0.0552351
-0.0558244
-0.0614
-0.0620021
-0.059915
-0.0607954
-0.0601908
-0.0595252
-0.0595282
-0.059301
-0.059034
-0.0588697
-0.0587268
-0.0585466
-0.058249
-0.0579808
-0.0579341
-0.0572128
-0.056577
-0.0574068
-0.0553381
-0.0559529
-0.0612308
-0.0618614
-0.0598053
-0.0607187
-0.0601383
-0.0594892
-0.0595021
-0.0592835
-0.0590245
-0.0588672
-0.0587308
-0.0585582
-0.0582697
-0.0580116
-0.0579767
-0.0572739
-0.0566644
-0.0575287
-0.0554915
-0.0561344
-0.0610213
-0.0616907
-0.0596669
-0.0606134
-0.0600694
-0.0594512
-0.0594785
-0.0592674
-0.0590147
-0.0588639
-0.0587344
-0.0585688
-0.0582878
-0.058039
-0.0580206
-0.0573511
-0.0567802
-0.0576795
-0.0556751
-0.0563559
-0.060809
-0.0615713
-0.0595947
-0.0605338
-0.059994
-0.0594067
-0.0594561
-0.0592555
-0.0590067
-0.0588599
-0.0587362
-0.0585753
-0.0582993
-0.0580627
-0.0580685
-0.0574323
-0.0568679
-0.0577612
-0.0558038
-0.0565768
-0.0606114
-0.0613696
-0.0595449
-0.0605253
-0.0599555
-0.0593569
-0.0594209
-0.0592426
-0.059001
-0.0588556
-0.058735
-0.0585759
-0.0583082
-0.0580954
-0.0581175
-0.0574722
-0.0568795
-0.0578152
-0.0560097
-0.0567762
-0.0603993
-0.0610017
-0.0592183
-0.0604161
-0.060009
-0.0593886
-0.059411
-0.0592498
-0.0590151
-0.0588577
-0.0587232
-0.0585524
-0.0582921
-0.058097
-0.0580781
-0.0574132
-0.056984
-0.0581388
-0.0563755
-0.0569819
-0.0603703
-0.0615524
-0.0595346
-0.060222
-0.0599909
-0.0594729
-0.0593979
-0.0592315
-0.0590188
-0.0588572
-0.0587101
-0.058535
-0.0582966
-0.0580959
-0.05798
-0.0574202
-0.0571644
-0.0578149
-0.0558092
-0.0569964
-0.0604119
-0.0604606
-0.0601982
-0.0601654
-0.0598932
-0.0596287
-0.0594431
-0.0592366
-0.0590408
-0.0588643
-0.0586875
-0.058497
-0.0582745
-0.0580321
-0.0578055
-0.0575006
-0.0571975
-0.0571441
-0.0568819
-0.0569382
-0.0805191
-0.0805425
-0.080225
-0.0801192
-0.0797688
-0.0794299
-0.0791787
-0.0789169
-0.0786742
-0.0784555
-0.078236
-0.077997
-0.0777155
-0.0774011
-0.0770892
-0.0766897
-0.0762907
-0.0761522
-0.075831
-0.0758641
-0.0804923
-0.0816291
-0.0795444
-0.0801554
-0.0798467
-0.0792572
-0.0791207
-0.0789034
-0.0786487
-0.0784497
-0.078265
-0.0780464
-0.0777543
-0.0774866
-0.0772899
-0.0766386
-0.0762872
-0.076848
-0.0747707
-0.0759149
-0.0805707
-0.0811023
-0.0792344
-0.0803467
-0.0798579
-0.079165
-0.0791268
-0.0789169
-0.0786429
-0.0784516
-0.0782829
-0.0780721
-0.0777611
-0.0775013
-0.0774026
-0.0766448
-0.0761149
-0.0771698
-0.0753165
-0.0758549
-0.08086
-0.0815215
-0.0795915
-0.0804731
-0.0798129
-0.0791368
-0.0791377
-0.0789099
-0.0786292
-0.0784505
-0.0782967
-0.0780984
-0.07778
-0.0775012
-0.0774404
-0.0766962
-0.0759932
-0.0768144
-0.0748974
-0.0755701
-0.081147
-0.0817878
-0.0796846
-0.0805101
-0.0798696
-0.0791976
-0.0791792
-0.0789263
-0.0786368
-0.0784558
-0.078298
-0.0780967
-0.077768
-0.0774621
-0.0773793
-0.0766357
-0.075949
-0.0767117
-0.0746205
-0.0752745
-0.0814495
-0.0819752
-0.0798051
-0.0806235
-0.0799679
-0.0792571
-0.079211
-0.0789437
-0.0786476
-0.0784603
-0.0782947
-0.0780864
-0.0777494
-0.0774264
-0.0773127
-0.0765265
-0.0758208
-0.0765734
-0.0744144
-0.0749537
-0.081741
-0.0822096
-0.0799903
-0.0807627
-0.0800607
-0.0793112
-0.0792451
-0.078966
-0.0786604
-0.078464
-0.0782889
-0.0780705
-0.0777222
-0.0773848
-0.0772477
-0.076419
-0.0756632
-0.0763666
-0.074157
-0.0746395
-0.0819772
-0.0824032
-0.0801399
-0.0808689
-0.0801343
-0.0793618
-0.0792808
-0.0789893
-0.0786726
-0.0784667
-0.0782825
-0.0780536
-0.0776926
-0.0773404
-0.0771855
-0.0763305
-0.0755388
-0.0761962
-0.0739411
-0.0743812
-0.0821431
-0.0825339
-0.0802399
-0.0809422
-0.0801891
-0.0794021
-0.0793089
-0.0790068
-0.0786813
-0.0784682
-0.0782772
-0.0780406
-0.0776696
-0.077305
-0.0771358
-0.0762637
-0.0754512
-0.0760799
-0.0737932
-0.0741981
-0.0822295
-0.0826021
-0.0802933
-0.0809826
-0.08022
-0.0794244
-0.0793239
-0.0790159
-0.0786858
-0.0784689
-0.0782744
-0.0780337
-0.0776574
-0.0772859
-0.0771081
-0.0762264
-0.075403
-0.0760177
-0.0737157
-0.0741024
-0.0822295
-0.0826021
-0.0802933
-0.0809826
-0.08022
-0.0794244
-0.079324
-0.0790159
-0.0786858
-0.0784689
-0.0782744
-0.0780337
-0.0776575
-0.0772859
-0.0771082
-0.0762264
-0.075403
-0.0760177
-0.0737156
-0.0741024
-0.0821432
-0.082534
-0.0802401
-0.0809423
-0.0801892
-0.0794022
-0.079309
-0.0790069
-0.0786814
-0.0784683
-0.0782773
-0.0780407
-0.0776697
-0.0773051
-0.0771358
-0.0762638
-0.0754512
-0.0760798
-0.0737932
-0.0741981
-0.0819774
-0.0824034
-0.0801401
-0.0808691
-0.0801344
-0.079362
-0.0792809
-0.0789894
-0.0786727
-0.0784668
-0.0782825
-0.0780537
-0.0776927
-0.0773405
-0.0771855
-0.0763305
-0.0755387
-0.0761961
-0.073941
-0.0743812
-0.0817413
-0.0822098
-0.0799905
-0.0807629
-0.0800609
-0.0793114
-0.0792452
-0.0789661
-0.0786605
-0.0784641
-0.078289
-0.0780706
-0.0777223
-0.0773849
-0.0772476
-0.076419
-0.0756631
-0.0763665
-0.0741569
-0.0746394
-0.0814497
-0.0819754
-0.0798053
-0.0806237
-0.0799681
-0.0792573
-0.0792111
-0.0789438
-0.0786477
-0.0784604
-0.0782948
-0.0780864
-0.0777495
-0.0774265
-0.0773126
-0.0765264
-0.0758207
-0.0765734
-0.0744144
-0.0749537
-0.081147
-0.0817878
-0.0796847
-0.0805102
-0.0798697
-0.0791977
-0.0791793
-0.0789264
-0.0786368
-0.0784558
-0.078298
-0.0780967
-0.0777681
-0.0774621
-0.0773793
-0.0766358
-0.0759491
-0.0767118
-0.0746206
-0.0752746
-0.0808599
-0.0815215
-0.0795916
-0.0804731
-0.079813
-0.0791368
-0.0791377
-0.0789098
-0.0786291
-0.0784505
-0.0782967
-0.0780985
-0.0777801
-0.0775014
-0.0774406
-0.0766964
-0.0759934
-0.0768147
-0.0748977
-0.0755703
-0.0805708
-0.0811025
-0.0792347
-0.0803468
-0.0798579
-0.0791649
-0.0791267
-0.0789167
-0.0786427
-0.0784514
-0.0782829
-0.0780722
-0.0777614
-0.0775016
-0.0774028
-0.076645
-0.0761151
-0.0771699
-0.0753166
-0.075855
-0.0804928
-0.0816295
-0.0795449
-0.0801557
-0.0798469
-0.0792571
-0.0791205
-0.0789032
-0.0786484
-0.0784496
-0.078265
-0.0780467
-0.0777547
-0.077487
-0.0772901
-0.0766385
-0.0762869
-0.0768476
-0.0747704
-0.0759147
-0.0805199
-0.0805432
-0.0802256
-0.0801197
-0.0797691
-0.0794301
-0.0791787
-0.0789167
-0.078674
-0.0784554
-0.0782362
-0.0779973
-0.077716
-0.0774013
-0.0770891
-0.0766893
-0.0762902
-0.0761516
-0.0758305
-0.0758638
-0.100609
-0.100598
-0.100212
-0.100022
-0.0995872
-0.0991737
-0.0988634
-0.0985589
-0.0982869
-0.0980466
-0.0978055
-0.0975369
-0.097211
-0.0968321
-0.096435
-0.095933
-0.0954238
-0.0951825
-0.0947857
-0.0947863
-0.100606
-0.101681
-0.0995123
-0.100034
-0.0996417
-0.098981
-0.0987904
-0.0985359
-0.0982575
-0.0980427
-0.0978423
-0.0976005
-0.0972704
-0.0969448
-0.0966687
-0.0959189
-0.0954575
-0.0959094
-0.093739
-0.0948218
-0.100751
-0.101186
-0.0992114
-0.100223
-0.099645
-0.0988798
-0.0987886
-0.098544
-0.0982498
-0.0980463
-0.0978661
-0.097636
-0.0972908
-0.0969759
-0.096799
-0.095941
-0.0952948
-0.096227
-0.0942551
-0.0946969
-0.101141
-0.101672
-0.0996072
-0.100371
-0.0996112
-0.0988564
-0.0988011
-0.0985374
-0.0982366
-0.0980467
-0.0978822
-0.0976654
-0.0973125
-0.096977
-0.0968338
-0.0959817
-0.0951495
-0.095829
-0.0937643
-0.0943049
-0.101541
-0.102019
-0.0997545
-0.100444
-0.0996902
-0.0989306
-0.0988503
-0.0985581
-0.0982463
-0.0980527
-0.0978832
-0.0976618
-0.0972959
-0.0969287
-0.0967563
-0.0958938
-0.0950624
-0.0956619
-0.0933935
-0.0938817
-0.101957
-0.102291
-0.0999346
-0.100599
-0.0998164
-0.0990082
-0.0988932
-0.0985818
-0.0982601
-0.0980577
-0.0978778
-0.0976462
-0.0972678
-0.0968775
-0.0966653
-0.095748
-0.0948815
-0.0954502
-0.0930867
-0.0934305
-0.10235
-0.102604
-0.100177
-0.100779
-0.0999379
-0.0990816
-0.0989396
-0.0986113
-0.0982762
-0.0980613
-0.0978688
-0.0976234
-0.0972289
-0.0968177
-0.0965733
-0.0956019
-0.0946702
-0.0951712
-0.092734
-0.0929967
-0.102669
-0.102863
-0.100375
-0.100921
-0.100037
-0.0991495
-0.0989866
-0.0986413
-0.0982914
-0.0980638
-0.0978589
-0.0975997
-0.097188
-0.096756
-0.0964862
-0.0954786
-0.0944988
-0.0949389
-0.0924383
-0.0926401
-0.102892
-0.103039
-0.10051
-0.10102
-0.10011
-0.0992027
-0.0990232
-0.0986638
-0.0983023
-0.0980651
-0.097851
-0.0975811
-0.097156
-0.0967074
-0.0964175
-0.0953858
-0.0943764
-0.0947776
-0.0922332
-0.0923876
-0.103008
-0.103131
-0.100581
-0.101074
-0.100151
-0.0992319
-0.0990428
-0.0986755
-0.0983079
-0.0980656
-0.0978467
-0.0975712
-0.097139
-0.0966811
-0.0963798
-0.0953346
-0.0943099
-0.0946918
-0.0921259
-0.0922559
-0.103008
-0.103131
-0.100581
-0.101074
-0.100151
-0.0992319
-0.0990428
-0.0986755
-0.098308
-0.0980656
-0.0978467
-0.0975713
-0.097139
-0.0966811
-0.0963798
-0.0953346
-0.0943099
-0.0946918
-0.0921259
-0.0922559
-0.102892
-0.103039
-0.10051
-0.10102
-0.10011
-0.0992028
-0.0990233
-0.0986638
-0.0983024
-0.0980652
-0.0978511
-0.0975812
-0.0971561
-0.0967074
-0.0964176
-0.0953858
-0.0943764
-0.0947775
-0.0922332
-0.0923876
-0.102669
-0.102863
-0.100375
-0.100921
-0.100037
-0.0991497
-0.0989867
-0.0986414
-0.0982915
-0.0980639
-0.0978591
-0.0975998
-0.0971881
-0.0967561
-0.0964862
-0.0954786
-0.0944987
-0.0949388
-0.0924382
-0.0926401
-0.10235
-0.102604
-0.100177
-0.100779
-0.0999381
-0.0990818
-0.0989398
-0.0986115
-0.0982763
-0.0980614
-0.0978689
-0.0976236
-0.097229
-0.0968177
-0.0965733
-0.0956019
-0.0946702
-0.0951711
-0.0927339
-0.0929966
-0.101957
-0.102292
-0.0999347
-0.100599
-0.0998166
-0.0990084
-0.0988934
-0.098582
-0.0982603
-0.0980578
-0.0978779
-0.0976463
-0.0972679
-0.0968776
-0.0966653
-0.095748
-0.0948815
-0.0954502
-0.0930867
-0.0934305
-0.101542
-0.102019
-0.0997545
-0.100444
-0.0996903
-0.0989307
-0.0988504
-0.0985582
-0.0982464
-0.0980528
-0.0978833
-0.0976618
-0.097296
-0.0969288
-0.0967563
-0.0958939
-0.0950625
-0.095662
-0.0933936
-0.0938818
-0.101141
-0.101671
-0.0996072
-0.100371
-0.0996113
-0.0988564
-0.0988011
-0.0985374
-0.0982366
-0.0980466
-0.0978822
-0.0976654
-0.0973127
-0.0969772
-0.096834
-0.0959819
-0.0951498
-0.0958292
-0.0937645
-0.094305
-0.100751
-0.101187
-0.0992116
-0.100223
-0.099645
-0.0988797
-0.0987885
-0.0985438
-0.0982496
-0.0980462
-0.0978661
-0.0976362
-0.097291
-0.0969762
-0.0967992
-0.0959412
-0.0952949
-0.0962271
-0.0942552
-0.094697
-0.100606
-0.101681
-0.0995127
-0.100035
-0.0996418
-0.098981
-0.0987902
-0.0985356
-0.0982572
-0.0980425
-0.0978424
-0.0976008
-0.0972708
-0.0969451
-0.0966688
-0.0959187
-0.0954573
-0.095909
-0.0937387
-0.0948217
-0.10061
-0.100599
-0.100213
-0.100023
-0.0995876
-0.0991739
-0.0988634
-0.0985587
-0.0982867
-0.0980465
-0.0978056
-0.0975373
-0.0972114
-0.0968323
-0.0964348
-0.0959325
-0.0954232
-0.0951819
-0.0947852
-0.094786
-0.12066
-0.120602
-0.120132
-0.119844
-0.119318
-0.118832
-0.118473
-0.118145
-0.11787
-0.117637
-0.117405
-0.117135
-0.116787
-0.116357
-0.115877
-0.115264
-0.114627
-0.11426
-0.113765
-0.11372
-0.120692
-0.121682
-0.119409
-0.119828
-0.119344
-0.118615
-0.118383
-0.118111
-0.117836
-0.117636
-0.117452
-0.117216
-0.116872
-0.116503
-0.116152
-0.115297
-0.114708
-0.115026
-0.112733
-0.113729
-0.120927
-0.121233
-0.119122
-0.120014
-0.119339
-0.118504
-0.118372
-0.118113
-0.117826
-0.117642
-0.117483
-0.117264
-0.116909
-0.116554
-0.116304
-0.115338
-0.114556
-0.115335
-0.113206
-0.113512
-0.121447
-0.121803
-0.119567
-0.120191
-0.11932
-0.118487
-0.118386
-0.118107
-0.117814
-0.117644
-0.117501
-0.117296
-0.116933
-0.116556
-0.116333
-0.115363
-0.114378
-0.114879
-0.112618
-0.112974
-0.121993
-0.122254
-0.119782
-0.120307
-0.119426
-0.118577
-0.118445
-0.118133
-0.117826
-0.117651
-0.117502
-0.11729
-0.11691
-0.116495
-0.116234
-0.115239
-0.114234
-0.114627
-0.112122
-0.112381
-0.122551
-0.122632
-0.120036
-0.120513
-0.119587
-0.118677
-0.118501
-0.118164
-0.117843
-0.117656
-0.117493
-0.117267
-0.116869
-0.116423
-0.116111
-0.115045
-0.113984
-0.114319
-0.111683
-0.111758
-0.12307
-0.123042
-0.120349
-0.120744
-0.119743
-0.118773
-0.118562
-0.118202
-0.117862
-0.117659
-0.117479
-0.117235
-0.116815
-0.11634
-0.115984
-0.114849
-0.113703
-0.113946
-0.111207
-0.111169
-0.123491
-0.12338
-0.120606
-0.120929
-0.119872
-0.118862
-0.118622
-0.118239
-0.117881
-0.11766
-0.117465
-0.117202
-0.116759
-0.116256
-0.115865
-0.114681
-0.113471
-0.113634
-0.110808
-0.110685
-0.123785
-0.123612
-0.120783
-0.121059
-0.119968
-0.11893
-0.118669
-0.118268
-0.117894
-0.117661
-0.117453
-0.117176
-0.116716
-0.11619
-0.115772
-0.114555
-0.113304
-0.113415
-0.110529
-0.110343
-0.123938
-0.123733
-0.120876
-0.121129
-0.120021
-0.118968
-0.118694
-0.118282
-0.117901
-0.117661
-0.117447
-0.117163
-0.116693
-0.116155
-0.115721
-0.114486
-0.113214
-0.113299
-0.110384
-0.110165
-0.123938
-0.123733
-0.120876
-0.121129
-0.120021
-0.118968
-0.118694
-0.118282
-0.117901
-0.117661
-0.117447
-0.117163
-0.116693
-0.116155
-0.115721
-0.114486
-0.113214
-0.113299
-0.110384
-0.110165
-0.123785
-0.123612
-0.120783
-0.121059
-0.119968
-0.118931
-0.118669
-0.118268
-0.117894
-0.117661
-0.117453
-0.117176
-0.116716
-0.11619
-0.115772
-0.114555
-0.113304
-0.113415
-0.110529
-0.110343
-0.123491
-0.12338
-0.120606
-0.120929
-0.119872
-0.118862
-0.118622
-0.118239
-0.117881
-0.117661
-0.117465
-0.117202
-0.116759
-0.116256
-0.115865
-0.114681
-0.113471