/*--------------------------------*- C++ -*----------------------------------*\
  =========                 |
  \\      /  F ield         | OpenFOAM: The Open Source CFD Toolbox
   \\    /   O peration     | Website:  https://openfoam.org
    \\  /    A nd           | Version:  6
     \\/     M anipulation  |
\*---------------------------------------------------------------------------*/
FoamFile
{
    version     2.0;
    format      ascii;
    class       surfaceScalarField;
    location    "0.05";
    object      phi;
}
// * * * * * * * * * * * * * * * * * * * * * * * * * * * * * * * * * * * * * //

dimensions      [0 3 -1 0 0 0 0];

internalField   nonuniform List<scalar> 
140400
(
1.60691e-12
6.02624e-13
1.13831e-06
-2.35494e-12
5.91642e-12
2.5196e-06
5.26357e-12
-4.60566e-12
3.49479e-06
5.94884e-12
2.94186e-12
4.23013e-06
7.70378e-12
2.10583e-12
4.79746e-06
1.20806e-11
-6.47439e-13
5.23466e-06
1.48428e-11
5.00022e-13
5.56442e-06
1.68191e-11
5.32381e-13
5.80125e-06
1.83787e-11
-2.18902e-14
5.95449e-06
1.89171e-11
-1.05096e-13
6.02977e-06
1.82127e-11
-8.06279e-15
6.02976e-06
1.65007e-11
-9.45552e-14
5.95446e-06
1.43965e-11
-6.53989e-13
5.8012e-06
1.1536e-11
-6.2126e-13
5.56434e-06
7.1207e-12
5.1338e-13
5.23455e-06
5.40654e-12
-2.25254e-12
4.79733e-06
4.73586e-12
-2.99293e-12
4.22999e-06
-2.76856e-12
4.48511e-12
3.49465e-06
8.80538e-13
-5.73337e-12
2.51948e-06
3.82047e-14
1.13824e-06
2.17992e-12
2.77899e-13
2.5196e-06
7.03737e-12
6.34908e-12
6.17426e-06
8.84737e-12
1.45301e-12
8.93357e-06
1.70289e-11
4.27286e-12
1.10677e-05
2.65511e-11
2.76246e-12
1.27319e-05
3.48271e-11
9.46609e-13
1.40208e-05
4.27013e-11
1.2859e-12
1.49956e-05
4.90505e-11
8.66318e-13
1.56967e-05
5.29704e-11
1.82804e-13
1.61508e-05
5.41797e-11
-1.06671e-13
1.6374e-05
5.26069e-11
-2.6105e-13
1.6374e-05
4.83484e-11
-5.66845e-13
1.61508e-05
4.17092e-11
-1.28084e-12
1.56966e-05
3.36245e-11
-1.73371e-12
1.49954e-05
2.52532e-11
-1.42939e-12
1.40205e-05
1.57918e-11
-3.26135e-12
1.27316e-05
7.87143e-12
-4.69484e-12
1.10674e-05
6.3316e-12
-1.81601e-12
8.93326e-06
1.78725e-12
-6.44328e-12
6.17399e-06
-1.18012e-13
2.51948e-06
2.69087e-13
2.78177e-12
3.4948e-06
8.54565e-12
5.75349e-12
8.93359e-06
1.73039e-11
4.22589e-12
1.32068e-05
2.98405e-11
5.81619e-12
1.65848e-05
4.34096e-11
4.37059e-12
1.92509e-05
5.64884e-11
2.66999e-12
2.13304e-05
6.86036e-11
2.22121e-12
2.29097e-05
7.82444e-11
1.34355e-12
2.40487e-05
8.42671e-11
4.4315e-13
2.47875e-05
8.61693e-11
-1.2296e-13
2.51509e-05
8.38011e-11
-5.90637e-13
2.51508e-05
7.73382e-11
-1.18584e-12
2.47874e-05
6.73117e-11
-2.13974e-12
2.40485e-05
5.49081e-11
-3.07916e-12
2.29095e-05
4.16967e-11
-3.58285e-12
2.133e-05
2.82144e-11
-5.30661e-12
1.92505e-05
1.60108e-11
-6.67143e-12
1.65843e-05
7.71667e-12
-4.95384e-12
1.32064e-05
-5.88642e-14
-6.17555e-12
8.93324e-06
-2.85906e-12
3.49464e-06
2.89537e-12
3.20959e-12
4.23015e-06
1.1569e-11
6.45377e-12
1.10678e-05
2.34491e-11
6.6165e-12
1.65848e-05
3.99108e-11
6.93844e-12
2.1023e-05
5.79077e-11
5.45004e-12
2.45658e-05
7.54452e-11
3.82713e-12
2.73495e-05
9.13732e-11
2.84154e-12
2.94737e-05
1.03895e-10
1.70189e-12
3.10103e-05
1.11727e-10
6.57601e-13
3.20088e-05
1.14236e-10
-1.5074e-13
3.25006e-05
1.11216e-10
-9.00474e-13
3.25005e-05
1.02896e-10
-1.74732e-12
3.20087e-05
8.99364e-11
-2.86137e-12
3.10101e-05
7.36724e-11
-4.08266e-12
2.94734e-05
5.59731e-11
-5.13678e-12
2.73491e-05
3.80656e-11
-6.78542e-12
2.45653e-05
2.19823e-11
-8.1935e-12
2.10224e-05
1.06553e-11
-7.6894e-12
1.65843e-05
2.56015e-12
-7.17087e-12
1.10674e-05
-3.45707e-12
4.22996e-06
3.68947e-12
3.19708e-12
4.79749e-06
1.37452e-11
6.97635e-12
1.27319e-05
2.91179e-11
7.53146e-12
1.92509e-05
4.902e-11
7.25817e-12
2.45658e-05
7.05795e-11
5.94862e-12
2.88492e-05
9.16741e-11
4.44005e-12
3.22373e-05
1.10619e-10
3.17971e-12
3.48347e-05
1.25472e-10
1.9135e-12
3.67194e-05
1.34811e-10
7.82363e-13
3.79465e-05
1.3784e-10
-1.81787e-13
3.85514e-05
1.34287e-10
-1.1092e-12
3.85514e-05
1.24441e-10
-2.11678e-12
3.79463e-05
1.09125e-10
-3.3259e-12
3.67191e-05
8.98138e-11
-4.68397e-12
3.48344e-05
6.85355e-11
-6.02027e-12
3.22369e-05
4.70613e-11
-7.55447e-12
2.88487e-05
2.75546e-11
-8.78432e-12
2.45653e-05
1.27853e-11
-8.84441e-12
1.92504e-05
3.35135e-12
-7.89691e-12
1.27315e-05
-3.54993e-12
4.79729e-06
3.94741e-12
3.15538e-12
5.23471e-06
1.59256e-11
6.4208e-12
1.40209e-05
3.39838e-11
7.21763e-12
2.13305e-05
5.6486e-11
6.92232e-12
2.73495e-05
8.08755e-11
5.84842e-12
3.22374e-05
1.04835e-10
4.46891e-12
3.61253e-05
1.26233e-10
3.1579e-12
3.91179e-05
1.42991e-10
1.90798e-12
4.12953e-05
1.53564e-10
7.92005e-13
4.27157e-05
1.57021e-10
-2.01286e-13
4.34166e-05
1.53043e-10
-1.169e-12
4.34166e-05
1.41959e-10
-2.20553e-12
4.27156e-05
1.24725e-10
-3.39879e-12
4.12951e-05
1.02943e-10
-4.74011e-12
3.91175e-05
7.87813e-11
-6.12673e-12
3.61248e-05
5.44695e-11
-7.52993e-12
3.22368e-05
3.23665e-11
-8.52682e-12
2.73489e-05
1.49366e-11
-8.60405e-12
2.13299e-05
3.60103e-12
-7.40863e-12
1.40204e-05
-3.54805e-12
5.23449e-06
4.5527e-12
2.65359e-12
5.56449e-06
1.76453e-11
5.32829e-12
1.49957e-05
3.74758e-11
6.15597e-12
2.29099e-05
6.2033e-11
5.92468e-12
2.94738e-05
8.87363e-11
5.05558e-12
3.48348e-05
1.14973e-10
3.89641e-12
3.91179e-05
1.38312e-10
2.74541e-12
4.24255e-05
1.56576e-10
1.66391e-12
4.48379e-05
1.68114e-10
6.89815e-13
4.64139e-05
1.71905e-10
-1.96646e-13
4.71923e-05
1.676e-10
-1.06533e-12
4.71923e-05
1.55554e-10
-1.98963e-12
4.64138e-05
1.3681e-10
-3.0312e-12
4.48376e-05
1.13073e-10
-4.19257e-12
4.24252e-05
8.66191e-11
-5.40963e-12
3.91174e-05
5.99839e-11
-6.58814e-12
3.48342e-05
3.58241e-11
-7.38869e-12
2.94732e-05
1.66334e-11
-7.42375e-12
2.29093e-05
4.19862e-12
-6.23749e-12
1.49952e-05
-3.01957e-12
5.56425e-06
4.9238e-12
1.86941e-12
5.80134e-06
1.87988e-11
3.83182e-12
1.56969e-05
3.99328e-11
4.47927e-12
2.40489e-05
6.60577e-11
4.31174e-12
3.10105e-05
9.44571e-11
3.68796e-12
3.67195e-05
1.22331e-10
2.85666e-12
4.12954e-05
1.47082e-10
2.01467e-12
4.48379e-05
1.66444e-10
1.22213e-12
4.74262e-05
1.78684e-10
5.01779e-13
4.91192e-05
1.8272e-10
-1.61348e-13
4.99559e-05
1.78179e-10
-8.13005e-13
4.99559e-05
1.65434e-10
-1.50398e-12
4.9119e-05
1.45588e-10
-2.2739e-12
4.74259e-05
1.20431e-10
-3.12505e-12
4.48375e-05
9.23283e-11
-4.01521e-12
4.1295e-05
6.39881e-11
-4.85927e-12
3.67189e-05
3.82578e-11
-5.4301e-12
3.10098e-05
1.77689e-11
-5.44809e-12
2.40483e-05
4.56185e-12
-4.52832e-12
1.56964e-05
-2.15104e-12
5.80109e-06
5.09149e-12
9.67556e-13
5.95459e-06
1.95275e-11
2.00181e-12
1.6151e-05
4.15347e-11
2.35173e-12
2.47877e-05
6.86871e-11
2.26322e-12
3.20091e-05
9.81729e-11
1.93761e-12
3.79467e-05
1.27099e-10
1.5046e-12
4.27159e-05
1.52768e-10
1.06029e-12
4.6414e-05
1.72848e-10
6.39987e-13
4.91192e-05
1.85548e-10
2.5603e-13
5.08902e-05
1.89743e-10
-9.90202e-14
5.17659e-05
1.85048e-10
-4.48117e-13
5.17658e-05
1.71847e-10
-8.17551e-13
5.089e-05
1.51282e-10
-1.22706e-12
4.9119e-05
1.252e-10
-1.67737e-12
4.64136e-05
9.60373e-11
-2.14575e-12
4.27154e-05
6.66045e-11
-2.58335e-12
3.79461e-05
3.98445e-11
-2.87794e-12
3.20084e-05
1.84854e-11
-2.88319e-12
2.4787e-05
4.72378e-12
-2.38381e-12
1.61505e-05
-1.12213e-12
5.95433e-06
5.17748e-12
2.56345e-15
6.02988e-06
1.98898e-11
3.19258e-15
1.63742e-05
4.23193e-11
3.30779e-15
2.51511e-05
6.99697e-11
7.18122e-16
3.25008e-05
9.99855e-11
-3.53884e-15
3.85516e-05
1.29431e-10
-8.3902e-15
4.34168e-05
1.55557e-10
-1.29525e-14
4.71925e-05
1.75994e-10
-1.66638e-14
4.9956e-05
1.88921e-10
-1.93296e-14
5.17659e-05
1.93195e-10
-2.10382e-14
5.26611e-05
1.88424e-10
-2.20738e-14
5.26611e-05
1.74998e-10
-2.28517e-14
5.17658e-05
1.54074e-10
-2.37873e-14
4.99558e-05
1.27532e-10
-2.50713e-14
4.71921e-05
9.78462e-11
-2.63879e-14
4.34163e-05
6.78803e-11
-2.69637e-14
3.8551e-05
4.06213e-11
-2.584e-14
3.25001e-05
1.88413e-11
-2.22467e-14
2.51505e-05
4.80669e-12
-1.56332e-14
1.63737e-05
-7.08673e-15
6.02962e-06
5.17707e-12
-9.61346e-13
6.02988e-06
1.98892e-11
-1.99362e-12
1.63742e-05
4.23185e-11
-2.34367e-12
2.51511e-05
6.99689e-11
-2.26086e-12
3.25008e-05
9.99849e-11
-1.94413e-12
3.85516e-05
1.29431e-10
-1.52101e-12
4.34168e-05
1.55558e-10
-1.08585e-12
4.71925e-05
1.75995e-10
-6.72898e-13
4.9956e-05
1.88922e-10
-2.94126e-13
5.17659e-05
1.93197e-10
5.76952e-14
5.26611e-05
1.88426e-10
4.04924e-13
5.26611e-05
1.74998e-10
7.72966e-13
5.17658e-05
1.54074e-10
1.18064e-12
4.99558e-05
1.27531e-10
1.6283e-12
4.71921e-05
9.78454e-11
2.0938e-12
4.34163e-05
6.78796e-11
2.52989e-12
3.8551e-05
4.06207e-11
2.82629e-12
3.25001e-05
1.88408e-11
2.83834e-12
2.51505e-05
4.8066e-12
2.35211e-12
1.63737e-05
1.10797e-12
6.02962e-06
5.09055e-12
-1.86145e-12
5.95459e-06
1.95259e-11
-3.82131e-12
1.6151e-05
4.15326e-11
-4.46953e-12
2.47877e-05
6.8685e-11
-4.30841e-12
3.20091e-05
9.81713e-11
-3.69388e-12
3.79467e-05
1.27098e-10
-2.87252e-12
4.27159e-05
1.5277e-10
-2.03949e-12
4.6414e-05
1.72851e-10
-1.25393e-12
4.91192e-05
1.85552e-10
-5.38293e-13
5.08902e-05
1.89748e-10
1.22159e-13
5.17659e-05
1.85053e-10
7.72498e-13
5.17658e-05
1.7185e-10
1.46249e-12
5.089e-05
1.51282e-10
2.23079e-12
4.9119e-05
1.25198e-10
3.07926e-12
4.64136e-05
9.60352e-11
3.96641e-12
4.27154e-05
6.66028e-11
4.80872e-12
3.79461e-05
3.98433e-11
5.38095e-12
3.20084e-05
1.84845e-11
5.40537e-12
2.4787e-05
4.72393e-12
4.49822e-12
1.61505e-05
2.13785e-12
5.95433e-06
4.92277e-12
-2.64535e-12
5.80134e-06
1.87966e-11
-5.31866e-12
1.56969e-05
3.993e-11
-6.14729e-12
2.40489e-05
6.60549e-11
-5.92221e-12
3.10105e-05
9.44549e-11
-5.06191e-12
3.67195e-05
1.22331e-10
-3.91216e-12
4.12955e-05
1.47084e-10
-2.76955e-12
4.48379e-05
1.66448e-10
-1.69436e-12
4.74262e-05
1.78692e-10
-7.24188e-13
4.91192e-05
1.82728e-10
1.60473e-13
4.9956e-05
1.78186e-10
1.02872e-12
4.99559e-05
1.65439e-10
1.95283e-12
4.9119e-05
1.45589e-10
2.99345e-12
4.74259e-05
1.20429e-10
4.15294e-12
4.48376e-05
9.23264e-11
5.36796e-12
4.1295e-05
6.39869e-11
6.54576e-12
3.67189e-05
3.82574e-11
7.34862e-12
3.10098e-05
1.77689e-11
7.3899e-12
2.40483e-05
4.56349e-12
6.21469e-12
1.56964e-05
3.00986e-12
5.80109e-06
4.55138e-12
-3.14662e-12
5.56449e-06
1.76427e-11
-6.41149e-12
1.49957e-05
3.74727e-11
-7.20969e-12
2.29099e-05
6.20298e-11
-6.92062e-12
2.94739e-05
8.87337e-11
-5.85525e-12
3.48348e-05
1.14972e-10
-4.4849e-12
3.91179e-05
1.38315e-10
-3.18184e-12
4.24255e-05
1.56583e-10
-1.93748e-12
4.48379e-05
1.68124e-10
-8.24376e-13
4.64139e-05
1.71917e-10
1.68438e-13
4.71923e-05
1.67611e-10
1.1372e-12
4.71923e-05
1.55562e-10
2.17503e-12
4.64138e-05
1.36812e-10
3.36889e-12
4.48376e-05
1.13073e-10
4.70987e-12
4.24252e-05
8.66191e-11
6.09615e-12
3.91175e-05
5.99852e-11
7.5006e-12
3.48342e-05
3.58261e-11
8.50065e-12
2.94732e-05
1.66352e-11
8.58388e-12
2.29093e-05
4.20172e-12
7.39689e-12
1.49952e-05
3.54354e-12
5.56425e-06
3.9429e-12
-3.18147e-12
5.23471e-06
1.59199e-11
-6.96017e-12
1.40209e-05
3.39779e-11
-7.51845e-12
2.13305e-05
5.64801e-11
-7.25348e-12
2.73496e-05
8.08709e-11
-5.95415e-12
3.22374e-05
1.04834e-10
-4.45593e-12
3.61253e-05
1.26236e-10
-3.20394e-12
3.91179e-05
1.43e-10
-1.94286e-12
4.12954e-05
1.53577e-10
-8.13383e-13
4.27158e-05
1.57036e-10
1.52181e-13
4.34167e-05
1.53057e-10
1.08306e-12
4.34166e-05
1.4197e-10
2.09464e-12
4.27156e-05
1.24731e-10
3.30669e-12
4.12951e-05
1.02945e-10
4.66626e-12
3.91175e-05
7.87836e-11
6.00373e-12
3.61248e-05
5.44731e-11
7.53945e-12
3.22368e-05
3.23707e-11
8.77261e-12
2.73489e-05
1.49398e-11
8.83717e-12
2.13299e-05
3.60428e-12
7.89519e-12
1.40204e-05
3.54987e-12
5.23449e-06
3.67295e-12
-3.16859e-12
4.7975e-06
1.37283e-11
-6.4142e-12
1.27319e-05
2.91016e-11
-6.58518e-12
1.92509e-05
4.90055e-11
-6.92205e-12
2.45658e-05
7.05689e-11
-5.44919e-12
2.88493e-05
9.16694e-11
-3.84033e-12
3.22373e-05
1.10622e-10
-2.8651e-12
3.48347e-05
1.25481e-10
-1.73097e-12
3.67194e-05
1.34827e-10
-6.87279e-13
3.79465e-05
1.3786e-10
1.24909e-13
3.85514e-05
1.34308e-10
8.8164e-13
3.85514e-05
1.24457e-10
1.73614e-12
3.79464e-05
1.09134e-10
2.85579e-12
3.67192e-05
8.98174e-11
4.07927e-12
3.48344e-05
6.85368e-11
5.13253e-12
3.22369e-05
4.7063e-11
6.77985e-12
2.88487e-05
2.75568e-11
8.1872e-12
2.45653e-05
1.27872e-11
7.68409e-12
1.92504e-05
3.35232e-12
7.16839e-12
1.27315e-05
3.45638e-12
4.79729e-06
2.85302e-12
-2.67298e-12
4.23015e-06
1.15275e-11
-5.66612e-12
1.10678e-05
2.34118e-11
-4.16019e-12
1.65848e-05
3.98807e-11
-5.77784e-12
2.1023e-05
5.78866e-11
-4.35651e-12
2.45658e-05
7.54346e-11
-2.67568e-12
2.73495e-05
9.13733e-11
-2.2407e-12
2.94737e-05
1.03906e-10
-1.36997e-12
3.10103e-05
1.11747e-10
-4.6964e-13
3.20089e-05
1.14262e-10
1.02585e-13
3.25006e-05
1.11244e-10
5.80599e-13
3.25005e-05
1.02919e-10
1.18647e-12
3.20088e-05
8.99484e-11
2.14657e-12
3.10101e-05
7.36731e-11
3.08471e-12
2.94734e-05
5.59667e-11
3.58092e-12
2.73491e-05
3.80568e-11
5.29467e-12
2.45653e-05
2.19748e-11
6.65172e-12
2.10225e-05
1.06507e-11
4.93047e-12
1.65843e-05
2.55651e-12
6.15519e-12
1.10674e-05
2.85073e-12
4.22996e-06
1.99176e-13
-3.84646e-14
3.4948e-06
8.46174e-12
-6.17865e-12
8.93359e-06
1.72354e-11
-1.35245e-12
1.32069e-05
2.97887e-11
-4.21383e-12
1.65848e-05
4.33747e-11
-2.73436e-12
1.92509e-05
5.64697e-11
-9.41691e-13
2.13304e-05
6.85999e-11
-1.29679e-12
2.29098e-05
7.82544e-11
-8.8527e-13
2.40487e-05
8.42895e-11
-2.01958e-13
2.47875e-05
8.62012e-11
9.44006e-14
2.51509e-05
8.38357e-11
2.60052e-13
2.51508e-05
7.73654e-11
5.76251e-13
2.47874e-05
6.73225e-11
1.29364e-12
2.40486e-05
5.49005e-11
1.73974e-12
2.29095e-05
4.16754e-11
1.42055e-12
2.133e-05
2.81885e-11
3.23611e-12
1.92505e-05
1.5988e-11
4.65737e-12
1.65843e-05
7.70306e-12
1.77361e-12
1.32064e-05
-6.44729e-14
6.40474e-12
8.93324e-06
1.02033e-13
3.49464e-06
1.96743e-12
5.68251e-14
2.5196e-06
6.8793e-12
-5.69052e-12
6.17426e-06
8.75186e-12
4.68598e-12
8.93358e-06
1.69628e-11
-2.88766e-12
1.10678e-05
2.65077e-11
-2.07825e-12
1.27319e-05
3.48031e-11
6.58479e-13
1.40208e-05
4.26941e-11
-4.98932e-13
1.49956e-05
4.90584e-11
-5.36446e-13
1.56968e-05
5.29922e-11
1.7217e-14
1.61508e-05
5.42122e-11
1.03535e-13
1.6374e-05
5.26419e-11
1.10889e-14
1.6374e-05
4.83735e-11
1.00328e-13
1.61508e-05
4.17141e-11
6.57758e-13
1.56966e-05
3.36067e-11
6.17692e-13
1.49954e-05
2.52197e-11
-5.27165e-13
1.40205e-05
1.57538e-11
2.23002e-12
1.27316e-05
7.83927e-12
2.96586e-12
1.10674e-05
6.3129e-12
-4.51204e-12
8.93326e-06
1.78564e-12
5.70986e-12
6.174e-06
-5.04239e-14
2.51948e-06
9.56449e-13
1.13831e-06
-2.58866e-12
2.5196e-06
5.14891e-12
3.49479e-06
5.89058e-12
4.23013e-06
7.67021e-12
4.79746e-06
1.20608e-11
5.23466e-06
1.48341e-11
5.56442e-06
1.68207e-11
5.80126e-06
1.83898e-11
5.95449e-06
1.89345e-11
6.02977e-06
1.823e-11
6.02976e-06
1.651e-11
5.95446e-06
1.43921e-11
5.8012e-06
1.15184e-11
5.56434e-06
7.09599e-12
5.23455e-06
5.38229e-12
4.79733e-06
4.71773e-12
4.22999e-06
-2.7786e-12
3.49465e-06
8.82433e-13
2.51948e-06
1.13824e-06
5.13268e-13
1.14057e-12
1.13831e-06
-3.51508e-12
7.73147e-12
2.5196e-06
4.61244e-12
-2.46285e-12
3.49479e-06
6.80196e-12
4.93299e-12
4.23012e-06
1.08804e-11
3.7859e-12
4.79745e-06
1.80119e-11
6.68152e-13
5.23465e-06
2.34894e-11
1.45563e-12
5.56441e-06
2.76881e-11
1.15347e-12
5.80125e-06
3.0613e-11
2.90406e-13
5.95449e-06
3.14345e-11
-8.61304e-14
6.02977e-06
2.98747e-11
-2.81698e-13
6.02976e-06
2.6291e-11
-6.7516e-13
5.95446e-06
2.15864e-11
-1.56771e-12
5.8012e-06
1.58156e-11
-1.89832e-12
5.56435e-06
8.66999e-12
-1.14676e-12
5.23456e-06
4.88121e-12
-4.28176e-12
4.79734e-06
3.14363e-12
-5.30587e-12
4.22999e-06
-4.32647e-12
2.10092e-12
3.49465e-06
1.43373e-13
-7.76131e-12
2.51948e-06
-9.29039e-13
1.13824e-06
1.45806e-12
3.0623e-12
2.5196e-06
7.10301e-12
1.19254e-11
6.17425e-06
1.21379e-11
7.86418e-12
8.93356e-06
2.60579e-11
1.04029e-11
1.10677e-05
4.32227e-11
8.05993e-12
1.27318e-05
5.9987e-11
5.19034e-12
1.40208e-05
7.59693e-11
4.4306e-12
1.49956e-05
8.8873e-11
2.94335e-12
1.56967e-05
9.68468e-11
1.23986e-12
1.61508e-05
9.90176e-11
-3.94153e-14
1.6374e-05
9.51563e-11
-1.1864e-12
1.6374e-05
8.56616e-11
-2.5221e-12
1.61508e-05
7.15705e-11
-4.32654e-12
1.56966e-05
5.48891e-11
-5.92798e-12
1.49954e-05
3.80352e-11
-6.78397e-12
1.40206e-05
2.14446e-11
-9.67337e-12
1.27316e-05
8.71426e-12
-1.18457e-11
1.10674e-05
5.09561e-12
-9.02817e-12
8.93327e-06
7.88993e-13
-1.24974e-11
6.174e-06
-3.04936e-12
2.51948e-06
3.39916e-13
7.51386e-12
3.4948e-06
1.15911e-11
1.52157e-11
8.93357e-06
2.73083e-11
1.5243e-11
1.32068e-05
5.05478e-11
1.65343e-11
1.65847e-05
7.74475e-11
1.3785e-11
1.92508e-05
1.04828e-10
1.03179e-11
2.13303e-05
1.30356e-10
7.9501e-12
2.29097e-05
1.50755e-10
5.1512e-12
2.40487e-05
1.63457e-10
2.37438e-12
2.47875e-05
1.67064e-10
-3.70445e-14
2.51509e-05
1.61179e-10
-2.36165e-12
2.51508e-05
1.46415e-10
-4.87134e-12
2.47874e-05
1.24384e-10
-7.82264e-12
2.40486e-05
9.78651e-11
-1.08212e-11
2.29095e-05
7.03151e-11
-1.33473e-11
2.13301e-05
4.41611e-11
-1.68429e-11
1.92505e-05
2.24968e-11
-1.93516e-11
1.65844e-05
8.78423e-12
-1.75563e-11
1.32064e-05
-5.9471e-13
-1.6625e-11
8.93325e-06
-7.88771e-12
3.49464e-06
3.93146e-12
9.3352e-12
4.23014e-06
1.82801e-11
1.88754e-11
1.10678e-05
4.12512e-11
2.12976e-11
1.65848e-05
7.35856e-11
2.14192e-11
2.10229e-05
1.10613e-10
1.83272e-11
2.45657e-05
1.48126e-10
1.43967e-11
2.73494e-05
1.82556e-10
1.08204e-11
2.94737e-05
2.09836e-10
7.02528e-12
3.10103e-05
2.26854e-10
3.34337e-12
3.20088e-05
2.31828e-10
-8.53064e-14
3.25006e-05
2.24225e-10
-3.4792e-12
3.25005e-05
2.04814e-10
-7.04e-12
3.20088e-05
1.75618e-10
-1.0955e-11
3.10101e-05
1.39997e-10
-1.50174e-11
2.94735e-05
1.0224e-10
-1.88011e-11
2.73491e-05
6.60406e-11
-2.27645e-11
2.45654e-05
3.55293e-11
-2.55622e-11
2.10225e-05
1.49364e-11
-2.4751e-11
1.65843e-05
2.83369e-12
-2.11533e-11
1.10674e-05
-1.01041e-11
4.22997e-06
5.7286e-12
9.95069e-12
4.79749e-06
2.41656e-11
2.08776e-11
1.27319e-05
5.46921e-11
2.4169e-11
1.92509e-05
9.54437e-11
2.38507e-11
2.45658e-05
1.41429e-10
2.08465e-11
2.88492e-05
1.87799e-10
1.67662e-11
3.22373e-05
2.29956e-10
1.2539e-11
3.48347e-05
2.63249e-10
8.17408e-12
3.67193e-05
2.84091e-10
3.92369e-12
3.79465e-05
2.90317e-10
-1.63981e-13
3.85514e-05
2.81256e-10
-4.2504e-12
3.85514e-05
2.5782e-10
-8.48953e-12
3.79464e-05
2.22427e-10
-1.30061e-11
3.67192e-05
1.78939e-10
-1.76762e-11
3.48344e-05
1.3226e-10
-2.21384e-11
3.22369e-05
8.71423e-11
-2.62514e-11
2.88488e-05
4.83636e-11
-2.8928e-11
2.45653e-05
2.04627e-11
-2.8444e-11
1.92504e-05
4.51261e-12
-2.37945e-11
1.27315e-05
-1.10149e-11
4.79729e-06
6.8944e-12
9.72831e-12
5.2347e-06
2.9717e-11
2.01206e-11
1.40209e-05
6.6611e-11
2.378e-11
2.13304e-05
1.14445e-10
2.35838e-11
2.73495e-05
1.68087e-10
2.09207e-11
3.22373e-05
2.22035e-10
1.70163e-11
3.61252e-05
2.70813e-10
1.27274e-11
3.91178e-05
3.09265e-10
8.32062e-12
4.12953e-05
3.3339e-10
3.99358e-12
4.27157e-05
3.40705e-10
-2.3509e-13
4.34166e-05
3.30432e-10
-4.48075e-12
4.34166e-05
3.03588e-10
-8.86198e-12
4.27156e-05
2.62915e-10
-1.34565e-11
4.12951e-05
2.12703e-10
-1.81697e-11
3.91176e-05
1.5839e-10
-2.26934e-11
3.61249e-05
1.0563e-10
-2.66263e-11
3.22369e-05
5.98615e-11
-2.8958e-11
2.7349e-05
2.57572e-11
-2.83325e-11
2.13299e-05
5.58558e-12
-2.32749e-11
1.40204e-05
-1.09197e-11
5.23449e-06
8.25347e-12
8.30362e-12
5.56448e-06
3.42581e-11
1.7218e-11
1.49957e-05
7.60246e-11
2.06405e-11
2.29099e-05
1.29687e-10
2.05916e-11
2.94738e-05
1.89701e-10
1.83984e-11
3.48348e-05
2.49879e-10
1.50551e-11
3.91178e-05
3.0409e-10
1.12838e-11
4.24255e-05
3.46768e-10
7.39269e-12
4.48378e-05
3.73573e-10
3.53823e-12
4.64139e-05
3.81784e-10
-2.63876e-13
4.71923e-05
3.70537e-10
-4.09052e-12
4.71923e-05
3.40932e-10
-8.02733e-12
4.64138e-05
2.95948e-10
-1.21175e-11
4.48377e-05
2.40227e-10
-1.62783e-11
4.24252e-05
1.79635e-10
-2.02552e-11
3.91175e-05
1.20505e-10
-2.36196e-11
3.48343e-05
6.89675e-11
-2.55149e-11
2.94733e-05
3.01025e-11
-2.48248e-11
2.29093e-05
6.87059e-12
-2.014e-11
1.49952e-05
-9.42492e-12
5.56426e-06
9.19838e-12
5.99161e-12
5.80133e-06
3.75756e-11
1.25652e-11
1.56969e-05
8.3043e-11
1.51758e-11
2.40489e-05
1.41197e-10
1.51927e-11
3.10104e-05
2.06053e-10
1.36256e-11
3.67194e-05
2.70934e-10
1.11943e-11
4.12954e-05
3.2926e-10
8.40906e-12
4.48379e-05
3.75145e-10
5.51613e-12
4.74261e-05
4.03981e-10
2.63068e-12
4.91191e-05
4.12873e-10
-2.31145e-13
4.99559e-05
4.00894e-10
-3.11546e-12
4.99559e-05
3.69201e-10
-6.07725e-12
4.9119e-05
3.20952e-10
-9.13745e-12
4.7426e-05
2.61059e-10
-1.22298e-11
4.48376e-05
1.95726e-10
-1.51661e-11
4.1295e-05
1.31751e-10
-1.76097e-11
3.6719e-05
7.57599e-11
-1.89503e-11
3.10099e-05
3.32716e-11
-1.83744e-11
2.40483e-05
7.75555e-12
-1.48076e-11
1.56964e-05
-6.85877e-12
5.80109e-06
9.75e-12
3.13842e-12
5.95458e-06
3.97616e-11
6.61936e-12
1.6151e-05
8.77282e-11
8.02549e-12
2.47877e-05
1.48898e-10
8.05075e-12
3.2009e-05
2.16982e-10
7.23597e-12
3.79466e-05
2.85003e-10
5.95869e-12
4.27158e-05
3.46091e-10
4.48132e-12
4.64139e-05
3.94129e-10
2.93903e-12
4.91192e-05
4.24329e-10
1.39474e-12
5.08901e-05
4.33678e-10
-1.40842e-13
5.17659e-05
4.21209e-10
-1.68928e-12
5.17658e-05
3.88116e-10
-3.2775e-12
5.089e-05
3.37674e-10
-4.9137e-12
4.9119e-05
2.74981e-10
-6.56056e-12
4.64137e-05
2.06483e-10
-8.11625e-12
4.27154e-05
1.39275e-10
-9.3972e-12
3.79461e-05
8.02927e-11
-1.00876e-11
3.20084e-05
3.53559e-11
-9.75971e-12
2.47871e-05
8.26465e-12
-7.83712e-12
1.61505e-05
-3.61079e-12
5.95434e-06
1.00283e-11
4.4358e-15
6.02987e-06
4.08556e-11
7.42003e-15
1.63742e-05
9.00644e-11
9.16636e-15
2.51511e-05
1.52737e-10
7.48316e-15
3.25008e-05
2.22435e-10
3.55815e-15
3.85516e-05
2.9203e-10
-1.41655e-15
4.34168e-05
3.54508e-10
-6.43811e-15
4.71924e-05
4.0363e-10
-1.08004e-14
4.9956e-05
4.34516e-10
-1.41524e-14
5.17659e-05
4.44095e-10
-1.644e-14
5.26611e-05
4.3138e-10
-1.78478e-14
5.26611e-05
3.97582e-10
-1.87496e-14
5.17658e-05
3.46036e-10
-1.95938e-14
4.99558e-05
2.81935e-10
-2.06647e-14
4.71921e-05
2.11847e-10
-2.17989e-14
4.34164e-05
1.43023e-10
-2.24016e-14
3.85511e-05
8.2551e-11
-2.16443e-14
3.25002e-05
3.63972e-11
-1.88233e-14
2.51505e-05
8.5204e-12
-1.33477e-14
1.63737e-05
-6.15577e-15
6.02963e-06
1.0028e-11
-3.12865e-12
6.02988e-06
4.08551e-11
-6.60344e-12
1.63742e-05
9.00634e-11
-8.00648e-12
2.51511e-05
1.52736e-10
-8.0356e-12
3.25008e-05
2.22433e-10
-7.22897e-12
3.85516e-05
2.92029e-10
-5.96175e-12
4.34168e-05
3.54508e-10
-4.49441e-12
4.71924e-05
4.0363e-10
-2.96072e-12
4.9956e-05
4.34517e-10
-1.42295e-12
5.17659e-05
4.44096e-10
1.08278e-13
5.26611e-05
4.31381e-10
1.65414e-12
5.26611e-05
3.97583e-10
3.24075e-12
5.17658e-05
3.46037e-10
4.87533e-12
4.99558e-05
2.81935e-10
6.52002e-12
4.71921e-05
2.11847e-10
8.07326e-12
4.34164e-05
1.43023e-10
9.35278e-12
3.85511e-05
8.25506e-11
1.00444e-11
3.25002e-05
3.63968e-11
9.72199e-12
2.51505e-05
8.52046e-12
7.81036e-12
1.63737e-05
3.59867e-12
6.02963e-06
9.74989e-12
-5.98093e-12
5.95458e-06
3.97603e-11
-1.25487e-11
1.6151e-05
8.77258e-11
-1.51571e-11
2.47877e-05
1.48895e-10
-1.51785e-11
3.2009e-05
2.16979e-10
-1.36197e-11
3.79466e-05
2.85e-10
-1.11984e-11
4.27158e-05
3.4609e-10
-8.42287e-12
4.6414e-05
3.94129e-10
-5.5381e-12
4.91192e-05
4.24332e-10
-2.65859e-12
5.08901e-05
4.33682e-10
1.99535e-13
5.17659e-05
4.21213e-10
3.08192e-12
5.17659e-05
3.88119e-10
6.04262e-12
5.08901e-05
3.37675e-10
9.10151e-12
4.9119e-05
2.74981e-10
1.21918e-11
4.64137e-05
2.06482e-10
1.51258e-11
4.27154e-05
1.39274e-10
1.7568e-11
3.79461e-05
8.02919e-11
1.89099e-11
3.20085e-05
3.53552e-11
1.83394e-11
2.47871e-05
8.26509e-12
1.47832e-11
1.61505e-05
6.84798e-12
5.95434e-06
9.19841e-12
-8.29362e-12
5.80133e-06
3.75739e-11
-1.72044e-11
1.56969e-05
8.30398e-11
-2.06251e-11
2.40489e-05
1.41193e-10
-2.05805e-11
3.10105e-05
2.06048e-10
-1.83952e-11
3.67195e-05
2.70929e-10
-1.50613e-11
4.12954e-05
3.29258e-10
-1.12989e-11
4.48379e-05
3.75146e-10
-7.41514e-12
4.74261e-05
4.03985e-10
-3.56568e-12
4.91192e-05
4.12879e-10
2.33789e-13
4.99559e-05
4.00901e-10
4.05957e-12
4.99559e-05
3.69207e-10
7.99623e-12
4.91191e-05
3.20955e-10
1.2086e-11
4.7426e-05
2.6106e-10
1.62457e-11
4.48376e-05
1.95727e-10
2.02214e-11
4.1295e-05
1.31751e-10
2.35858e-11
3.6719e-05
7.57604e-11
2.54835e-11
3.10099e-05
3.32721e-11
2.47991e-11
2.40483e-05
7.75739e-12
2.01234e-11
1.56964e-05
9.41783e-12
5.8011e-06
8.25359e-12
-9.71883e-12
5.56448e-06
3.42563e-11
-2.01092e-11
1.49957e-05
7.60212e-11
-2.37672e-11
2.29099e-05
1.29682e-10
-2.35754e-11
2.94738e-05
1.89694e-10
-2.09201e-11
3.48348e-05
2.49873e-10
-1.70247e-11
3.91179e-05
3.04087e-10
-1.27443e-11
4.24255e-05
3.4677e-10
-8.34381e-12
4.48379e-05
3.73579e-10
-4.02045e-12
4.64139e-05
3.81793e-10
2.07143e-13
4.71923e-05
3.70548e-10
4.45364e-12
4.71923e-05
3.4094e-10
8.83642e-12
4.64138e-05
2.95954e-10
1.34321e-11
4.48377e-05
2.40231e-10
1.8146e-11
4.24252e-05
1.79638e-10
2.26705e-11
3.91175e-05
1.20509e-10
2.66052e-11
3.48343e-05
6.89708e-11
2.89403e-11
2.94733e-05
3.01049e-11
2.83201e-11
2.29093e-05
6.8735e-12
2.32692e-11
1.49952e-05
1.09177e-11
5.56426e-06
6.89225e-12
-9.93654e-12
5.2347e-06
2.97129e-11
-2.08614e-11
1.40209e-05
6.66046e-11
-2.41524e-11
2.13305e-05
1.14436e-10
-2.38406e-11
2.73495e-05
1.68078e-10
-2.0846e-11
3.22373e-05
2.22027e-10
-1.67759e-11
3.61252e-05
2.70809e-10
-1.25573e-11
3.91178e-05
3.09268e-10
-8.19793e-12
4.12953e-05
3.33398e-10
-3.94971e-12
4.27157e-05
3.40718e-10
1.39061e-13
4.34167e-05
3.30446e-10
4.22897e-12
4.34166e-05
3.03602e-10
8.47243e-12
4.27156e-05
2.62925e-10
1.29926e-11
4.12952e-05
2.1271e-10
1.76654e-11
3.91176e-05
1.58396e-10
2.21295e-11
3.61249e-05
1.05636e-10
2.62445e-11
3.22369e-05
5.98672e-11
2.89239e-11
2.7349e-05
2.5761e-11
2.84433e-11
2.13299e-05
5.58808e-12
2.37972e-11
1.40204e-05
1.10168e-11
5.23449e-06
5.71767e-12
-9.30257e-12
4.79749e-06
2.4152e-11
-1.88405e-11
1.27319e-05
5.46763e-11
-2.12653e-11
1.92509e-05
9.54269e-11
-2.13987e-11
2.45658e-05
1.41414e-10
-1.83209e-11
2.88492e-05
1.87788e-10
-1.44039e-11
3.22373e-05
2.29951e-10
-1.08378e-11
3.48347e-05
2.63251e-10
-7.04849e-12
3.67193e-05
2.84102e-10
-3.36741e-12
3.79465e-05
2.90335e-10
6.50235e-14
3.85514e-05
2.81277e-10
3.466e-12
3.85514e-05
2.57839e-10
7.03474e-12
3.79464e-05
2.22441e-10
1.09559e-11
3.67192e-05
1.78948e-10
1.50208e-11
3.48345e-05
1.32266e-10
1.88042e-11
3.2237e-05
8.71474e-11
2.2766e-11
2.88488e-05
4.83674e-11
2.55619e-11
2.45653e-05
2.04646e-11
2.47502e-11
1.92504e-05
4.51242e-12
2.11532e-11
1.27315e-05
1.01047e-11
4.7973e-06
3.90369e-12
-7.43908e-12
4.23014e-06
1.82468e-11
-1.51448e-11
1.10678e-05
4.12177e-11
-1.51832e-11
1.65848e-05
7.35546e-11
-1.64953e-11
2.10229e-05
1.10588e-10
-1.37671e-11
2.45658e-05
1.48109e-10
-1.03181e-11
2.73494e-05
1.82549e-10
-7.9635e-12
2.94737e-05
2.09839e-10
-5.17138e-12
3.10103e-05
2.26868e-10
-2.3946e-12
3.20089e-05
2.31853e-10
2.29991e-14
3.25006e-05
2.24254e-10
2.358e-12
3.25005e-05
2.0484e-10
4.8783e-12
3.20088e-05
1.75635e-10
7.8355e-12
3.10102e-05
1.40003e-10
1.08326e-11
2.94735e-05
1.02238e-10
1.33511e-11
2.73491e-05
6.60355e-11
1.68367e-11
2.45654e-05
3.55235e-11
1.93371e-11
2.10225e-05
1.49312e-11
1.75372e-11
1.65843e-05
2.82899e-12
1.66072e-11
1.10674e-05
7.88096e-12
4.22997e-06
2.91369e-13
-2.92577e-12
3.4948e-06
1.15283e-11
-1.18181e-11
8.93358e-06
2.72507e-11
-7.78339e-12
1.32068e-05
5.04993e-11
-1.03497e-11
1.65847e-05
7.74101e-11
-8.03132e-12
1.92508e-05
1.04804e-10
-5.182e-12
2.13303e-05
1.30346e-10
-4.43705e-12
2.29097e-05
1.50759e-10
-2.95761e-12
2.40487e-05
1.63475e-10
-1.25421e-12
2.47875e-05
1.67094e-10
3.20938e-14
2.51509e-05
1.61214e-10
1.19037e-12
2.51509e-05
1.46444e-10
2.53604e-12
2.47874e-05
1.24398e-10
4.34277e-12
2.40486e-05
9.7862e-11
5.93585e-12
2.29095e-05
7.02988e-11
6.77581e-12
2.13301e-05
4.41395e-11
9.64882e-12
1.92505e-05
2.24766e-11
1.18101e-11
1.65844e-05
8.7702e-12
8.98916e-12
1.32064e-05
-6.01156e-13
1.24642e-11
8.93326e-06
3.03581e-12
3.49464e-06
1.38067e-12
-9.65175e-13
2.5196e-06
7.01001e-12
-7.64267e-12
6.17425e-06
1.20657e-11
2.52269e-12
8.93356e-06
2.60019e-11
-4.89201e-12
1.10677e-05
4.31807e-11
-3.76257e-12
1.27319e-05
5.99596e-11
-6.58168e-13
1.40208e-05
7.59569e-11
-1.45471e-12
1.49956e-05
8.8876e-11
-1.15735e-12
1.56967e-05
9.68652e-11
-2.94529e-13
1.61508e-05
9.90485e-11
8.55331e-14
1.6374e-05
9.51912e-11
2.85926e-13
1.6374e-05
8.56875e-11
6.81864e-13
1.61508e-05
7.15767e-11
1.57147e-12
1.56966e-05
5.48736e-11
1.89329e-12
1.49954e-05
3.80053e-11
1.13034e-12
1.40206e-05
2.14115e-11
4.25644e-12
1.27316e-05
8.68694e-12
5.27746e-12
1.10674e-05
5.07996e-12
-2.12728e-12
8.93327e-06
7.8535e-13
7.74066e-12
6.174e-06
9.18531e-13
2.51948e-06
3.44882e-13
1.13831e-06
-3.64214e-12
2.5196e-06
4.53621e-12
3.49479e-06
6.75567e-12
4.23012e-06
1.0849e-11
4.79745e-06
1.79905e-11
5.23465e-06
2.34778e-11
5.56442e-06
2.76871e-11
5.80125e-06
3.06223e-11
5.95449e-06
3.1451e-11
6.02977e-06
2.98918e-11
6.02976e-06
2.63001e-11
5.95446e-06
2.15819e-11
5.80121e-06
1.57987e-11
5.56435e-06
8.64746e-12
5.23456e-06
4.86082e-12
4.79734e-06
3.12955e-12
4.23e-06
-4.33341e-12
3.49465e-06
1.44089e-13
2.51948e-06
1.13824e-06
-1.51756e-13
2.23076e-12
1.13831e-06
-4.30731e-12
9.9305e-12
2.51959e-06
4.76429e-12
-4.42262e-14
3.49478e-06
9.06777e-12
7.15962e-12
4.23011e-06
1.6167e-11
5.65064e-12
4.79744e-06
2.6758e-11
2.12277e-12
5.23464e-06
3.55901e-11
2.51148e-12
5.5644e-06
4.25217e-11
1.84251e-12
5.80124e-06
4.71424e-11
6.43513e-13
5.95448e-06
4.83628e-11
-5.03547e-14
6.02977e-06
4.58332e-11
-5.61802e-13
6.02976e-06
4.00393e-11
-1.28746e-12
5.95447e-06
3.22023e-11
-2.5432e-12
5.80121e-06
2.28488e-11
-3.27453e-12
5.56436e-06
1.22327e-11
-2.95278e-12
5.23457e-06
5.64712e-12
-6.51265e-12
4.79735e-06
2.2254e-12
-7.88035e-12
4.23001e-06
-5.64668e-12
-5.92902e-13
3.49466e-06
-5.72984e-13
-1.0107e-11
2.51949e-06
-2.09607e-12
1.13825e-06
1.14851e-12
6.30119e-12
2.5196e-06
8.38512e-12
1.82202e-11
6.17423e-06
1.79913e-11
1.49692e-11
8.93353e-06
3.93783e-11
1.71233e-11
1.10677e-05
6.60984e-11
1.38169e-11
1.27318e-05
9.32596e-11
9.76442e-12
1.40207e-05
1.19073e-10
7.79091e-12
1.49955e-05
1.39908e-10
5.13781e-12
1.56967e-05
1.52834e-10
2.32962e-12
1.61508e-05
1.56297e-10
-1.66158e-14
1.6374e-05
1.49868e-10
-2.23311e-12
1.6374e-05
1.34262e-10
-4.68316e-12
1.61508e-05
1.11322e-10
-7.67718e-12
1.56967e-05
8.42562e-11
-1.05462e-11
1.49954e-05
5.69238e-11
-1.27025e-11
1.40206e-05
3.12136e-11
-1.6803e-11
1.27316e-05
1.19094e-11
-1.98583e-11