/*--------------------------------*- C++ -*----------------------------------*\
  =========                 |
  \\      /  F ield         | OpenFOAM: The Open Source CFD Toolbox
   \\    /   O peration     | Website:  https://openfoam.org
    \\  /    A nd           | Version:  6
     \\/     M anipulation  |
\*---------------------------------------------------------------------------*/
FoamFile
{
    version     2.0;
    format      ascii;
    class       volScalarField;
    location    "200";
    object      p;
}
// * * * * * * * * * * * * * * * * * * * * * * * * * * * * * * * * * * * * * //

dimensions      [0 2 -2 0 0 0 0];

internalField   nonuniform List<scalar> 
3000
(
0.0186752
0.0164067
0.0158619
0.0156023
0.0154544
0.0154317
0.0155362
0.015759
0.0162752
0.0185071
0.016425
0.0141556
0.0136125
0.0133537
0.0132067
0.013185
0.0132908
0.0135145
0.0140304
0.0162654
0.0158952
0.0136273
0.0130844
0.0128262
0.0126798
0.0126588
0.0127653
0.0129897
0.0135064
0.0157412
0.0156554
0.0133881
0.0128457
0.0125881
0.0124424
0.0124222
0.0125295
0.0127546
0.013272
0.0155076
0.0155315
0.0132646
0.0127225
0.0124655
0.0123205
0.0123011
0.0124092
0.012635
0.0131531
0.0153897
0.0155345
0.013268
0.0127262
0.0124697
0.0123253
0.0123065
0.0124153
0.0126417
0.0131603
0.0153976
0.0156642
0.013398
0.0128564
0.0126002
0.0124561
0.0124378
0.0125471
0.0127739
0.0132929
0.0155305
0.0159088
0.0136426
0.0131011
0.0128449
0.012701
0.012683
0.0127925
0.0130196
0.0135387
0.0157766
0.0164424
0.0141749
0.0136337
0.0133775
0.0132337
0.0132157
0.0133253
0.0135525
0.0140715
0.0163104
0.0186969
0.016431
0.0158885
0.0156321
0.0154883
0.0154703
0.0155797
0.0158069
0.0163268
0.0185639
0.0157339
0.0142906
0.0142906
0.0140322
0.0138801
0.0138555
0.0139603
0.014178
0.0141502
0.0155508
0.0143112
0.012868
0.0128717
0.0126137
0.0124626
0.0124394
0.0125459
0.0127656
0.0127359
0.0141394
0.0143252
0.0128857
0.0128888
0.0126313
0.0124808
0.0124584
0.0125657
0.0127862
0.012758
0.0141596
0.0140883
0.0126487
0.0126523
0.0123957
0.0122461
0.0122246
0.012333
0.0125543
0.0125269
0.0139306
0.013962
0.0125229
0.0125268
0.0122708
0.0121221
0.0121015
0.0122109
0.0124331
0.0124065
0.0138116
0.0139651
0.0125264
0.0125306
0.0122752
0.012127
0.0121072
0.0122173
0.0124403
0.0124142
0.0138202
0.0140974
0.012659
0.0126635
0.0124084
0.0122606
0.0122413
0.0123518
0.0125753
0.0125495
0.0139557
0.0143394
0.0129017
0.0129062
0.012651
0.0125034
0.0124842
0.0125951
0.0128188
0.0127932
0.0141988
0.0143288
0.0128879
0.0128934
0.0126381
0.0124907
0.0124716
0.0125823
0.0128062
0.0127795
0.0141881
0.0157563
0.0143159
0.0143181
0.0140633
0.0139158
0.0138964
0.0140068
0.0142297
0.0142059
0.0156129
0.0132882
0.0124335
0.0127577
0.0125108
0.0124105
0.0123817
0.0124262
0.0126238
0.012269
0.0130677
0.0124584
0.0116077
0.0119382
0.011691
0.0115926
0.0115658
0.0116125
0.0118142
0.011456
0.0122558
0.012797
0.0119523
0.0122811
0.0120349
0.0119372
0.0119113
0.0119593
0.0121619
0.0118065
0.012603
0.0125751
0.0117294
0.0120591
0.0118141
0.0117175
0.0116931
0.0117426
0.0119465
0.0115921
0.0123929
0.0125044
0.0116597
0.0119897
0.0117455
0.0116498
0.0116266
0.0116776
0.011883
0.0115298
0.0123326
0.0125077
0.0116635
0.0119939
0.0117502
0.0116554
0.0116331
0.0116851
0.0118914
0.0115389
0.0123431
0.0125848
0.0117406
0.0120713
0.011828
0.0117337
0.0117119
0.0117643
0.0119711
0.0116188
0.0124234
0.0128122
0.0119698
0.0123002
0.0120567
0.0119625
0.0119408
0.0119933
0.0122004
0.0118483
0.0126508
0.012477
0.011629
0.0119614
0.0117176
0.0116234
0.0116017
0.011654
0.0118612
0.011507
0.0123142
0.0133124
0.0124612
0.0127879
0.0125455
0.0124507
0.0124285
0.0124802
0.0126849
0.0123353
0.0131435
0.0120437
0.0114085
0.0117523
0.0114848
0.0114465
0.0114102
0.0113779
0.0115814
0.0111988
0.0117564
0.0114395
0.0108117
0.0111628
0.0108945
0.0108598
0.0108267
0.0107972
0.0110076
0.0106223
0.0111815
0.0117996
0.0111788
0.0115274
0.0112608
0.011227
0.0111953
0.0111679
0.0113795
0.0109989
0.011556
0.0115626
0.0109401
0.0112903
0.0110251
0.010993
0.0109634
0.0109385
0.0111528
0.0107737
0.0113385
0.0115606
0.01094
0.0112906
0.0110265
0.0109957
0.010968
0.0109453
0.011162
0.010785
0.0113529
0.0115643
0.0109443
0.0112953
0.011032
0.0110022
0.0109757
0.0109544
0.0111726
0.0107967
0.0113667
0.0115733
0.0109527
0.0113041
0.0110412
0.011012
0.0109861
0.0109653
0.0111838
0.0108079
0.0113789
0.0118164
0.0111985
0.0115491
0.011286
0.011257
0.011231
0.0112099
0.0114283
0.0110527
0.0116195
0.0114597
0.0108354
0.0111889
0.010925
0.0108959
0.0108697
0.0108481
0.0110667
0.0106875
0.0112587
0.0120706
0.0114401
0.0117869
0.0115251
0.0114943
0.0114669
0.0114448
0.0116588
0.0112841
0.011857
0.0112058
0.0106682
0.010953
0.0106595
0.010657
0.0106093
0.0105191
0.0107259
0.0103876
0.0108139
0.0107065
0.010179
0.0104716
0.0101772
0.0101803
0.0101377
0.0100517
0.0102693
0.0099313
0.0103635
0.0110111
0.0104907
0.0107799
0.0104881
0.0104925
0.0104521
0.0103695
0.0105896
0.0102588
0.0106931
0.0107563
0.0102337
0.0105252
0.0102352
0.010242
0.010205
0.0101267
0.0103517
0.0100241
0.0104719
0.0107996
0.01028
0.0105719
0.0102834
0.0102923
0.010258
0.0101832
0.0104123
0.0100885
0.0105423
0.0108036
0.0102849
0.0105773
0.0102899
0.0103002
0.0102676
0.0101948
0.0104262
0.0101042
0.0105615
0.0107682
0.010248
0.010541
0.0102541
0.0102651
0.0102331
0.0101608
0.0103924
0.0100699
0.0105279
0.01103
0.0105133
0.0108051
0.0105181
0.0105289
0.0104966
0.0104235
0.010654
0.0103312
0.0107816
0.0107289
0.010206
0.0105015
0.0102131
0.0102239
0.010191
0.0101167
0.0103469
0.0100188
0.0104709
0.0112359
0.0107042
0.0109931
0.0107072
0.0107148
0.0106798
0.0106044
0.0108275
0.0105018
0.0109533
0.0102954
0.00985351
0.0101065
0.00980754
0.0098185
0.00975502
0.00961986
0.00979931
0.00946912
0.00974396
0.00990087
0.00947246
0.0097335
0.00943435
0.00945335
0.0093974
0.00926957
0.00946521
0.00914051
0.00943081
0.0101784
0.00975709
0.0100144
0.00971864
0.00973942
0.00968701
0.00956483
0.00976561
0.00945193
0.00975362
0.0099287
0.00950515
0.00976553
0.0094721
0.00949664
0.00944943
0.00933418
0.00954419
0.00923774
0.00956429
0.00999829
0.00957884
0.00983964
0.0095484
0.00957588
0.00953284
0.0094232
0.00964017
0.00934109
0.00968076
0.0100028
0.00958439
0.00984591
0.00955607
0.00958546
0.00954489
0.0094383
0.00965877
0.00936253
0.00970785
0.00994192
0.0095214
0.00978387
0.00949452
0.00952462
0.00948463
0.00937826
0.00959853
0.0093005
0.00964396
0.0101996
0.00978309
0.0100437
0.00975443
0.00978399
0.009743
0.00963486
0.00985189
0.0095517
0.00988072
0.00992577
0.00950317
0.00976819
0.00947684
0.00950645
0.00946435
0.00935362
0.0095692
0.00926095
0.00958555
0.010329
0.00989472
0.0101529
0.00986413
0.00988884
0.0098432
0.00972989
0.00993446
0.00962477
0.00994236
0.00933673
0.00898078
0.00921395
0.00892134
0.00893233
0.00884743
0.00866917
0.00879583
0.00844835
0.00854225
0.00903895
0.00870013
0.00894166
0.00865022
0.00867209
0.00859831
0.00843229
0.00858308
0.00824966
0.00837761
0.00930263
0.00897086
0.00920857
0.00892148
0.00894592
0.00887756
0.00872063
0.00888152
0.00856608
0.00872529
0.00907253
0.00873895
0.00898055
0.00869656
0.00872657
0.0086662
0.00852059
0.0086981
0.00839831
0.00860645
0.00915873
0.00883023
0.00907232
0.00879141
0.00882562
0.00877151
0.00863488
0.0088245
0.00853838
0.00877586
0.00916372
0.00883651
0.00907952
0.00880045
0.00883722
0.00878656
0.00865439
0.00884943
0.0085679
0.00881475
0.00908711
0.00875731
0.00900159
0.00872293
0.00876038
0.00871009
0.00857753
0.00877104
0.00848515
0.00872216
0.00932619
0.00900044
0.0092424
0.00896377
0.00900002
0.00894766
0.00881141
0.0089978
0.00870526
0.0089126
0.0090665
0.00873488
0.0089815
0.00870026
0.0087364
0.00868203
0.0085412
0.00872332
0.00841808
0.00860722
0.00937396
0.00902748
0.00926731
0.00898797
0.00901736
0.00895726
0.00881082
0.00897625
0.00866281
0.0088304
0.00843655
0.00813777
0.00834061
0.00805213
0.0080513
0.00793862
0.00771506
0.00777258
0.00739798
0.00725998
0.00820843
0.00793023
0.0081416
0.00785616
0.00786938
0.00777239
0.00756799
0.007661
0.00731297
0.0072422
0.00844888
0.00817739
0.00838501
0.00810491
0.00812178
0.00803273
0.00784246
0.00795436
0.0076383
0.007645
0.00823866
0.00796617
0.00817855
0.00790258
0.00792739
0.00785032
0.00767826
0.00781969
0.00753835
0.00765413
0.00833346
0.0080669
0.0082799
0.00800809
0.00803871
0.0079708
0.00781286
0.00797497
0.00771943
0.00789907
0.00833889
0.00807391
0.00828805
0.00801856
0.0080525
0.00798928
0.00783766
0.00800808
0.00775994
0.00795265
0.00825448
0.00798658
0.00820224
0.00793302
0.00796753
0.00790416
0.00775079
0.00791705
0.00765921
0.00782197
0.00847464
0.00821048
0.00842336
0.008154
0.0081863
0.00811909
0.0079587
0.00811078
0.00783459
0.00792908
0.00823836
0.00796895
0.0081866
0.00791407
0.00794591
0.00787538
0.00770741
0.00784966
0.00755131
0.00759543
0.0084772
0.0081899
0.00840093
0.00812919
0.00815221
0.00807299
0.00789465
0.00801166
0.0076938
0.00768603
0.00760633
0.0073405
0.00750525
0.00721628
0.00719308
0.00704631
0.0067727
0.00674339
0.00632902
0.00584969
0.00742492
0.00718264
0.00735586
0.00707205
0.00706609
0.00694003
0.00669364
0.00671385
0.0063403
0.00597123
0.00763511
0.00739893
0.00756856
0.00729098
0.00728988
0.00717485
0.00694925
0.00700241
0.00668513
0.00649825
0.00744239
0.00720624
0.00738142
0.00710924
0.00711892
0.00702108
0.00682376
0.00692704
0.00667965
0.00673879
0.00753874
0.00730919
0.00748518
0.00721833
0.00723567
0.00715063
0.00697441
0.00711201
0.00690987
0.00709871
0.00754453
0.00731682
0.00749415
0.00723012
0.00725162
0.00717264
0.00700505
0.00715512
0.00696461
0.00717217
0.00745913
0.00722835
0.00740741
0.00714344
0.00716526
0.00708529
0.00691372
0.00705478
0.00684734
0.00698703
0.00766255
0.00743499
0.00761085
0.00734639
0.00736469
0.00727838
0.00709457
0.00720945
0.00696278
0.00694375
0.00745667
0.00722462
0.00740523
0.00713714
0.00715452
0.00706324
0.00686777
0.00696402
0.00667875
0.00653584
0.0076495
0.00739717
0.00757156
0.0073029
0.00730939
0.00720594
0.00699404
0.00705347
0.00673286
0.00648826
0.00681507
0.00656916
0.00669737
0.00640688
0.00635499
0.00617028
0.00584106
0.00569797
0.00522616
0.00413617
0.00666773
0.00644791
0.00658435
0.00630104
0.00626892
0.00610908
0.00581359
0.00573281
0.00531477
0.00434917
0.00684915
0.00663466
0.00676768
0.00649121
0.00646491
0.00631904
0.00605182
0.00602282
0.0057051
0.00515227
0.00667392
0.0064606
0.00659983
0.00633005
0.00631748
0.00619468
0.00596892
0.0060207
0.0058462
0.00590952
0.00676733
0.00656102
0.0067012
0.00643781
0.00643463
0.00632836
0.00613171
0.00623537
0.00613436
0.0064332
0.0067733
0.00656905
0.00671072
0.00645056
0.00645226
0.00635339
0.00616756
0.00628822
0.00620744
0.00650778
0.00669107
0.00648375
0.00662726
0.0063669
0.00636861
0.00626779
0.00607508
0.00618077
0.00607882
0.00625648
0.00687755
0.00667273
0.00681268
0.00655134
0.00654805
0.00643779
0.00622545
0.00628695
0.00609977
0.00586643
0.0067003
0.00649196
0.00663656
0.00637128
0.00636665
0.00624975
0.00602118
0.00605172
0.0057937
0.00527732
0.0068597
0.00662883
0.00676768
0.00650038
0.00648308
0.0063508
0.00610006
0.00608127
0.00576666
0.00508359
0.00604837
0.00581572
0.00591249
0.00562167
0.0055393
0.00531735
0.00493531
0.00464885
0.00416425
0.00257192
0.00592768
0.00572308
0.00582752
0.00554528
0.00548363
0.00528785
0.00493943
0.00471328
0.00425619
0.00266786
0.00608437
0.00588415
0.00598525
0.00570992
0.00565431
0.00547383
0.00515927
0.00500295
0.00465259
0.00377668
0.00592704
0.00572911
0.00583681
0.00556919
0.00552964
0.00537707
0.00511734
0.00507748
0.00489994
0.00512494
0.00601504
0.00582423
0.00593285
0.00567228
0.00564311
0.00550938
0.00528444
0.00531054
0.00521935
0.00579876
0.00602098
0.00583234
0.00594248
0.00568537
0.00566146
0.00553606
0.00532343
0.00536893
0.00531627
0.0059249
0.00594394
0.00575232
0.00586438
0.00560682
0.00558274
0.00545502
0.00523419
0.00526027
0.00520511
0.00568987
0.00611259
0.00592264
0.00603088
0.00577184
0.0057414
0.00560151
0.005353
0.00531291
0.00515401
0.00489032
0.00595977
0.00576716
0.00587989
0.00561688
0.00558507
0.00543785
0.0051699
0.00508911
0.0048564
0.00409627
0.00609254
0.00587577
0.00598338
0.00571719
0.00567193
0.00550796
0.0052158
0.00508291
0.00480815
0.00388126
0.0053098
0.00508623
0.00515674
0.00486829
0.00475937
0.00450911
0.00410773
0.00371352
0.00335273
0.0025629
0.00520927
0.00501514
0.00509232
0.00481279
0.00472313
0.00449533
0.00411508
0.00375165
0.00332178
0.00214744
0.00534396
0.00515306
0.00522674
0.00495339
0.00486844
0.00465268
0.00429746
0.00399259
0.00348768
0.00245282
0.00520361
0.00501592
0.00509614
0.00483079
0.0047625
0.00457439
0.0042719
0.00409262
0.00357879
0.00315765
0.00528459
0.00510374
0.00518459
0.00492615
0.00486769
0.00469691
0.0044258
0.0043139
0.00384177
0.00378106
0.00529024
0.00511153
0.00519376
0.00493867
0.00488525
0.00472274
0.00446497
0.00437253
0.00395065
0.00409422
0.00521949
0.00503796
0.00512214
0.00486649
0.00481302
0.00464934
0.00438747
0.00427483
0.0038905
0.00400979
0.00537091
0.00519016
0.00527041
0.00501297
0.0049524
0.00477643
0.00448751
0.00430224
0.00394639
0.00364044
0.00523941
0.00505707
0.00514172
0.00488068
0.00481947
0.00463815
0.00433518
0.00411785
0.00380717
0.00323984
0.00535187
0.00514387
0.00522417
0.00495931
0.00488534
0.00468925
0.00436993
0.0041184
0.00385682
0.00348725
0.00460572
0.00438923
0.00443866
0.00415691
0.00403057
0.0037631
0.00337651
0.00292049
0.0024189
0.00132776
0.0045195
0.00433308
0.00438774
0.00411423
0.00400383
0.00375311
0.00337359
0.00293239
0.00241097
0.00122905
0.00463387
0.0044493
0.00450007
0.00423117
0.00412268
0.00387777
0.00350227
0.00311062
0.00249
0.00136354
0.00450861
0.00432784
0.00438462
0.00412293
0.00402941
0.00380679
0.0034612
0.0031943
0.00250662
0.00169061
0.00458146
0.00440687
0.00446364
0.00420778
0.00412173
0.0039114
0.00358266
0.00337672
0.00268106
0.00211257
0.00458657
0.00441392
0.00447176
0.00421877
0.00413679
0.00393281
0.00361506
0.0034208
0.00270759
0.00219652
0.0045227
0.00434745
0.00440724
0.00415375
0.00407206
0.00386809
0.00355374
0.00333358
0.0026348
0.00211809
0.00465823
0.00448291
0.00453883
0.00428356
0.0041949
0.00398059
0.00365224
0.00335499
0.00273902
0.00202173
0.00454625
0.00437024
0.00443046
0.0041723
0.00408428
0.00386785
0.00353713
0.00320722
0.00266774
0.00175586
0.00464344
0.00444102
0.00449793
0.00423593
0.00413699
0.00390938
0.00357294
0.00321906
0.00269593
0.00177896
0.00393764
0.003728
0.00376203
0.00349232
0.00336054
0.00308561
0.00272096
0.0022521
0.00173651
0.000514597
0.00386045
0.00368096
0.00371869
0.00345622
0.00333721
0.00307694
0.0027183
0.00227267
0.00176583
0.000728761
0.00395608
0.003777
0.00381044
0.00355084
0.00343102
0.00317436
0.00280674
0.00241559
0.00185902
0.000939098
0.00384395
0.00366896
0.0037076
0.00345379
0.00334605
0.0031085
0.00274816
0.00248076
0.00191336
0.00116392
0.00390812
0.00373835
0.00377616
0.00352651
0.00342305
0.00319355
0.00283399
0.00262036
0.00203706
0.00141186
0.0039125
0.00374431
0.00378276
0.00353517
0.00343425
0.0032074
0.00285102
0.0026396
0.00198803
0.0012705
0.00385568
0.00368512
0.00372541
0.00347733
0.00337678
0.003148
0.00279796
0.00255339
0.00186263
0.00112375
0.00397706
0.00380562
0.00384217
0.00359242
0.00348526
0.0032455
0.00289308
0.00256046
0.0019035
0.0010646
0.00388274
0.00371168
0.00375242
0.00350044
0.00339468
0.00315253
0.00280306
0.00242356
0.00182249
0.000816866
0.00396996
0.0037718
0.00381016
0.00355436
0.00343934
0.00318639
0.00283157
0.00242032
0.00180531
0.000529983
0.00330755
0.00310478
0.003129
0.00287689
0.00275268
0.00248762
0.00216255
0.00173206
0.0013757
0.00034044
0.00323385
0.00306076
0.00308728
0.00284175
0.00272796
0.00247758
0.00216016
0.00176391
0.00136806
0.00057602
0.00331219
0.00313812
0.00316018
0.00291633
0.00279968
0.00255424
0.00222113
0.00187406
0.00144233
0.000750226
0.00321147
0.00304161
0.00306807
0.00282882
0.00272123
0.00249572
0.00215606
0.001912
0.00150629
0.000820039
0.00326696
0.00310121
0.00312616
0.00288955
0.00278324
0.00256456
0.00221595
0.00201404
0.00160639
0.000969313
0.0032705
0.00310592
0.00313104
0.00289554
0.00279016
0.00257093
0.00221752
0.00201537
0.00154424
0.000782219
0.00322049
0.00305376
0.00308047
0.00284415
0.002739
0.00251388
0.00216475
0.00193415
0.00140299
0.000641791
0.00332908
0.00316073
0.0031838
0.00294562
0.00283432
0.0025946
0.00224877
0.00193158
0.00136894
0.000573015
0.00325109
0.00308384
0.00311073
0.00287056
0.00276087
0.00251611
0.00217638
0.00180823
0.00129895
0.000389886
0.00333321
0.0031389
0.0031643
0.00292008
0.00280209
0.00254547
0.00219842
0.0017903
0.00132024
0.000130696
0.00271085
0.00251518
0.00253525
0.00230621
0.00220102
0.00196367
0.00169882
0.00131722
0.00109954
0.000259154
0.00263534
0.00246836
0.00248944
0.00226658
0.00216929
0.00194537
0.00168283
0.00134356
0.00103549
0.000464464
0.00269841
0.00252917
0.00254583
0.0023239
0.0022215
0.00200285
0.00171782
0.00141119
0.00106945
0.000577503
0.00260789
0.00244295
0.00246334
0.00224535
0.00214862
0.00195046
0.00165033
0.00140646
0.00108603
0.0004181
0.00265521
0.00249331
0.00251174
0.00229541
0.00219733
0.00200591
0.00169217
0.00147274
0.00116352
0.000494069
0.00265792
0.0024968
0.00251508
0.00229912
0.00220087
0.0020078
0.00168514
0.00146739
0.00112103
0.000343491
0.00261425
0.00245119
0.00247081
0.00225355
0.00215596
0.00195504
0.00163516
0.00140696
0.00100965
0.000290048
0.00271139
0.002546
0.00256214
0.00234269
0.00224028
0.00202231
0.00170972
0.00141639
0.000956153
0.00024689
0.0026477
0.00248437
0.00250406
0.00228278
0.00218282
0.00195893
0.00165942
0.0013231
0.000910262
0.000111929
0.00273041
0.00254029
0.00255931
0.00233369
0.00222686
0.0019921
0.00169116
0.00131209
0.00100702
2.19946e-05
0.00216853
0.00196526
0.00198591
0.00178557
0.00170739
0.00150674
0.00131061
0.000973644
0.000830275
0.000135103
0.00207335
0.00189496
0.00191568
0.0017212
0.00164824
0.00145979
0.00125708
0.000973287
0.000718892
0.000339821
0.00212277
0.00194124
0.00195749
0.00176337
0.00168284
0.00149869
0.00126994
0.00100318
0.000724201
0.000407105
0.00204168
0.00186458
0.00188383
0.00169329
0.00161479
0.00144929
0.00120122
0.000956489
0.000683706
5.65518e-05
0.00208148
0.00190652
0.00192352
0.00173411
0.0016519
0.00149197
0.00122858
0.00098811
0.000717826
-1.16356e-05
0.00208344
0.00190899
0.00192571
0.00173626
0.00165332
0.00149235
0.0012193
0.0009825
0.000701791
-7.08451e-05
0.00204557
0.00186944
0.00188747
0.00169642
0.00161525
0.00144787
0.00117788
0.000951654
0.000644866
-7.27811e-06
0.00213189
0.00195287
0.00196788
0.00177443
0.00169067
0.00150672
0.00124616
0.000984909
0.000624271
4.74106e-05
0.00208117
0.00190468
0.00192314
0.00172825
0.00164862
0.0014592
0.00121808
0.000925126
0.00059769
-5.61682e-05
0.00218211
0.00198229
0.00200084
0.00180162
0.00171716
0.00151862
0.00128749
0.000948211
0.000753027
-2.88818e-05
0.00161052
0.00141532
0.00144599
0.00127878
0.00123242
0.00107046
0.000943454
0.000660295
0.000576254
3.32536e-05
0.00150531
0.00133093
0.00136047
0.00119904
0.00115519
0.0010054
0.000864566
0.000643398
0.000438999
0.000234568
0.00154893
0.00137052
0.00139582
0.00123444
0.00118131
0.00103546
0.00087054
0.000657451
0.000434946
0.000266428
0.00147803
0.00130431
0.00133177
0.00117393
0.00111991
0.000989704
0.000806399
0.000586695
0.000370956
-0.000159218
0.00151127
0.00133881
0.0013638
0.00120687
0.00114736
0.00102068
0.000822333
0.000589238
0.000361736
-0.000401559
0.00151265
0.00134053
0.00136527
0.0012082
0.00114772
0.00102128
0.000814268
0.000586243
0.000365994
-0.000378863
0.00147991
0.00130656
0.00133279
0.00117408
0.00111651
0.000986897
0.000783178
0.00058157
0.000357269
-0.000220001
0.00155504
0.00137819
0.00140216
0.0012409
0.00118296
0.00103889
0.000844265
0.000634434
0.000380884
-2.67144e-05
0.00150961
0.00133617
0.00136343
0.00120122
0.00114904
0.000999349
0.000826278
0.000594758
0.000368458
-6.70413e-05
0.00161955
0.00142646
0.00145487
0.00128837
0.0012338
0.00107554
0.000922142
0.000641338
0.000539983
-2.76224e-05
0.0012895
0.000950836
0.00101497
0.000894539
0.000881728
0.000766014
0.00070898
0.000497071
0.000484532
4.81765e-05
0.00103904
0.000681536
0.000754363
0.000640758
0.00063059
0.000531756
0.000459181
0.000325409
0.000186281
0.000158484
0.00109536
0.000743198
0.000809502
0.000695335
0.000675491
0.00057911
0.000488955
0.0003551
0.000210918
0.000212326
0.00103891
0.000691765
0.000758969
0.000648097
0.000625823
0.00054108
0.000438196
0.000284361
0.000168384
-0.000139782
0.00106411
0.000718407
0.000782959
0.000672861
0.000644825
0.00056184
0.000447436
0.000273685
0.000160867
-0.000396906
0.00106487
0.00071965
0.00078403
0.000673908
0.000644934
0.000563369
0.000442552
0.000273251
0.000170341
-0.000367075
0.00103884
0.000692415
0.000758596
0.000647075
0.000621324
0.000539758
0.000421159
0.000281574
0.00017395
-0.000200489
0.00109779
0.000747739
0.000812824
0.000698848
0.000674173
0.000581927
0.000469657
0.000338478
0.000209375
2.37275e-05
0.00103894
0.000682966
0.000753636
0.000639399
0.000621404
0.000524135
0.000429999
0.000289488
0.000179184
1.67643e-05
0.00129421
0.000958838
0.00102116
0.000902238
0.000882566
0.000773218
0.000701857
0.000501887
0.000497505
8.94804e-05
-3.59045e-05
0.000127028
0.000166902
7.68637e-05
8.80586e-05
2.9503e-05
2.83211e-05
-6.87698e-05
-3.11846e-05
-2.04207e-05
0.000124232
0.000340542
0.000370267
0.000278295
0.000284537
0.000230787
0.000207893
0.000148343
7.52452e-05
0.000218337
0.000158127
0.000364209
0.000393559
0.000302994
0.000303482
0.000252682
0.000221983
0.000165618
9.12541e-05
0.000285638
0.000108759
0.000313153
0.0003439
0.000256817
0.000255855
0.000212772
0.000178581
0.000105796
6.80105e-05
8.5153e-05
0.000124527
0.000327641
0.000356769
0.000270603
0.000265644
0.000222961
0.000184286
9.47628e-05
7.72685e-05
-5.61772e-05
0.000125287
0.000328256
0.000357371
0.000271439
0.000265753
0.000224695
0.000182408
9.39726e-05
8.26785e-05
-4.78741e-05
0.000109183
0.000312588
0.000342878
0.000255933
0.000252359
0.000212872
0.000170134
0.000101835
7.77025e-05
3.85098e-05
0.000161133
0.000366323
0.000395289
0.000305897
0.0003032
0.000257252
0.000215654
0.000156741
0.00011101
0.000177061
0.000126321
0.000341092
0.000370004
0.000279063
0.000280976
0.000230344
0.000199249
0.000135895
0.000103367
0.000174199
-3.40917e-05
0.000126726
0.000165195
7.6403e-05
8.19343e-05
2.60079e-05
1.61167e-05
-7.63593e-05
-3.57344e-05
-1.48412e-05
0.00183823
0.00265799
0.0025424
0.00215134
0.00170408
0.0014602
0.00145849
0.00155461
0.00164757
0.00170486
0.00166237
0.00234566
0.00207562
0.00150347
0.00107535
0.00104326
0.00126546
0.00151903
0.00170608
0.0018001
0.00251133
0.00326457
0.00260267
0.00137953
0.000542759
0.000487135
0.000907623
0.00138773
0.00174422
0.00190761
0.00387702
0.00496824
0.00407442
0.00195858
0.000414099
0.000122929
0.000559091
0.00120138
0.00172588
0.00197059
0.00489147
0.00623702
0.00542679
0.00287825
0.000628729
-4.59965e-05
0.000292693
0.00100699
0.00165373
0.00197523
0.00498915
0.00622652
0.00598151
0.00390138
0.0012459
4.36202e-05
0.000172562
0.000870882
0.00157013
0.00194069
0.00441869
0.0054464
0.00554502
0.00426126
0.00187383
0.000409336
0.000287583
0.000857916
0.00151465
0.00187896
0.00360041
0.00426561
0.00438306
0.0037854
0.00213775
0.000845858
0.000556647
0.000943388
0.00148453
0.00179589
0.00312541
0.00353501
0.00347268
0.00308821
0.00205835
0.00112518
0.000841702
0.00109329
0.00147355
0.00170276
0.00323007
0.00377043
0.0035535
0.00307902
0.00222443
0.00143781
0.00114696
0.00125811
0.0014381
0.00154958
0.00191846
0.00143346
0.00106346
0.000694129
0.000428122
0.000499761
0.000861216
0.00123644
0.00147851
0.00160118
0.00103802
0.00103591
0.000686703
0.000229953
-0.000158404
-0.000213552
0.000172426
0.000823872
0.00140567
0.00170233
0.0010622
0.00147945
0.00100921
0.000221764
-0.000366887
-0.000493208
-0.000284989
0.000346954
0.00117748
0.00169363
0.0020932
0.00254658
0.00188983
0.0004768
-0.000430629
-0.000609881
-0.000516652
-1.95249e-05
0.00091191
0.00161189
0.00298821
0.00354165
0.00291259
0.000989772
-0.000349215
-0.000637695
-0.00059719
-0.000230025
0.000691147
0.00150481
0.003119
0.00373009
0.003567
0.00177346
-6.60987e-05
-0.000609406
-0.000605035
-0.000310097
0.000565305
0.00142456
0.00267865
0.00324367
0.00336094
0.00219859
0.000356279
-0.000442903
-0.00050605
-0.000234805
0.000575119
0.00139524
0.00222407
0.0024745
0.00257386
0.00204028
0.000736979
-0.00010349
-0.000294478
-5.19215e-05
0.000713833
0.00142591
0.00221195
0.00204587
0.0019198
0.00155605
0.000737004
4.09177e-05
-0.00016499
0.000158103
0.00093158
0.00149132
0.00287967
0.00243532
0.00207248
0.00163795
0.000959807
0.000413038
0.000411171
0.000848027
0.00124031
0.00141893
0.00100284
0.000683042
0.000393366
9.42029e-05
-0.000144496
-6.40241e-05
0.000331727
0.000768783
0.00106889
0.00124287
0.00027724
0.000423902
0.000154652
-0.000149677
-0.000453514
-0.000551539
-0.000315911
0.000283333
0.000929068
0.0012956
0.000373098
0.000664867
0.00027985
-0.000187206
-0.000543144
-0.000612185
-0.000497988
-6.2305e-05
0.000662229
0.00117356
0.00125385
0.00127723
0.000660885
-0.000117075
-0.000546019
-0.000620621
-0.000565263
-0.000304666
0.00037564
0.00100391
0.00177755
0.00187322
0.00121827
0.000103355
-0.000488153
-0.000614632
-0.000607089
-0.000446182
0.000159826
0.000854736
0.00173249
0.0019645
0.0016618
0.000480359
-0.000421061
-0.000629731
-0.000647539
-0.000528439
3.90598e-05
0.000765677
0.00134526
0.00167314
0.00162723
0.000766409
-0.00030055
-0.000620286
-0.000641472
-0.000507858
4.45102e-05
0.000762599
0.000972954
0.0012237
0.00123659
0.000826549
-2.99112e-05
-0.000490959
-0.000571427
-0.000412092
0.000174666
0.000866317
0.000971627
0.000991451
0.000849973
0.000564907
1.8705e-05
-0.000429321
-0.000537319
-0.000305865
0.000402808
0.00102493
0.0015515
0.00121473
0.000918236
0.000655598
0.000268415
-5.93744e-05
4.41529e-06
0.000436801
0.000857428
0.00105951
0.000382215
0.000306197
0.000197996
7.78866e-06
-0.00018291
-0.000130948
0.000152741
0.000454066
0.000657792
0.00080023
-0.000100994
8.96452e-05
-7.76528e-05
-0.000297914
-0.000559378
-0.00062308
-0.000409623
7.95404e-05
0.000567507
0.000831107
0.00018711
0.000306758
-6.66227e-05
-0.000373775
-0.00062329
-0.000642143
-0.000492483
-0.000101802
0.000423712
0.000730294
0.000844928
0.000707994
9.07981e-05
-0.000335484
-0.000567506
-0.000583237
-0.000487147
-0.000217083
0.000245894
0.000601472
0.00116117
0.00108852
0.000422189
-0.00019113
-0.000487318
-0.000540488
-0.000504525
-0.000326119
8.83945e-05
0.000496296
0.00104418
0.00108152
0.00065039
-1.70481e-05
-0.000463047
-0.000573373
-0.000573599
-0.000433917
-1.84962e-05
0.000431085
0.00072313
0.000819129
0.000620428
9.40539e-05
-0.00047165
-0.000645332
-0.000638867
-0.000481563
-4.48764e-05
0.000422709
0.000295909
0.000452923
0.000400767
0.00013936
-0.00036197
-0.000640537
-0.000659255
-0.000473592
-2.31859e-06
0.000487844
0.000165968
0.000273529
0.000150202
-4.16464e-05
-0.000352966
-0.000619547
-0.000645882
-0.000412245
0.000131086
0.000596174
0.000454067
0.000405109
0.000272547
0.000161505
-2.04066e-05
-0.00020059
-0.000144619
0.000175483
0.000492838
0.000645188
0.000198335
0.000115636
6.91337e-05
-3.92248e-05
-0.000175391
-0.000137295
6.08623e-05
0.000249305
0.000360912
0.000472361
-0.000271341
-8.59195e-05
-0.000182475
-0.000325547
-0.0005267
-0.000564899
-0.000360075
2.96839e-05
0.00034939
0.000504982
-4.30531e-05
9.83485e-05
-0.000226408
-0.000415391
-0.000597425
-0.000585395
-0.000399625
-2.1573e-05
0.000343097
0.000475997
0.000386336
0.000343575
-0.000131
-0.000326904
-0.000470301
-0.000459599
-0.000316653
-2.61412e-05
0.000283707
0.000417374
0.000637817
0.000617023
0.00013778
-0.000148353
-0.000344042
-0.000382005
-0.000303288
-0.000101678
0.000181485
0.000358128
0.00056185
0.000584234
0.000215575
-6.11925e-05
-0.000300695
-0.000425881
-0.000409871
-0.000245941
8.12799e-05
0.00031225
0.000352189
0.000362385
0.000120949
-0.000102031
-0.000388303
-0.000563756
-0.000544498
-0.00037181
1.1249e-05
0.000289205
-7.50216e-05
-6.70976e-06
-8.3174e-05
-0.000174659
-0.000423895
-0.000621221
-0.000611859
-0.000420746
-2.91064e-05
0.000291839
-0.000274848
-0.00018581
-0.000271289
-0.000340438
-0.000445269
-0.00057236
-0.000572665
-0.000373761
1.47498e-05
0.000316438
-2.59406e-05
-3.19943e-05
-7.51487e-05
-8.90833e-05
-0.000134716
-0.000215616
-0.000201351
1.06261e-06
0.000220305
0.00032189
8.17046e-05
-1.31794e-05
-4.82146e-05
-0.000109279
-0.000195268
-0.000179507
-5.04917e-05
7.64303e-05
0.000152932
0.000267905
-0.000401254
-0.000197503
-0.000246197
-0.000305435
-0.000431994
-0.000454339
-0.000293076
-7.32641e-06
0.000198067
0.000298635
-0.000294318
-6.88386e-05
-0.000309129
-0.000377506
-0.000479538
-0.000454576
-0.000275943
5.24134e-05
0.000297411
0.000327083
-4.95994e-05
3.54615e-05
-0.000230182
-0.000231445
-0.000287111
-0.000280796
-0.000135324
0.000147428
0.000342809
0.000323459
0.000145028
0.000229084
2.39454e-05
-2.51341e-06
-0.000126007
-0.000183298
-9.46799e-05
0.000111928
0.000280928
0.000285965
0.000110669
0.000195722
9.24472e-06
3.70257e-05
-4.84943e-05
-0.000213347
-0.000214582
-5.30462e-05
0.000176575
0.000244334
-1.85444e-05
3.96553e-05
-0.000134815
-0.000109244
-0.000197048
-0.000383064
-0.000397515
-0.000243765
6.31745e-05
0.000205371
-0.000355629
-0.000287967
-0.000349395
-0.000287103
-0.000353587
-0.000488603
-0.000488646
-0.000333543
-3.39308e-05
0.000166712
-0.000557988
-0.000443757
-0.000465381
-0.000423935
-0.000378494
-0.000414562
-0.000424273
-0.000293668
-4.54522e-05
0.000133167
-0.000199208
-0.000198414
-0.000197749
-0.00015589
-0.000126035
-0.000156371
-0.000187382
-9.20965e-05
4.13739e-05
0.00011054
-5.14673e-05
-9.89891e-05
-0.000116637
-0.000141413
-0.0001871
-0.000197924
-0.000136302
-5.54284e-05
1.14654e-05
0.000135805
-0.000520267
-0.000270734
-0.000274095
-0.000265347
-0.000327614
-0.000342886
-0.000241415
-5.87359e-05
7.30017e-05
0.000154905
-0.000523786
-0.000205226
-0.000338339
-0.000307815
-0.000323966
-0.000304837
-0.000171447
7.48486e-05
0.000235292
0.00021243
-0.00043124
-0.000241493
-0.000280456
-0.000123947
-8.23568e-05
-0.000106732
-8.14629e-06
0.000223978
0.000348675
0.000247966
-0.000318548