/*--------------------------------*- C++ -*----------------------------------*\
  =========                 |
  \\      /  F ield         | OpenFOAM: The Open Source CFD Toolbox
   \\    /   O peration     | Website:  https://openfoam.org
    \\  /    A nd           | Version:  6
     \\/     M anipulation  |
\*---------------------------------------------------------------------------*/
FoamFile
{
    version     2.0;
    format      ascii;
    class       surfaceScalarField;
    location    "200";
    object      phi;
}
// * * * * * * * * * * * * * * * * * * * * * * * * * * * * * * * * * * * * * //

dimensions      [0 3 -1 0 0 0 0];

internalField   nonuniform List<scalar> 
8300
(
1.57855e-07
1.56754e-07
9.96854e-05
1.78911e-08
1.56834e-07
9.99831e-05
1.25709e-08
1.56849e-07
9.98485e-05
7.39601e-09
1.568e-07
9.98484e-05
1.0974e-09
1.56753e-07
9.98496e-05
-5.30228e-09
1.56688e-07
9.98497e-05
-1.08088e-08
1.56611e-07
9.98489e-05
-1.66948e-08
1.56549e-07
9.98493e-05
-1.55659e-07
1.56442e-07
9.99825e-05
1.56237e-07
9.96881e-05
1.57937e-07
1.72625e-08
9.99816e-05
1.78097e-08
1.71862e-08
0.00010028
1.25435e-08
1.71612e-08
0.000100145
7.35499e-09
1.71372e-08
0.000100145
1.04581e-09
1.71081e-08
0.000100146
-5.36058e-09
1.70779e-08
0.000100146
-1.08676e-08
1.70489e-08
0.000100145
-1.66751e-08
1.70223e-08
0.000100145
-1.55864e-07
1.70037e-08
0.000100279
1.70244e-08
9.99833e-05
1.57959e-07
1.16196e-08
9.98477e-05
1.77845e-08
1.1605e-08
0.000100146
1.25115e-08
1.15777e-08
0.000100011
7.32592e-09
1.15464e-08
0.000100011
1.01019e-09
1.15098e-08
0.000100012
-5.40059e-09
1.14707e-08
0.000100012
-1.08961e-08
1.14325e-08
0.000100011
-1.66934e-08
1.13988e-08
0.000100011
-1.55969e-07
1.13713e-08
0.000100145
1.13162e-08
9.98497e-05
1.57928e-07
6.23608e-09
9.98475e-05
1.77648e-08
6.21812e-09
0.000100146
1.24807e-08
6.2009e-09
0.000100011
7.2913e-09
6.17335e-09
0.000100011
9.71896e-10
6.13904e-09
0.000100012
-5.43985e-09
6.10046e-09
0.000100012
-1.09293e-08
6.06081e-09
0.000100011
-1.67189e-08
6.0245e-09
0.000100011
-1.56026e-07
5.98893e-09
0.000100145
5.94041e-09
9.98493e-05
1.5791e-07
-1.50616e-10
9.98485e-05
1.77459e-08
-1.67413e-10
0.000100147
1.24524e-08
-1.82782e-10
0.000100012
7.25764e-09
-2.03819e-10
0.000100012
9.34032e-10
-2.3091e-10
0.000100013
-5.47899e-09
-2.62114e-10
0.000100013
-1.09636e-08
-2.94598e-10
0.000100012
-1.67437e-08
-3.24328e-10
0.000100012
-1.56091e-07
-3.49881e-10
0.000100146
-3.82757e-10
9.98502e-05
1.57889e-07
-6.52247e-09
9.98485e-05
1.77329e-08
-6.5365e-09
0.000100147
1.24316e-08
-6.54851e-09
0.000100012
7.23066e-09
-6.561e-09
0.000100012
9.02953e-10
-6.57827e-09
0.000100013
-5.51147e-09
-6.5991e-09
0.000100013
-1.09932e-08
-6.62128e-09
0.000100012
-1.67653e-08
-6.64158e-09
0.000100012
-1.56133e-07
-6.65475e-09
0.000100146
-6.66858e-09
9.98501e-05
1.57867e-07
-1.1859e-08
9.98475e-05
1.77273e-08
-1.18711e-08
0.000100145
1.24205e-08
-1.18682e-08
0.000100011
7.21308e-09
-1.18703e-08
0.000100011
8.81767e-10
-1.18767e-08
0.000100012
-5.53406e-09
-1.18873e-08
0.000100012
-1.10154e-08
-1.19008e-08
0.000100011
-1.67816e-08
-1.19144e-08
0.000100011
-1.56147e-07
-1.19279e-08
0.000100145
-1.19249e-08
9.98491e-05
1.57864e-07
-1.74244e-08
9.98477e-05
1.77264e-08
-1.73658e-08
0.000100146
1.2418e-08
-1.73571e-08
0.000100011
7.20458e-09
-1.73554e-08
0.000100011
8.70354e-10
-1.73549e-08
0.000100012
-5.54681e-09
-1.73577e-08
0.000100012
-1.10297e-08
-1.73631e-08
0.000100011
-1.67908e-08
-1.73679e-08
0.000100011
-1.56157e-07
-1.73771e-08
0.000100145
-1.74325e-08
9.98494e-05
1.57817e-07
-1.5702e-07
9.99818e-05
1.77352e-08
-1.57132e-07
0.00010028
1.24237e-08
-1.57175e-07
0.000100145
7.1995e-09
-1.57167e-07
0.000100145
8.66697e-10
-1.57171e-07
0.000100146
-5.54783e-09
-1.57165e-07
0.000100146
-1.10388e-08
-1.57148e-07
0.000100145
-1.68002e-08
-1.57141e-07
0.000100146
-1.56104e-07
-1.57082e-07
0.000100279
-1.56939e-07
9.99834e-05
1.57704e-07
9.96853e-05
1.77968e-08
9.99828e-05
1.24195e-08
9.98482e-05
7.19987e-09
9.98481e-05
8.71939e-10
9.98492e-05
-5.53756e-09
9.98493e-05
-1.10237e-08
9.98483e-05
-1.68515e-08
9.98487e-05
-1.55963e-07
9.9982e-05
9.96871e-05
2.26895e-07
2.24178e-07
9.92344e-05
7.32441e-08
2.24347e-07
9.99125e-05
4.69462e-08
2.24091e-07
9.96507e-05
2.26058e-08
2.24055e-07
9.96487e-05
3.47762e-09
2.23942e-07
9.96448e-05
-1.59455e-08
2.23779e-07
9.96454e-05
-4.11712e-08
2.23576e-07
9.96505e-05
-6.89216e-08
2.2333e-07
9.96537e-05
-2.21372e-07
2.23365e-07
9.99116e-05
2.22861e-07
9.92438e-05
2.27065e-07
7.10078e-08
9.99077e-05
7.32499e-08
7.10311e-08
0.000100587
4.68843e-08
7.09486e-08
0.000100325
2.24692e-08
7.08464e-08
0.000100323
3.30402e-09
7.07458e-08
0.000100318
-1.61448e-08
7.06346e-08
0.000100319
-4.14094e-08
7.05198e-08
0.000100323
-6.9165e-08
7.04318e-08
0.000100326
-2.21874e-07
7.0365e-08
0.000100584
7.01204e-08
9.99142e-05
2.26827e-07
4.38558e-08
9.96481e-05
7.31674e-08
4.38367e-08
0.000100327
4.68208e-08
4.37871e-08
0.000100064
2.23871e-08
4.36817e-08
0.000100062
3.19691e-09
4.35639e-08
0.000100058
-1.62715e-08
4.34326e-08
0.000100059
-4.15352e-08
4.3296e-08
0.000100064
-6.9232e-08
4.31773e-08
0.000100066
-2.21841e-07
4.30521e-08
0.000100325
4.28185e-08
9.96552e-05
2.26832e-07
1.89257e-08
9.96456e-05
7.30792e-08
1.88656e-08
0.000100324
4.67155e-08
1.88181e-08
0.000100062
2.22702e-08
1.87269e-08
0.00010006
3.06731e-09
1.86153e-08
0.000100056
-1.64054e-08
1.84874e-08
0.000100056
-4.1654e-08
1.83519e-08
0.000100061
-6.93192e-08
1.82265e-08
0.000100064
-2.22084e-07
1.81074e-08
0.000100322
1.7931e-08
9.96521e-05
2.26792e-07
-4.85765e-10
9.96412e-05
7.30141e-08
-5.45192e-10
0.00010032
4.66233e-08
-5.93645e-10
0.000100058
2.2158e-08
-6.64978e-10
0.000100055
2.9388e-09
-7.56927e-10
0.000100051
-1.65414e-08
-8.63368e-10
0.000100052
-4.17825e-08
-9.76147e-10
0.000100056
-6.94252e-08
-1.08235e-09
0.000100059
-2.22269e-07
-1.16769e-09
0.000100318
-1.29068e-09
9.96472e-05
2.26737e-07
-1.98524e-08
9.96412e-05
7.29648e-08
-1.99056e-08
0.00010032
4.6551e-08
-1.99505e-08
0.000100058
2.20659e-08
-1.99954e-08
0.000100055
2.83236e-09
-2.00591e-08
0.000100051
-1.66541e-08
-2.01341e-08
0.000100052
-4.189e-08
-2.02136e-08
0.000100056
-6.95129e-08
-2.02905e-08
0.000100059
-2.22387e-07
-2.03343e-08
0.000100318
-2.03921e-08
9.96469e-05
2.26672e-07
-4.465e-08
9.96457e-05
7.29357e-08
-4.47281e-08
0.000100324
4.65051e-08
-4.47575e-08
0.000100062
2.20026e-08
-4.47687e-08
0.00010006
2.75796e-09
-4.4801e-08
0.000100056
-1.67329e-08
-4.48433e-08
0.000100056
-4.19665e-08
-4.48906e-08
0.000100061
-6.95742e-08
-4.49448e-08
0.000100063
-2.22427e-07
-4.49596e-08
0.000100322
-4.49259e-08
9.96512e-05
2.26578e-07
-7.15927e-08
9.96482e-05
7.29443e-08
-7.16875e-08
0.000100326
4.64939e-08
-7.1663e-08
0.000100064
2.19714e-08
-7.16463e-08
0.000100062
2.71637e-09
-7.16557e-08
0.000100058
-1.67804e-08
-7.16716e-08
0.000100058
-4.20207e-08
-7.16916e-08
0.000100063
-6.96284e-08
-7.17303e-08
0.000100066
-2.22375e-07
-7.17655e-08
0.000100324
-7.16681e-08
9.96537e-05
2.26753e-07
-2.24858e-07
9.99084e-05
7.2969e-08
-2.25113e-07
0.000100587
4.6473e-08
-2.24928e-07
0.000100325
2.19464e-08
-2.24997e-07
0.000100323
2.70006e-09
-2.25019e-07
0.000100319
-1.67846e-08
-2.2501e-07
0.000100319
-4.20203e-08
-2.24969e-07
0.000100324
-6.96639e-08
-2.24874e-07
0.000100326
-2.22546e-07
-2.25029e-07
0.000100585
-2.24704e-07
9.99139e-05
2.26498e-07
9.9234e-05
7.28851e-08
9.99113e-05
4.64211e-08
9.96498e-05
2.19397e-08
9.96476e-05
2.70984e-09
9.96434e-05
-1.67569e-08
9.96437e-05
-4.19433e-08
9.96486e-05
-6.95514e-08
9.96514e-05
-2.22222e-07
9.99097e-05
9.92402e-05
2.57692e-07
2.5321e-07
9.87235e-05
9.61929e-08
2.53577e-07
9.98205e-05
6.56336e-08
2.52777e-07
9.94286e-05
3.35335e-08
2.52788e-07
9.9428e-05
6.20784e-09
2.52545e-07
9.94195e-05
-2.1633e-08
2.52247e-07
9.94209e-05
-5.52713e-08
2.51905e-07
9.94322e-05
-8.83425e-08
2.51364e-07
9.94354e-05
-2.48253e-07
2.51752e-07
9.98197e-05
2.50731e-07
9.87448e-05
2.5805e-07
9.22223e-08
9.98107e-05
9.64122e-08
9.24786e-08
0.00010091
6.55407e-08
9.22592e-08
0.000100516
3.33006e-08
9.20652e-08
0.000100516
5.86599e-09
9.18871e-08
0.000100506
-2.2064e-08
9.16742e-08
0.000100507
-5.57806e-08
9.14374e-08
0.000100518
-8.90487e-08
9.12576e-08
0.000100519
-2.49278e-07
9.11947e-08
0.000100905
9.04803e-08
9.98251e-05
2.57288e-07
6.01793e-08
9.94229e-05
9.61951e-08
6.01739e-08
0.00010052
6.54295e-08
6.00858e-08
0.000100127
3.31451e-08
5.98917e-08
0.000100127
5.67527e-09
5.96812e-08
0.000100118
-2.22817e-08
5.94342e-08
0.000100119
-5.60122e-08
5.9163e-08
0.00010013
-8.91101e-08
5.89242e-08
0.000100132
-2.48897e-07
5.86894e-08
0.000100517
5.8177e-08
9.94385e-05
2.57377e-07
2.70347e-08
9.94215e-05
9.60275e-08
2.69583e-08
0.000100519
6.52343e-08
2.68647e-08
0.000100126
3.29235e-08
2.66963e-08
0.000100126
5.42689e-09
2.64944e-08
0.000100117
-2.25419e-08
2.62574e-08
0.000100117
-5.6252e-08
2.59984e-08
0.000100128
-8.92914e-08
2.57564e-08
0.00010013
-2.49446e-07
2.55476e-08
0.000100516
2.51503e-08
9.94357e-05
2.57272e-07
-8.11941e-10
9.94118e-05
9.59192e-08
-9.18792e-10
0.000100509
6.50736e-08
-1.00143e-09
0.000100116
3.27195e-08
-1.13017e-09
0.000100116
5.18733e-09
-1.29588e-09
0.000100107
-2.28024e-08
-1.48842e-09
0.000100107
-5.65082e-08
-1.69472e-09
0.000100118
-8.95135e-08
-1.89228e-09
0.00010012
-2.49767e-07
-2.04483e-09
0.000100506
-2.28587e-09
9.94248e-05
2.5718e-07
-2.85838e-08
9.94119e-05
9.583e-08
-2.87114e-08
0.000100509
6.49435e-08
-2.87751e-08
0.000100116
3.25536e-08
-2.88523e-08
0.000100116
4.99458e-09
-2.89664e-08
0.000100107
-2.30081e-08
-2.90962e-08
0.000100107
-5.67064e-08
-2.92303e-08
0.000100118
-8.96791e-08
-2.93643e-08
0.000100119
-2.49983e-07
-2.94465e-08
0.000100505
-2.95079e-08
9.94241e-05
2.57109e-07
-6.15078e-08
9.94216e-05
9.57677e-08
-6.16775e-08
0.000100518
6.48555e-08
-6.17242e-08
0.000100126
3.24408e-08
-6.17408e-08
0.000100125
4.86611e-09
-6.18008e-08
0.000100116
-2.31403e-08
-6.18678e-08
0.000100117
-5.68285e-08
-6.19326e-08
0.000100127
-8.97724e-08
-6.20152e-08
0.000100129
-2.50076e-07
-6.20295e-08
0.000100515
-6.19083e-08
9.94335e-05
2.5687e-07
-9.32047e-08
9.9423e-05
9.57903e-08
-9.35908e-08
0.000100519
6.48397e-08
-9.34708e-08
0.000100127
3.23935e-08
-9.34326e-08
0.000100126
4.80217e-09
-9.34543e-08
0.000100117
-2.32131e-08
-9.34732e-08
0.000100118
-5.691e-08
-9.34839e-08
0.000100128
-8.98583e-08
-9.35407e-08
0.00010013
-2.49877e-07
-9.36614e-08
0.000100516
-9.32356e-08
9.94352e-05
2.57533e-07
-2.54301e-07
9.9812e-05
9.59093e-08
-2.54813e-07
0.00010091
6.48077e-08
-2.54128e-07
0.000100517
3.23669e-08
-2.54318e-07
0.000100516
4.78148e-09
-2.54304e-07
0.000100507
-2.32212e-08
-2.54269e-07
0.000100508
-5.68974e-08
-2.54207e-07
0.000100518
-8.99803e-08
-2.53933e-07
0.00010052
-2.50502e-07
-2.54529e-07
0.000100907
-2.53832e-07
9.9824e-05
2.57027e-07
9.87227e-05
9.5546e-08
9.9818e-05
6.46925e-08
9.94266e-05
3.23365e-08
9.94257e-05
4.82037e-09
9.94166e-05
-2.31097e-08
9.94174e-05
-5.66931e-08
9.9428e-05
-8.95263e-08
9.94304e-05
-2.49799e-07
9.98155e-05
9.87366e-05
2.77449e-07
2.70898e-07
9.81753e-05
1.09129e-07
2.71531e-07
9.97173e-05
7.51037e-08
2.7012e-07
9.91925e-05
4.05633e-08
2.70191e-07
9.91924e-05
9.50339e-09
2.69709e-07
9.91809e-05
-2.23193e-08
2.69207e-07
9.91836e-05
-5.91459e-08
2.68697e-07
9.92004e-05
-9.68589e-08
2.67708e-07
9.92054e-05
-2.6284e-07
2.68398e-07
9.97172e-05
2.66551e-07
9.82154e-05
2.78053e-07
1.03148e-07
9.97005e-05
1.0957e-07
1.03662e-07
0.000101246
7.49513e-08
1.03239e-07
0.000100718
4.02088e-08
1.02925e-07
0.000100718
8.90076e-09
1.02637e-07
0.000100705
-2.3143e-08
1.02273e-07
0.000100706
-6.00782e-08
1.01847e-07
0.000100721
-9.82028e-08
1.01498e-07
0.000100724
-2.64701e-07
1.01423e-07
0.000101238
1.00038e-07
9.97269e-05
2.76712e-07
6.69159e-08
9.91825e-05
1.09155e-07
6.69269e-08
0.000100724
7.47499e-08
6.67608e-08
0.000100198
3.99282e-08
6.645e-08
0.000100198
8.59035e-09
6.61115e-08
0.000100186
-2.34741e-08
6.56969e-08
0.000100188
-6.04485e-08
6.52207e-08
0.000100203
-9.82737e-08
6.47788e-08
0.000100206
-2.64048e-07
6.43875e-08
0.00010072
6.34056e-08
9.92111e-05
2.76916e-07
3.07594e-08
9.91808e-05
1.08887e-07
3.06955e-08
0.000100723
7.44348e-08
3.05181e-08
0.000100197
3.9558e-08
3.02478e-08
0.000100197
8.16588e-09
2.9925e-08
0.000100184
-2.39321e-08
2.95342e-08
0.000100186
-6.08944e-08
2.90931e-08
0.000100201
-9.86385e-08
2.86658e-08
0.000100204
-2.65101e-07
2.83337e-08
0.000100718
2.75368e-08
9.92064e-05
2.76675e-07
-1.15996e-09
9.91671e-05
1.08725e-07
-1.32538e-09
0.000100709
7.4186e-08
-1.44806e-09
0.000100183
3.92309e-08
-1.64869e-09
0.000100183
7.77031e-09
-1.9084e-09
0.00010017
-2.4376e-08
-2.21466e-09
0.000100171
-6.13488e-08
-2.54906e-09
0.000100186
-9.90511e-08
-2.87979e-09
0.000100189
-2.65613e-07
-3.13083e-09
0.000100704
-3.55702e-09
9.91903e-05
2.76538e-07
-3.29728e-08
9.91672e-05
1.08587e-07
-3.32246e-08
0.000100709
7.39845e-08
-3.32808e-08
0.000100183
3.8971e-08
-3.33932e-08
0.000100182
7.46353e-09
-3.35651e-08
0.00010017
-2.47094e-08
-3.37575e-08
0.000100171
-6.16772e-08
-3.39532e-08
0.000100186
-9.93321e-08
-3.4155e-08
0.000100188
-2.65984e-07
-3.43015e-08
0.000100703
-3.43163e-08
9.91889e-05
2.76517e-07
-6.88158e-08
9.9181e-05
1.08485e-07
-6.90978e-08
0.000100722
7.38482e-08
-6.91316e-08
0.000100196
3.88013e-08
-6.91488e-08
0.000100196
7.27327e-09
-6.92335e-08
0.000100183
-2.49019e-08
-6.9317e-08
0.000100184
-6.18495e-08
-6.93844e-08
0.000100199
-9.94558e-08
-6.94784e-08
0.000100202
-2.6618e-07
-6.94957e-08
0.000100717
-6.92068e-08
9.92023e-05
2.76088e-07
-1.04561e-07
9.91828e-05
1.08527e-07
-1.05277e-07
0.000100723
7.38336e-08
-1.05003e-07
0.000100198
3.87466e-08
-1.04933e-07
0.000100197
7.197e-09
-1.0496e-07
0.000100185
-2.49875e-08
-1.04965e-07
0.000100186
-6.1938e-08
-1.0494e-07
0.000100201
-9.95493e-08
-1.04987e-07
0.000100203
-2.6573e-07
-1.05213e-07
0.000100718
-1.04337e-07
9.92046e-05
2.77287e-07
-2.72444e-07
9.97027e-05
1.08797e-07
-2.73295e-07
0.000101247
7.38226e-08
-2.7205e-07
0.000100719
3.87532e-08
-2.72394e-07
0.000100719
7.18405e-09
-2.72261e-07
0.000100706
-2.50091e-08
-2.72165e-07
0.000100707
-6.19168e-08
-2.72097e-07
0.000100722
-9.97811e-08
-2.71538e-07
0.000100724
-2.6679e-07
-2.72556e-07
0.000101241
-2.71274e-07
9.97242e-05
2.76455e-07
9.81738e-05
1.08128e-07
9.97131e-05
7.36461e-08
9.9189e-05
3.8688e-08
9.91882e-05
7.29812e-09
9.91758e-05
-2.47087e-08
9.91773e-05
-6.14907e-08
9.91927e-05
-9.8861e-08
9.91962e-05
-2.65484e-07
9.97096e-05
9.81998e-05
2.93449e-07
2.8439e-07
9.75975e-05
1.20522e-07
2.85308e-07
9.9605e-05
8.31355e-08
2.83272e-07
9.89467e-05
4.71677e-08
2.83381e-07
9.8945e-05
1.37557e-08
2.82539e-07
9.89318e-05
-2.07014e-08
2.81724e-07
9.89363e-05
-5.98191e-08
2.80945e-07
9.89585e-05
-1.02261e-07
2.79291e-07
9.89685e-05
-2.71563e-07
2.80087e-07
9.96064e-05
2.76964e-07
9.76668e-05
2.94299e-07
1.12065e-07
9.95786e-05
1.21132e-07
1.1281e-07
0.000101592
8.28538e-08
1.12162e-07
0.000100927
4.66137e-08
1.11694e-07
0.000100926
1.27398e-08
1.11234e-07
0.00010091
-2.21469e-08
1.10636e-07
0.000100912
-6.14184e-08
1.09912e-07
0.000100932
-1.04493e-07
1.09243e-07
0.000100937
-2.74722e-07
1.09024e-07
0.00010158
1.06651e-07
9.96225e-05
2.92384e-07
7.15778e-08
9.89307e-05
1.20503e-07
7.15854e-08
0.000100938
8.2531e-08
7.13151e-08
0.000100277
4.61517e-08
7.08464e-08
0.000100276
1.2246e-08
7.03174e-08
0.000100261
-2.26669e-08
6.96462e-08
0.000100263
-6.20395e-08
6.88447e-08
0.000100284
-1.04704e-07
6.80419e-08
0.00010029
-2.74059e-07
6.73584e-08
0.000100931
6.55537e-08
9.89781e-05
2.9271e-07
3.32352e-08
9.89265e-05
1.20111e-07
3.31938e-08
0.000100934
8.20515e-08
3.29004e-08
0.000100273
4.5563e-08
3.24899e-08
0.000100272
1.15489e-08
3.1993e-08
0.000100257
-2.34501e-08
3.13731e-08
0.000100259
-6.28501e-08
3.06479e-08
0.000100279
-1.05426e-07
2.99078e-08
0.000100284
-2.75943e-07
2.93512e-08
0.000100927
2.78413e-08
9.89682e-05
2.92267e-07
-1.54477e-09
9.89097e-05
1.19867e-07
-1.78444e-09
0.000100917
8.16779e-08
-1.95896e-09
0.000100256
4.50588e-08
-2.25548e-09
0.000100254
1.0921e-08
-2.64276e-09
0.000100239
-2.41803e-08
-3.10864e-09
0.000100241
-6.36274e-08
-3.63068e-09
0.00010026
-1.06162e-07
-4.1646e-09
0.000100266
-2.76843e-07
-4.57358e-09
0.000100908
-5.31302e-09
9.89466e-05
2.92073e-07
-3.61834e-08
9.89098e-05
1.19666e-07
-3.65993e-08
0.000100916
8.13818e-08
-3.66382e-08
0.000100256
4.46709e-08
-3.6793e-08
0.000100254
1.04539e-08
-3.70336e-08
0.000100238
-2.47012e-08
-3.73003e-08
0.00010024
-6.41534e-08
-3.7568e-08
0.000100259
-1.06631e-07
-3.78429e-08
0.000100264
-2.77472e-07
-3.80657e-08
0.000100908
-3.796e-08
9.8944e-05
2.92145e-07
-7.41105e-08
9.89268e-05
1.19524e-07
-7.45103e-08
0.000100933
8.11893e-08
-7.45244e-08
0.000100273
4.4434e-08
-7.454e-08
0.000100271
1.01904e-08
-7.46408e-08
0.000100255
-2.49632e-08
-7.47254e-08
0.000100257
-6.43792e-08
-7.47684e-08
0.000100276
-1.06787e-07
-7.4829e-08
0.000100281
-2.7777e-07
-7.48063e-08
0.000100925
-7.4195e-08
9.89608e-05
2.91497e-07
-1.13963e-07
9.89312e-05
1.19582e-07
-1.15001e-07
0.000100936
8.11806e-08
-1.14566e-07
0.000100276
4.4384e-08
-1.1446e-07
0.000100274
1.01208e-08
-1.14469e-07
0.000100259
-2.50308e-08
-1.14432e-07
0.000100261
-6.4429e-08
-1.14333e-07
0.00010028
-1.06825e-07
-1.14299e-07
0.000100285
-2.76905e-07
-1.14564e-07
0.000100928
-1.1307e-07
9.89666e-05
2.93219e-07
-2.86437e-07
9.9582e-05
1.20007e-07
-2.87664e-07
0.000101593
8.12005e-08
-2.85862e-07
0.000100929
4.4449e-08
-2.86367e-07
0.000100928
1.01359e-08
-2.86033e-07
0.000100912
-2.50454e-08
-2.85822e-07
0.000100914
-6.43526e-08
-2.85713e-07
0.000100933
-1.071e-07
-2.84728e-07
0.000100938
-2.78248e-07
-2.86043e-07
0.000101584
-2.83846e-07
9.96168e-05
2.92037e-07
9.75954e-05
1.19057e-07
9.95985e-05
8.09927e-08
9.89413e-05
4.43705e-08
9.89385e-05
1.04039e-08
9.89238e-05
-2.44142e-08
9.89263e-05
-6.35577e-08
9.89461e-05
-1.05567e-07
9.89535e-05
-2.75998e-07
9.9594e-05
9.764e-05
3.05271e-07
2.93132e-07
9.69991e-05
1.30296e-07
2.9432e-07
9.94857e-05
9.12091e-08
2.91611e-07
9.86942e-05
5.4624e-08
2.91691e-07
9.869e-05
1.93974e-08
2.90351e-07
9.86767e-05
-1.71712e-08
2.89061e-07
9.86839e-05
-5.78676e-08
2.87809e-07
9.87115e-05
-1.03538e-07
2.85174e-07
9.8729e-05
-2.72457e-07
2.85768e-07
9.94895e-05
2.80552e-07
9.71138e-05
3.06328e-07
1.18741e-07
9.94467e-05
1.31013e-07
1.19692e-07
0.000101942
9.06989e-08
1.18793e-07
0.00010114
5.37255e-08
1.18124e-07
0.000101136
1.77328e-08
1.174e-07
0.000101119
-1.95816e-08
1.16439e-07
0.000101122
-6.05502e-08
1.15235e-07
0.000101145
-1.07125e-07
1.13975e-07
0.000101154
-2.77759e-07
1.13327e-07
0.000101923
1.09262e-07
9.9516e-05
3.03814e-07
7.5406e-08
9.86702e-05
1.30149e-07
7.53871e-08
0.000101156
9.02184e-08
7.4984e-08
0.000100361
5.30165e-08
7.4301e-08
0.000100357
1.69561e-08
7.34889e-08
0.000100341
-2.04409e-08
7.24211e-08
0.000100345
-6.16343e-08
7.10904e-08
0.000100369
-1.07755e-07
6.96392e-08
0.000100381
-2.77625e-07
6.83474e-08
0.000101146
6.49415e-08
9.87448e-05
3.04235e-07
3.54046e-08
9.86623e-05
1.29603e-07
3.53769e-08
0.000101149
8.95125e-08
3.49394e-08
0.000100354
5.2107e-08
3.43373e-08
0.000100349
1.58342e-08
3.35887e-08
0.000100333
-2.17667e-08
3.26221e-08
0.000100336
-6.31051e-08
3.14454e-08
0.00010036
-1.09213e-07
3.01647e-08
0.00010037
-2.81025e-07
2.91469e-08
0.000101138
2.63394e-08
9.87257e-05
3.03537e-07
-1.97423e-09
9.86436e-05
1.29241e-07
-2.3076e-09
0.000101129
8.89623e-08
-2.54991e-09
0.000100334
5.13455e-08
-2.97445e-09
0.000100329
1.48537e-08
-3.53623e-09
0.000100312
-2.29531e-08
-4.22944e-09
0.000100316
-6.44309e-08
-5.02905e-09
0.000100338
-1.10535e-07
-5.88431e-09
0.000100348
-2.82771e-07
-6.55586e-09
0.000101116
-7.81143e-09
9.86979e-05
3.03271e-07
-3.91729e-08
9.86438e-05
1.28956e-07
-3.97809e-08
0.000101128
8.85398e-08
-3.98047e-08
0.000100333
5.07816e-08
-4.00119e-08
0.000100329
1.41577e-08
-4.03325e-08
0.000100312
-2.3752e-08
-4.06841e-08
0.000100315
-6.52697e-08
-4.10284e-08
0.000100337
-1.11309e-07
-4.13739e-08
0.000100346
-2.83825e-07
-4.16358e-08
0.000101115
-4.12413e-08
9.86937e-05
3.03459e-07
-7.8646e-08
9.86629e-05
1.28772e-07
-7.91718e-08
0.000101147
8.82832e-08
-7.91633e-08
0.000100353
5.04671e-08
-7.91727e-08
0.000100348
1.38124e-08
-7.92722e-08
0.000100331
-2.40866e-08
-7.93247e-08
0.000100334
-6.55417e-08
-7.92853e-08
0.000100356
-1.11462e-07
-7.92091e-08
0.000100365
-2.84113e-07
-7.90028e-08
0.000101135
-7.76791e-08
9.87131e-05
3.02593e-07
-1.21181e-07
9.86712e-05
1.28844e-07
-1.22543e-07
0.000101153
8.82884e-08
-1.2194e-07
0.00010036
5.04442e-08
-1.21789e-07
0.000100355
1.37895e-08
-1.21745e-07
0.000100338
-2.40703e-08
-1.21615e-07
0.000100341
-6.54376e-08
-1.21363e-07
0.000100363
-1.11271e-07
-1.21106e-07
0.000100373
-2.82475e-07
-1.21244e-07
0.000101141
-1.18685e-07
9.87253e-05
3.0485e-07
-2.95736e-07
9.94518e-05
1.29425e-07
-2.97344e-07
0.000101943
8.83472e-08
-2.94956e-07
0.000101143
5.05894e-08
-2.95592e-07
0.000101139
1.38702e-08
-2.94974e-07
0.000101122
-2.40125e-08
-2.94559e-07
0.000101125
-6.51927e-08
-2.94298e-07
0.000101147
-1.11432e-07
-2.92684e-07
0.000101155
-2.83751e-07
-2.94058e-07
0.000101929
-2.90368e-07
9.95048e-05
3.03328e-07
9.69964e-05
1.28223e-07
9.94763e-05
8.81535e-08
9.86864e-05
5.05648e-08
9.86806e-05
1.44243e-08
9.8665e-05
-2.28378e-08
9.8669e-05
-6.37611e-08
9.86928e-05
-1.08942e-07
9.87061e-05
-2.79951e-07
9.9471e-05
9.70697e-05
3.13432e-07
2.97504e-07
9.63883e-05
1.38231e-07
2.98939e-07
9.9362e-05
9.896e-08
2.95498e-07
9.8438e-05
6.2888e-08
2.9544e-07
9.84307e-05
2.69576e-08
2.93442e-07
9.84193e-05
-1.05945e-08
2.91448e-07
9.843e-05
-5.17409e-08
2.89395e-07
9.84633e-05
-9.91852e-08
2.85295e-07
9.84912e-05
-2.6359e-07
2.8518e-07
9.93688e-05
2.76418e-07
9.65738e-05
3.14635e-07
1.22787e-07
9.93069e-05
1.3897e-07
1.23915e-07
0.000102293
9.80911e-08
1.22719e-07
0.000101354
6.14278e-08
1.21779e-07
0.000101347
2.42946e-08
1.20664e-07
0.000101329
-1.44821e-08
1.19144e-07
0.000101333
-5.6194e-08
1.17168e-07
0.000101359
-1.04939e-07
1.14851e-07
0.000101374
-2.72532e-07
1.13291e-07
0.000102262
1.06044e-07
9.94138e-05
3.11497e-07
7.77821e-08
9.84038e-05
1.37835e-07
7.77158e-08
0.000101376
9.73955e-08
7.71331e-08
0.000100447
6.03801e-08
7.61573e-08
0.000100439
2.30844e-08
7.49308e-08
0.000100424
-1.59202e-08
7.32554e-08
0.00010043
-5.81053e-08
7.10683e-08
0.000100457
-1.06473e-07
6.84625e-08
0.000100475
-2.74057e-07
6.60333e-08
0.00010136
5.94065e-08
9.85174e-05
3.11956e-07
3.68499e-08
9.83913e-05
1.37086e-07
3.68174e-08
0.000101365
9.63755e-08
3.61995e-08
0.000100435
5.90027e-08
3.53379e-08
0.000100427
2.13049e-08
3.42288e-08
0.000100411
-1.81414e-08
3.27432e-08
0.000100416
-6.07396e-08
3.08484e-08
0.000100442
-1.09294e-07
2.86279e-08
0.000100458
-2.80318e-07
2.67432e-08
0.000101348
2.14411e-08
9.84834e-05
3.10956e-07
-2.45097e-09
9.8372e-05
1.36558e-07
-2.90091e-09
0.000101343
9.55785e-08
-3.23072e-09
0.000100414
5.78696e-08
-3.82383e-09
0.000100406
1.97928e-08
-4.62161e-09
0.000100389
-2.00603e-08
-5.63406e-09
0.000100394
-6.30069e-08
-6.84782e-09
0.000100419
-1.11701e-07
-8.20769e-09
0.000100433
-2.83933e-07
-9.31389e-09
0.000101324
-1.14986e-08
9.8447e-05
3.10599e-07
-4.15285e-08
9.83724e-05
1.36165e-07
-4.23539e-08
0.000101342
9.49891e-08
-4.23639e-08
0.000100414
5.70663e-08
-4.26326e-08
0.000100405
1.87742e-08
-4.30414e-08
0.000100389
-2.12743e-08
-4.34815e-08
0.000100393
-6.43342e-08
-4.38927e-08
0.000100417
-1.12994e-07
-4.4256e-08
0.000100431
-2.85752e-07
-4.44914e-08
0.000101323
-4.34238e-08
9.84399e-05
3.10917e-07
-8.18064e-08
9.83923e-05
1.35941e-07
-8.24747e-08
0.000101362
9.46621e-08
-8.24289e-08
0.000100434
5.66685e-08
-8.24187e-08
0.000100425
1.83476e-08
-8.2484e-08
0.000100409
-2.16625e-08
-8.24427e-08
0.000100413
-6.45926e-08
-8.22024e-08
0.000100437
-1.13044e-07
-8.17757e-08
0.000100451
-2.8567e-07
-8.11529e-08
0.000101344
-7.8223e-08
9.84623e-05
3.09857e-07
-1.25835e-07
9.84054e-05
1.36032e-07
-1.27517e-07
0.000101372
9.47007e-08
-1.26723e-07
0.000100445
5.67137e-08
-1.26508e-07
0.000100437
1.84469e-08
-1.26356e-07
0.00010042
-2.14241e-08
-1.26045e-07
0.000100424
-6.41188e-08
-1.2549e-07
0.000100449
-1.12329e-07
-1.2475e-07
0.000100464
-2.82519e-07
-1.24457e-07
0.000101355
-1.19883e-07
9.84844e-05
3.12661e-07
-3.00721e-07
9.93141e-05
1.36784e-07
-3.02714e-07
0.000102294
9.48201e-08
-2.99705e-07
0.000101358
5.69748e-08
-3.0041e-07
0.000101351
1.8659e-08
-2.99411e-07
0.000101334
-2.11725e-08
-2.98657e-07
0.000101337
-6.35106e-08
-2.98038e-07
0.000101362
-1.12068e-07
-2.95453e-07
0.000101375
-2.83007e-07
-2.96506e-07
0.000102272
-2.90133e-07
9.93921e-05
3.10823e-07
9.63849e-05
1.3537e-07
9.93491e-05
9.47031e-08
9.84274e-05
5.71214e-08
9.84178e-05
1.97103e-08
9.8403e-05
-1.91198e-08
9.84092e-05
-6.09536e-08
9.84366e-05
-1.08047e-07
9.84577e-05
-2.76454e-07
9.93429e-05
9.65032e-05
3.19739e-07
2.99197e-07
9.57694e-05
1.45464e-07
3.00845e-07
9.92356e-05
1.06899e-07
2.96636e-07
9.81801e-05
7.23065e-08
2.96308e-07
9.81691e-05
3.70519e-08
2.93465e-07
9.81612e-05
4.12014e-11
2.90479e-07
9.81767e-05
-4.02961e-08
2.87157e-07
9.82166e-05
-8.79525e-08
2.80871e-07
9.82581e-05
-2.40856e-07
2.79143e-07
9.92427e-05
2.64435e-07
9.60686e-05
3.21007e-07
1.25178e-07
9.916e-05
1.46099e-07
1.26431e-07
0.000102642
1.05498e-07
1.24889e-07
0.000101566
6.99867e-08
1.23585e-07
0.000101555
3.29119e-08
1.21914e-07
0.000101538
-6.06068e-09
1.19564e-07
0.000101543
-4.7581e-08
1.16355e-07
0.000101572
-9.72718e-08
1.12204e-07
0.000101592
-2.56113e-07
1.08568e-07
0.000102592
9.48462e-08
9.93274e-05
3.17249e-07
7.89627e-08
9.81329e-05
1.44659e-07
7.88201e-08
0.000101596
1.04518e-07
7.80019e-08
0.000100534
6.84825e-08
7.66321e-08
0.000100522
3.10585e-08
7.48173e-08
0.000100508
-8.45546e-09
7.22341e-08
0.000100517
-5.09513e-08
6.86735e-08
0.000100548
-1.00824e-07
6.40292e-08
0.000100574
-2.62111e-07
5.91386e-08
0.000101571
4.53648e-08
9.83047e-05
3.17674e-07
3.75172e-08
9.81152e-05
1.43641e-07
3.74518e-08
0.00010158
1.03068e-07
3.66111e-08
0.000100517
6.6436e-08
3.54061e-08
0.000100505
2.82828e-08
3.3796e-08
0.000100491
-1.21356e-08
3.15504e-08
0.000100498
-5.56739e-08
2.85306e-08
0.000100526
-1.0652e-07
2.47173e-08
0.000100549
-2.74821e-07
2.11292e-08
0.000101554
1.10929e-08
9.82428e-05
3.16331e-07
-2.97182e-09
9.80963e-05
1.42892e-07
-3.56327e-09
0.000101557
1.01936e-07
-4.00218e-09
0.000100496
6.47806e-08
-4.81025e-09
0.000100483
2.59819e-08
-5.91789e-09
0.000100468
-1.52121e-08
-7.37054e-09
0.000100474
-5.95503e-08
-9.1828e-09
0.000100501
-1.10993e-07
-1.13379e-08
0.000100521
-2.82225e-07
-1.32095e-08
0.00010153
-1.69069e-08
9.81927e-05
3.15864e-07
-4.31905e-08
9.80968e-05
1.42363e-07
-4.42526e-08
0.000101556
1.01133e-07
-4.42474e-08
0.000100495
6.3661e-08
-4.45822e-08
0.000100483
2.45166e-08
-4.50797e-08
0.000100467
-1.70267e-08
-4.55956e-08
0.000100472
-6.16522e-08
-4.60242e-08
0.000100499
-1.13164e-07
-4.63182e-08
0.000100517
-2.85276e-07
-4.64034e-08
0.000101528
-4.38923e-08
9.81815e-05
3.16316e-07
-8.38457e-08
9.81167e-05
1.42101e-07
-8.46676e-08
0.000101577
1.00735e-07
-8.45633e-08
0.000100516
6.31847e-08
-8.45073e-08
0.000100503
2.40322e-08
-8.44833e-08
0.000100487
-1.7405e-08
-8.42365e-08
0.000100493
-6.1778e-08
-8.35786e-08
0.000100519
-1.12898e-07
-8.23932e-08
0.000100538
-2.84181e-07
-8.06132e-08
0.00010155
-7.37494e-08
9.82079e-05
3.15099e-07
-1.28891e-07
9.81355e-05
1.42228e-07
-1.30876e-07
0.000101591
1.00844e-07
-1.2987e-07
0.000100532
6.33691e-08
-1.29551e-07
0.000100519
2.4391e-08
-1.29212e-07
0.000100504
-1.6698e-08
-1.28579e-07
0.00010051
-6.04867e-08
-1.27466e-07
0.000100537
-1.10814e-07
-1.2573e-07
0.000100558
-2.77378e-07
-1.24179e-07
0.000101565
-1.15221e-07
9.82484e-05
3.18429e-07
-3.03084e-07
9.91699e-05
1.43166e-07
-3.05451e-07
0.000102644
1.01054e-07
-3.01809e-07
0.000101572
6.3799e-08
-3.02499e-07
0.000101561
2.48423e-08
-3.01006e-07
0.000101544
-1.60383e-08
-2.99726e-07
0.000101549
-5.90722e-08
-2.98418e-07
0.000101576
-1.09327e-07
-2.94297e-07
0.000101594
-2.7492e-07
-2.94152e-07
0.000102608
-2.8285e-07
9.92847e-05
3.16319e-07
9.57656e-05
1.41615e-07
9.92184e-05
1.01109e-07
9.81662e-05
6.42954e-08
9.81522e-05
2.67006e-08
9.81396e-05
-1.2589e-08
9.81488e-05
-5.45981e-08
9.81802e-05
-1.02598e-07
9.82114e-05
-2.63142e-07
9.92093e-05
9.5957e-05
3.25615e-07
2.99549e-07
9.51443e-05
1.53109e-07
3.01372e-07
9.91068e-05
1.15914e-07
2.96379e-07
9.7921e-05
8.36108e-08
2.95638e-07
9.79058e-05
5.03672e-08
2.91767e-07
9.79028e-05
1.55719e-08
2.87461e-07
9.79242e-05
-2.22346e-08
2.8232e-07
9.79723e-05
-6.84649e-08
2.72875e-07
9.80317e-05
-1.99529e-07
2.6851e-07
9.91055e-05
2.4393e-07
9.56253e-05
3.26849e-07
1.26881e-07
9.90058e-05
1.53484e-07
1.28195e-07
0.000102989
1.13765e-07
1.26264e-07
0.000101776
8.00651e-08
1.24488e-07
0.00010176
4.41543e-08
1.22067e-07
0.000101743
6.32581e-09
1.18528e-07
0.00010175
-3.37964e-08
1.13432e-07
0.000101781
-8.33552e-08
1.06144e-07
0.000101809
-2.2479e-07
9.8657e-08
0.000102903
7.00631e-08
9.92764e-05
3.22501e-07
7.95965e-08
9.78577e-05
1.51714e-07
7.9338e-08
0.000101816
1.12435e-07
7.82302e-08
0.000100622
7.79696e-08
7.63478e-08
0.000100605
4.13766e-08
7.37308e-08
0.000100594
2.41844e-09
6.98377e-08
0.000100605
-3.97387e-08
6.41461e-08
0.000100639
-9.09713e-08
5.60352e-08
0.000100675
-2.41442e-07
4.66794e-08
0.000101774
1.64327e-08
9.81168e-05
3.22809e-07
3.77344e-08
9.78343e-05
1.50349e-07
3.75981e-08
0.000101795
1.10411e-07
3.64928e-08
0.000100599
7.49941e-08
3.48482e-08
0.000100582
3.7132e-08
3.25663e-08
0.00010057
-3.59081e-09
2.92489e-08
0.000100579
-4.80367e-08
2.45465e-08
0.00010061
-1.01974e-07
1.80994e-08
0.000100641
-2.68078e-07
1.15733e-08
0.000101755
-8.27271e-09
9.79992e-05
3.21091e-07
-3.52867e-09
9.78165e-05
1.4932e-07
-4.2865e-09
0.000101771
1.08843e-07
-4.85624e-09
0.000100578
7.26271e-08
-5.92909e-09
0.00010056
3.36977e-08
-7.43034e-09
0.000100547
-8.43452e-09
-9.46241e-09
0.000100555
-5.45986e-08
-1.21127e-08
0.000100584
-1.10296e-07
-1.55012e-08
0.00010061
-2.83749e-07
-1.86898e-08
0.000101734
-2.51733e-08
9.79256e-05
3.20495e-07
-4.44712e-08
9.78173e-05
1.48625e-07
-4.57798e-08
0.00010177
1.07776e-07
-4.57592e-08
0.000100577
7.11027e-08
-4.61589e-08
0.00010056
3.16409e-08
-4.67337e-08