/*--------------------------------*- C++ -*----------------------------------*\
  =========                 |
  \\      /  F ield         | OpenFOAM: The Open Source CFD Toolbox
   \\    /   O peration     | Website:  https://openfoam.org
    \\  /    A nd           | Version:  6
     \\/     M anipulation  |
\*---------------------------------------------------------------------------*/
FoamFile
{
    version     2.0;
    format      ascii;
    class       volVectorField;
    location    "200";
    object      U;
}
// * * * * * * * * * * * * * * * * * * * * * * * * * * * * * * * * * * * * * //

dimensions      [0 1 -1 0 0 0 0];

internalField   nonuniform List<vector> 
3000
(
(0.000606563 0.000602223 0.997862)
(0.000770533 0.000603116 0.99941)
(0.000228301 0.000602605 0.998942)
(0.000100558 0.000602454 0.998943)
(4.13398e-05 0.000602262 0.998946)
(-2.03386e-05 0.000602013 0.998946)
(-8.16642e-05 0.000601726 0.998944)
(-0.000212691 0.00060146 0.998944)
(-0.000755016 0.000601611 0.999408)
(-0.000597988 0.000600259 0.997869)
(0.000607452 0.000762559 0.999406)
(0.000770628 0.000762682 1.00095)
(0.00022779 0.000762446 1.00049)
(0.00010011 0.000762079 1.00049)
(4.08747e-05 0.00076171 1.00049)
(-2.0869e-05 0.000761283 1.00049)
(-8.21289e-05 0.000760832 1.00049)
(-0.000212968 0.000760483 1.00049)
(-0.000755944 0.000760108 1.00095)
(-0.000599345 0.000759192 0.99941)
(0.000606967 0.000219978 0.99894)
(0.000770417 0.00021956 1.00049)
(0.00022762 0.000219415 1.00002)
(9.98476e-05 0.000219141 1.00002)
(4.05504e-05 0.000218809 1.00002)
(-2.12376e-05 0.000218444 1.00002)
(-8.25048e-05 0.000218071 1.00002)
(-0.00021335 0.000217731 1.00002)
(-0.000756312 0.000217356 1.00049)
(-0.000599185 0.000217109 0.998945)
(0.000606878 9.02011e-05 0.99894)
(0.000770138 8.99363e-05 1.00049)
(0.000227372 8.97609e-05 1.00002)
(9.95315e-05 8.94825e-05 1.00002)
(4.01895e-05 8.91433e-05 1.00002)
(-2.16158e-05 8.87688e-05 1.00002)
(-8.28658e-05 8.83893e-05 1.00002)
(-0.000213682 8.80451e-05 1.00002)
(-0.000756635 8.77003e-05 1.00049)
(-0.000599433 8.73089e-05 0.998945)
(0.000606798 2.95445e-05 0.998943)
(0.000769943 2.93679e-05 1.00049)
(0.00022714 2.92057e-05 1.00002)
(9.92297e-05 2.89681e-05 1.00002)
(3.98369e-05 2.86693e-05 1.00003)
(-2.19923e-05 2.83307e-05 1.00003)
(-8.32288e-05 2.79817e-05 1.00002)
(-0.000214014 2.76635e-05 1.00002)
(-0.000757012 2.73708e-05 1.00049)
(-0.000599672 2.69858e-05 0.998947)
(0.000606716 -3.24187e-05 0.998943)
(0.000769785 -3.25625e-05 1.00049)
(0.000226962 -3.26929e-05 1.00002)
(9.89944e-05 -3.2856e-05 1.00002)
(3.95519e-05 -3.30735e-05 1.00003)
(-2.23035e-05 -3.33298e-05 1.00003)
(-8.35327e-05 -3.36e-05 1.00002)
(-0.000214284 -3.38484e-05 1.00002)
(-0.000757296 -3.4044e-05 1.00049)
(-0.000599831 -3.42846e-05 0.998947)
(0.000606638 -9.27773e-05 0.99894)
(0.000769682 -9.27996e-05 1.00049)
(0.000226857 -9.28865e-05 1.00002)
(9.88495e-05 -9.29674e-05 1.00002)
(3.93633e-05 -9.30912e-05 1.00002)
(-2.25185e-05 -9.32505e-05 1.00002)
(-8.37476e-05 -9.34269e-05 1.00002)
(-0.000214468 -9.3592e-05 1.00002)
(-0.000757459 -9.36873e-05 1.00049)
(-0.000599894 -9.38564e-05 0.998944)
(0.000606594 -0.000222084 0.99894)
(0.000769709 -0.0002219 1.00049)
(0.000226822 -0.000221971 1.00002)
(9.87899e-05 -0.00022199 1.00002)
(3.92686e-05 -0.000222039 1.00002)
(-2.26384e-05 -0.00022211 1.00002)
(-8.38738e-05 -0.000222193 1.00002)
(-0.000214571 -0.00022227 1.00002)
(-0.000757591 -0.000222257 1.00049)
(-0.000599899 -0.000222468 0.998944)
(0.000606976 -0.000764536 0.999406)
(0.000769722 -0.000764885 1.00095)
(0.000226766 -0.000764858 1.00049)
(9.87538e-05 -0.000764776 1.00049)
(3.92318e-05 -0.000764773 1.00049)
(-2.26644e-05 -0.000764766 1.00049)
(-8.38832e-05 -0.000764749 1.00049)
(-0.000214534 -0.000764797 1.00049)
(-0.000757583 -0.000764768 1.00095)
(-0.00060026 -0.000764292 0.99941)
(0.000605963 -0.000603273 0.997862)
(0.000769389 -0.000604289 0.999409)
(0.000227008 -0.000603891 0.998941)
(9.88458e-05 -0.000603897 0.998942)
(3.92698e-05 -0.000603904 0.998945)
(-2.25952e-05 -0.000603881 0.998945)
(-8.38658e-05 -0.000603827 0.998942)
(-0.000214657 -0.000603774 0.998942)
(-0.000757081 -0.000604111 0.999407)
(-0.00059914 -0.000602997 0.997867)
(0.00148705 0.00147225 0.994312)
(0.00175947 0.00147778 0.999194)
(0.000465498 0.00147443 0.997309)
(0.000310213 0.0014744 0.997302)
(0.000132411 0.00147373 0.997296)
(-6.36845e-05 0.00147284 0.997299)
(-0.000247906 0.0014718 0.997312)
(-0.000415581 0.00147032 0.997326)
(-0.00170837 0.00147244 0.999187)
(-0.00145714 0.00146521 0.994363)
(0.00149257 0.00173375 0.999167)
(0.00176106 0.00173541 1.00406)
(0.000464097 0.00173374 1.00217)
(0.000309183 0.00173279 1.00216)
(0.000130921 0.00173164 1.00215)
(-6.56291e-05 0.00173021 1.00215)
(-0.000250053 0.00172858 1.00217)
(-0.000416857 0.00172707 1.00218)
(-0.00171287 0.0017268 1.00404)
(-0.00146438 0.00172227 0.999202)
(0.00148932 0.000439182 0.997295)
(0.00175949 0.000438074 1.00218)
(0.000463684 0.000437726 1.00029)
(0.000308411 0.000436788 1.00029)
(0.000129954 0.00043573 1.00028)
(-6.67989e-05 0.000434531 1.00028)
(-0.000251276 0.000433261 1.00029)
(-0.000418114 0.000432139 1.0003)
(-0.00171315 0.000430881 1.00217)
(-0.00146226 0.000429615 0.997333)
(0.00148952 0.00027628 0.997285)
(0.00175884 0.000275842 1.00217)
(0.00046282 0.000275312 1.00028)
(0.000307282 0.00027431 1.00028)
(0.000128708 0.000273147 1.00027)
(-6.81206e-05 0.000271846 1.00027)
(-0.000252521 0.000270495 1.00028)
(-0.000419233 0.000269291 1.00029)
(-0.00171463 0.000268105 1.00216)
(-0.00146371 0.000266097 0.997321)
(0.00148924 9.38296e-05 0.997276)
(0.00175826 9.32942e-05 1.00216)
(0.000462068 9.27963e-05 1.00028)
(0.000306246 9.19688e-05 1.00027)
(0.000127492 9.09369e-05 1.00026)
(-6.94511e-05 8.97525e-05 1.00026)
(-0.000253831 8.85013e-05 1.00027)
(-0.000420423 8.73386e-05 1.00028)
(-0.0017161 8.6316e-05 1.00215)
(-0.00146463 8.47411e-05 0.997309)
(0.00148894 -0.000103413 0.997276)
(0.00175772 -0.000104049 1.00216)
(0.000461464 -0.000104507 1.00027)
(0.000305423 -0.000105086 1.00027)
(0.000126492 -0.000105866 1.00026)
(-7.05562e-05 -0.000106777 1.00026)
(-0.000254934 -0.000107746 1.00027)
(-0.000421391 -0.000108672 1.00028)
(-0.00171716 -0.000109332 1.00215)
(-0.00146526 -0.000110169 0.997307)
(0.00148866 -0.000284912 0.997285)
(0.00175727 -0.000285529 1.00217)
(0.000461067 -0.000285859 1.00028)
(0.000304889 -0.000286122 1.00028)
(0.0001258 -0.000286589 1.00027)
(-7.13322e-05 -0.000287174 1.00027)
(-0.000255727 -0.00028782 1.00028)
(-0.000422048 -0.000288494 1.00029)
(-0.00171771 -0.000288827 1.00216)
(-0.00146553 -0.00028899 0.997316)
(0.00148799 -0.000446004 0.997295)
(0.00175705 -0.000445732 1.00218)
(0.000460961 -0.000446061 1.00029)
(0.000304693 -0.000446124 1.00029)
(0.000125438 -0.000446353 1.00028)
(-7.17879e-05 -0.000446642 1.00028)
(-0.000256255 -0.000446949 1.00029)
(-0.00042249 -0.000447312 1.0003)
(-0.00171794 -0.000447251 1.00217)
(-0.00146509 -0.000447713 0.997326)
(0.00149089 -0.0017403 0.999171)
(0.001758 -0.00174278 1.00406)
(0.000460672 -0.00174177 1.00217)
(0.000304504 -0.00174181 1.00216)
(0.000125242 -0.00174193 1.00216)
(-7.19021e-05 -0.00174195 1.00216)
(-0.000256317 -0.00174186 1.00217)
(-0.00042236 -0.00174178 1.00218)
(-0.00171892 -0.00174266 1.00404)
(-0.00146796 -0.0017398 0.999201)
(0.00148491 -0.00147593 0.99431)
(0.00175557 -0.00148193 0.999188)
(0.000461125 -0.00147896 0.997304)
(0.000304247 -0.0014795 0.997296)
(0.000125185 -0.00147955 0.997288)
(-7.16468e-05 -0.00147949 0.99729)
(-0.000255838 -0.00147932 0.997301)
(-0.000422535 -0.00147866 0.997313)
(-0.001716 -0.00148143 0.999177)
(-0.00146165 -0.00147513 0.994344)
(0.00202941 0.00200278 0.990058)
(0.00221206 0.00201443 0.9988)
(0.00049498 0.00200617 0.995487)
(0.000495903 0.00200678 0.995472)
(0.000208391 0.00200526 0.99542)
(-8.5068e-05 0.00200349 0.995429)
(-0.000383364 0.00200158 0.9955)
(-0.000406579 0.00199791 0.995532)
(-0.00212045 0.00200366 0.998791)
(-0.00197398 0.00198848 0.990198)
(0.00204098 0.00216728 0.998733)
(0.00221592 0.00217131 1.00749)
(0.000493038 0.0021662 1.00417)
(0.000494703 0.00216487 1.00415)
(0.000205572 0.00216268 1.0041)
(-8.9043e-05 0.00215995 1.0041)
(-0.000388524 0.0021568 1.00417)
(-0.000409983 0.0021533 1.00419)
(-0.00213031 0.0021547 1.00746)
(-0.00198919 0.00214479 0.998829)
(0.00203298 0.000449285 0.995448)
(0.00221103 0.000447944 1.0042)
(0.000492252 0.000447258 1.00088)
(0.000493212 0.000445412 1.00086)
(0.000203842 0.000443515 1.00081)
(-9.11319e-05 0.000441288 1.00081)
(-0.000390653 0.000438832 1.00088)
(-0.000412195 0.000436748 1.00091)
(-0.00212893 0.00043451 1.00417)
(-0.00198345 0.000431034 0.995553)
(0.00203404 0.000435488 0.995427)
(0.00221029 0.000435494 1.00418)
(0.00049053 0.00043442 1.00086)
(0.000491052 0.000432517 1.00084)
(0.000201478 0.000430382 1.00079)
(-9.37136e-05 0.000427917 1.00079)
(-0.000393114 0.00042526 1.00086)
(-0.000414293 0.000422883 1.00088)
(-0.00213244 0.000420773 1.00415)
(-0.00198712 0.000415756 0.995523)
(0.00203334 0.000139833 0.995368)
(0.00220925 0.000138971 1.00412)
(0.000489212 0.00013809 1.0008)
(0.000489178 0.000136585 1.00078)
(0.000199241 0.000134719 1.00073)
(-9.62496e-05 0.000132533 1.00073)
(-0.000395686 0.000130162 1.00079)
(-0.000416619 0.00012792 1.00082)
(-0.00213536 0.000126062 1.00409)
(-0.00198884 0.000122756 0.995455)
(0.00203281 -0.000155947 0.995368)
(0.0022083 -0.000157203 1.00411)
(0.000488143 -0.000157961 1.0008)
(0.000487688 -0.000159008 1.00078)
(0.000197427 -0.000160423 1.00072)
(-9.82687e-05 -0.000162048 1.00073)
(-0.000397728 -0.000163758 1.00079)
(-0.000418395 -0.000165418 1.00082)
(-0.00213737 -0.000166578 1.00409)
(-0.00199008 -0.00016802 0.995451)
(0.00203249 -0.000450048 0.995428)
(0.00220753 -0.000451968 1.00417)
(0.000487418 -0.000452373 1.00085)
(0.000486714 -0.000452775 1.00084)
(0.0001962 -0.000453603 1.00078)
(-9.95868e-05 -0.000454578 1.00079)
(-0.000399053 -0.0004556 1.00085)
(-0.000419461 -0.000456742 1.00088)
(-0.00213828 -0.00045736 1.00415)
(-0.0019907 -0.000456615 0.995509)
(0.00203056 -0.00046053 0.995449)
(0.00220673 -0.000460675 1.00419)
(0.000487407 -0.000461124 1.00087)
(0.000486456 -0.00046106 1.00086)
(0.000195625 -0.00046145 1.0008)
(-0.000100274 -0.000461875 1.00081)
(-0.000399896 -0.000462259 1.00087)
(-0.000420241 -0.000462896 1.00089)
(-0.00213803 -0.000462759 1.00417)
(-0.00198902 -0.000462627 0.995531)
(0.00203797 -0.00217824 0.998742)
(0.00221057 -0.00218373 1.00749)
(0.000487022 -0.00217975 1.00417)
(0.000486305 -0.00218019 1.00416)
(0.000195363 -0.00218027 1.0041)
(-0.000100403 -0.00218015 1.00411)
(-0.000400017 -0.00217978 1.00417)
(-0.000419984 -0.00217893 1.00419)
(-0.00214168 -0.00218239 1.00747)
(-0.0019962 -0.00217568 0.998823)
(0.00202554 -0.0020092 0.990052)
(0.0022052 -0.00202169 0.998784)
(0.000487249 -0.00201412 0.995473)
(0.000485131 -0.00201578 0.995456)
(0.00019532 -0.00201559 0.9954)
(-9.95796e-05 -0.00201537 0.995405)
(-0.000398006 -0.00201509 0.995471)
(-0.000419321 -0.00201296 0.995498)
(-0.00213484 -0.00201994 0.998763)
(-0.00198275 -0.00200656 0.990144)
(0.00239424 0.00235332 0.98477)
(0.00242813 0.00237182 0.997854)
(0.000467801 0.00235735 0.993229)
(0.000656279 0.00235894 0.993221)
(0.000257226 0.00235582 0.993119)
(-6.81393e-05 0.00235273 0.993139)
(-0.000482377 0.00234978 0.993278)
(-0.000332474 0.00234267 0.993322)
(-0.0022848 0.00235259 0.997849)
(-0.00230477 0.00232738 0.985059)
(0.00241251 0.00236129 0.997726)
(0.00243425 0.00236784 1.01084)
(0.000465297 0.00235802 1.00619)
(0.000654904 0.00235628 1.00618)
(0.00025229 0.00235232 1.00607)
(-7.52209e-05 0.00234765 1.00608)
(-0.000492413 0.00234244 1.00621)
(-0.000339637 0.00233568 1.00623)
(-0.00230224 0.00233895 1.01078)
(-0.00233011 0.00232132 0.997921)
(0.00239853 0.000400005 0.993154)
(0.00242489 0.000398634 1.00624)
(0.000464108 0.000397587 1.0016)
(0.000652191 0.000394397 1.0016)
(0.000249404 0.000391364 1.00149)
(-7.85627e-05 0.000387639 1.0015)
(-0.000495718 0.000383336 1.00163)
(-0.000343482 0.000379709 1.00166)
(-0.00229913 0.000375732 1.0062)
(-0.00232033 0.00036807 0.993364)
(0.00240095 0.000564836 0.993134)
(0.00242419 0.000565701 1.00622)
(0.000461108 0.00056366 1.00159)
(0.000648656 0.000560604 1.00158)
(0.000245442 0.000557167 1.00147)
(-8.30766e-05 0.000553028 1.00148)
(-0.000500226 0.000548363 1.00161)
(-0.000347215 0.000543994 1.00164)
(-0.00230623 0.000540552 1.00618)
(-0.00232768 0.000530371 0.993324)
(0.00239933 0.00015334 0.993017)
(0.00242224 0.000152035 1.0061)
(0.000459098 0.000150599 1.00147)
(0.000645708 0.000148243 1.00146)
(0.000241816 0.000145295 1.00135)
(-8.73518e-05 0.000141744 1.00136)
(-0.000504746 0.000137772 1.00149)
(-0.00035138 0.000133866 1.00151)
(-0.0023113 0.0001308 1.00606)
(-0.00233047 0.000124722 0.993189)
(0.0023985 -0.000176408 0.993017)
(0.0024208 -0.000178388 1.0061)
(0.000457462 -0.000179387 1.00147)
(0.000643379 -0.000181011 1.00146)
(0.000238949 -0.000183211 1.00135)
(-9.05968e-05 -0.000185726 1.00136)
(-0.00050811 -0.000188371 1.00148)
(-0.000354336 -0.000191001 1.00151)
(-0.00231474 -0.000192903 1.00606)
(-0.00233263 -0.000195224 0.993179)
(0.00239854 -0.000585772 0.993135)
(0.00241998 -0.000589616 1.00622)
(0.000456343 -0.000589781 1.00158)
(0.000641871 -0.000590336 1.00157)
(0.000237098 -0.000591561 1.00146)
(-9.2518e-05 -0.000592912 1.00147)
(-0.00051001 -0.000594236 1.0016)
(-0.000355809 -0.000595768 1.00162)
(-0.00231626 -0.000596827 1.00617)
(-0.002334 -0.000594242 0.993294)
(0.00239476 -0.000415916 0.993156)
(0.00241831 -0.000416827 1.00623)
(0.000456664 -0.000417447 1.0016)
(0.000641593 -0.000417008 1.00159)
(0.000236379 -0.000417522 1.00148)
(-9.32982e-05 -0.000417971 1.00149)
(-0.000510977 -0.000418229 1.00162)
(-0.00035689 -0.00041911 1.00164)
(-0.00231478 -0.000418548 1.00619)
(-0.00233016 -0.000416763 0.993317)
(0.00240787 -0.00237709 0.997743)
(0.00242616 -0.00238587 1.01084)
(0.000456138 -0.00237774 1.0062)
(0.000641844 -0.00237875 1.00619)
(0.000236241 -0.0023783 1.00608)
(-9.33856e-05 -0.00237775 1.00609)
(-0.000511247 -0.00237701 1.00622)
(-0.000356172 -0.00237461 1.00624)
(-0.00232168 -0.0023812 1.0108)
(-0.00234243 -0.00236919 0.997903)
(0.00238821 -0.00236292 0.984759)
(0.00241766 -0.00238272 0.997822)
(0.000455956 -0.0023693 0.993202)
(0.000639437 -0.00237256 0.993189)
(0.000236587 -0.00237156 0.993081)
(-9.14325e-05 -0.00237095 0.993092)
(-0.000506431 -0.00237068 0.993221)
(-0.000353542 -0.00236614 0.993254)
(-0.00230942 -0.00237808 0.997792)
(-0.00232023 -0.00235607 0.984947)
(0.00267807 0.00261952 0.978952)
(0.00257615 0.00264513 0.996653)
(0.000464303 0.00262378 0.990735)
(0.000806394 0.00262648 0.99073)
(0.000288489 0.00262077 0.990599)
(-1.46087e-05 0.00261563 0.990633)
(-0.000552297 0.00261119 0.990832)
(-0.000266587 0.00259899 0.990902)
(-0.00236155 0.00261235 0.99666)
(-0.00254088 0.00257435 0.979474)
(0.00270318 0.00248252 0.996443)
(0.00258402 0.00249126 1.01419)
(0.000460752 0.00247636 1.00822)
(0.000804308 0.00247395 1.00822)
(0.000280078 0.00246713 1.00807)
(-2.65107e-05 0.0024595 1.00809)
(-0.000569811 0.00245117 1.00827)
(-0.000279987 0.00243912 1.0083)
(-0.00239011 0.00244268 1.0141)
(-0.00257917 0.00241353 0.996783)
(0.00268271 0.000369425 0.990609)
(0.00256994 0.000367892 1.00831)
(0.000459279 0.000366615 1.00237)
(0.000799759 0.000361538 1.00237)
(0.000275451 0.000356882 1.00223)
(-3.18114e-05 0.000350843 1.00225)
(-0.000575085 0.000343509 1.00243)
(-0.000286957 0.000337041 1.00247)
(-0.00238716 0.000329715 1.00825)
(-0.00256636 0.000314503 0.990976)
(0.00268681 0.000676366 0.990583)
(0.00256924 0.000678229 1.00829)
(0.000454488 0.000674736 1.00235)
(0.000794341 0.00067017 1.00234)
(0.000269069 0.000664831 1.0022)
(-3.93912e-05 0.000658154 1.00222)
(-0.000583175 0.00065031 1.0024)
(-0.000293733 0.000642403 1.00244)
(-0.00240052 0.000636578 1.00823)
(-0.0025796 0.000617637 0.990908)
(0.00268366 0.00014018 0.990426)
(0.00256586 0.000138191 1.00812)
(0.000451584 0.000135989 1.00219)
(0.000789875 0.000132474 1.00218)
(0.000263405 0.000128006 1.00203)
(-4.63055e-05 0.000122476 1.00205)
(-0.000590825 0.000116081 1.00223)
(-0.000301067 0.000109496 1.00226)
(-0.00240937 0.000104396 1.00806)
(-0.0025844 9.34897e-05 0.990716)
(0.00268246 -0.000170922 0.990426)
(0.00256378 -0.000173694 1.00812)
(0.0004492 -0.000174956 1.00219)
(0.000786416 -0.000177323 1.00218)
(0.000259083 -0.000180531 1.00203)
(-5.13097e-05 -0.000184225 1.00205)
(-0.000596166 -0.000188156 1.00222)
(-0.000305859 -0.00019212 1.00226)
(-0.00241519 -0.000195102 1.00805)
(-0.00258815 -0.000198773 0.990697)
(0.0026833 -0.000704399 0.990586)
(0.00256318 -0.000710592 1.00828)
(0.000447549 -0.00071025 1.00234)
(0.000784272 -0.000711036 1.00234)
(0.000256496 -0.000712666 1.00219)
(-5.39413e-05 -0.000714355 1.0022)
(-0.00059869 -0.000715859 1.00238)
(-0.000307666 -0.000717487 1.00241)
(-0.0024174 -0.00071899 1.00821)
(-0.00259045 -0.000713162 0.990853)
(0.0026772 -0.000390453 0.990613)
(0.00256044 -0.000392207 1.00829)
(0.000448404 -0.000393287 1.00236)
(0.000783989 -0.000392252 1.00236)
(0.000255778 -0.00039285 1.00221)
(-5.45579e-05 -0.000393117 1.00222)
(-0.000599318 -0.000392835 1.0024)
(-0.000308718 -0.0003936 1.00244)
(-0.00241347 -0.000391756 1.00823)
(-0.00258323 -0.000386638 0.99089)
(0.00269647 -0.0025037 0.99647)
(0.00257243 -0.00251566 1.0142)
(0.000447454 -0.00250315 1.00824)
(0.000784991 -0.00250477 1.00823)
(0.00025598 -0.00250316 1.00809)
(-5.43896e-05 -0.00250171 1.0081)
(-0.000599565 -0.00250024 1.00828)
(-0.000306663 -0.00249509 1.00831)
(-0.00242266 -0.00250396 1.01413)
(-0.00260025 -0.00248427 0.996744)
(0.00266925 -0.00263277 0.978935)
(0.00256104 -0.00266029 0.996601)
(0.000447039 -0.00264046 0.990692)
(0.000781402 -0.00264564 0.990678)
(0.00025742 -0.00264312 0.990535)
(-5.04103e-05 -0.00264175 0.990554)
(-0.000590277 -0.00264145 0.990735)
(-0.000300561 -0.00263332 0.990785)
(-0.00240266 -0.00264997 0.996562)
(-0.00256719 -0.0026173 0.979272)
(0.00290424 0.00282388 0.972986)
(0.00268492 0.00285657 0.99544)
(0.000483564 0.00282779 0.988198)
(0.000950765 0.00283139 0.988175)
(0.000315537 0.00282195 0.988037)
(7.09503e-05 0.00281368 0.988093)
(-0.000588572 0.0028066 0.988343)
(-0.000199128 0.00278705 0.988471)
(-0.00236641 0.00280208 0.995466)
(-0.00269609 0.00274652 0.973866)
(0.002936 0.00255824 0.995121)
(0.0026938 0.00256872 1.01764)
(0.000478279 0.0025484 1.01032)
(0.000946913 0.00254473 1.0103)
(0.00030158 0.00253375 1.01013)
(5.15059e-05 0.00252155 1.01016)
(-0.000617586 0.00250808 1.01037)
(-0.000223076 0.00248755 1.01044)
(-0.00241285 0.00248817 1.0175)
(-0.00275232 0.00243971 0.995669)
(0.00290866 0.000354676 0.988003)
(0.00267485 0.000352826 1.01045)
(0.00047647 0.000351277 1.00318)
(0.000939819 0.00034368 1.00316)
(0.000294427 0.000336663 1.003)
(4.29693e-05 0.000327028 1.00303)
(-0.000626477 0.000314675 1.00326)
(-0.00023571 0.000302822 1.00334)
(-0.00241441 0.000289031 1.01037)
(-0.00273952 0.000258885 0.988593)
(0.00291454 0.000771717 0.987949)
(0.00267391 0.000774561 1.0104)
(0.000469299 0.0007691 1.00313)
(0.000931779 0.000762524 1.00311)
(0.00028434 0.000754364 1.00294)
(3.04892e-05 0.000743791 1.00297)
(-0.000640831 0.000730842 1.00319)
(-0.000248614 0.000716648 1.00327)
(-0.00243971 0.000705772 1.01031)
(-0.00276283 0.00067094 0.98846)
(0.0029093 0.000109826 0.987767)
(0.00266853 0.000106824 1.01021)
(0.000465213 0.000103663 1.00294)
(0.000925119 9.85434e-05 1.00291)
(0.000275634 9.19136e-05 1.00275)
(1.94864e-05 8.34584e-05 1.00278)
(-0.000653601 7.33353e-05 1.00299)
(-0.000261608 6.23333e-05 1.00306)
(-0.0024561 5.34259e-05 1.01011)
(-0.00277193 3.38965e-05 0.988214)
(0.00290762 -0.000149115 0.987769)
(0.00266564 -0.000152735 1.01021)
(0.00046184 -0.000154382 1.00294)
(0.000920132 -0.000157682 1.00291)
(0.000269274 -0.000162183 1.00275)
(1.19227e-05 -0.000167446 1.00277)
(-0.000661968 -0.000173136 1.00298)
(-0.000269382 -0.000179026 1.00304)
(-0.00246578 -0.000183393 1.0101)
(-0.0027782 -0.000188731 0.988181)
(0.00290964 -0.000807717 0.987953)
(0.00266548 -0.0008166 1.01039)
(0.000459483 -0.000815525 1.00312)
(0.000917271 -0.000816627 1.00309)
(0.000265858 -0.000818586 1.00293)
(8.51539e-06 -0.000820458 1.00295)
(-0.000665126 -0.00082184 1.00316)
(-0.0002712 -0.0008229 1.00323)
(-0.00246798 -0.000824057 1.01029)
(-0.00278119 -0.000811951 0.988365)
(0.00290093 -0.000381395 0.98801)
(0.0026616 -0.000384098 1.01042)
(0.00046105 -0.000385811 1.00317)
(0.000917052 -0.000383974 1.00314)
(0.000265465 -0.00038454 1.00297)
(8.57251e-06 -0.000384227 1.003)
(-0.000664443 -0.000382617 1.00321)
(-0.000270987 -0.000382216 1.00328)
(-0.00245874 -0.00037738 1.01033)
(-0.00276834 -0.000364732 0.988444)
(0.00292664 -0.00258541 0.995162)
(0.00267772 -0.00260034 1.01765)
(0.000459511 -0.00258331 1.01034)
(0.000919157 -0.00258538 1.01032)
(0.000266265 -0.00258186 1.01016)
(9.5365e-06 -0.00257873 1.01018)
(-0.000663968 -0.00257554 1.01039)
(-0.000266105 -0.00256571 1.01045)
(-0.00246749 -0.00257463 1.01754)
(-0.00278823 -0.00254205 0.99559)
(0.00289188 -0.00284128 0.972962)
(0.00266386 -0.00287664 0.995362)
(0.000459137 -0.00284997 0.988133)
(0.000914775 -0.00285714 0.988097)
(0.000269967 -0.0028523 0.98794)
(1.70901e-05 -0.00284958 0.987971)
(-0.000647618 -0.00284874 0.988192)
(-0.000253535 -0.00283551 0.988287)
(-0.00243494 -0.00285558 0.995314)
(-0.00274067 -0.00280885 0.973526)
(0.00308036 0.00297308 0.966947)
(0.00275668 0.00301261 0.994235)
(0.00051283 0.00297581 0.985657)
(0.00109004 0.00297975 0.985602)
(0.000349016 0.00296524 0.985474)
(0.000188618 0.00295227 0.985561)
(-0.000580294 0.00294058 0.985864)
(-0.000105569 0.00291041 0.986083)
(-0.00228129 0.00292383 0.994293)
(-0.00276504 0.00284214 0.968388)
(0.00311827 0.00258911 0.993774)
(0.00276563 0.00260082 1.02116)
(0.00050495 0.00257456 1.01246)
(0.00108281 0.00256866 1.01241)
(0.000326553 0.00255187 1.01223)
(0.000157486 0.0025328 1.01227)
(-0.000627007 0.00251086 1.01252)
(-0.000147292 0.00247671 1.01263)
(-0.00235793 0.00246901 1.02093)
(-0.00284791 0.00238582 0.994634)
(0.00308377 0.000341014 0.985372)
(0.00274155 0.000338747 1.01265)
(0.00050248 0.000336609 1.00403)
(0.0010723 0.000325713 1.00397)
(0.000315768 0.000315236 1.00381)
(0.00014371 0.000300068 1.00386)
(-0.000642494 0.000279583 1.00412)
(-0.00016974 0.000257697 1.00426)
(-0.00237259 0.000232511 1.01253)
(-0.00284124 0.000172221 0.986287)
(0.00309125 0.000848419 0.985274)
(0.00273985 0.000852123 1.01256)
(0.00049221 0.000844094 1.00394)
(0.00106056 0.000834801 1.00388)
(0.00030006 0.0008225 1.00371)
(0.000123454 0.000805998 1.00376)
(-0.000667609 0.000784853 1.004)
(-0.00019421 0.000759562 1.00413)
(-0.00241994 0.000738943 1.01242)
(-0.00288236 0.000673709 0.986031)
(0.0030834 6.84166e-05 0.985081)
(0.00273195 6.40174e-05 1.01235)
(0.000486523 5.96951e-05 1.00373)
(0.00105076 5.23694e-05 1.00367)
(0.000286862 4.27031e-05 1.0035)
(0.000106105 2.9968e-05 1.00354)
(-0.000688899 1.40507e-05 1.00378)
(-0.00021724 -4.32926e-06 1.00389)
(-0.00245166 -2.01181e-05 1.0122)
(-0.00290198 -5.66079e-05 0.985717)
(0.00308111 -0.000117173 0.985083)
(0.00272802 -0.000121713 1.01234)
(0.000481856 -0.000123931 1.00373)
(0.00104373 -0.000128368 1.00366)
(0.000277685 -0.000134506 1.00349)
(9.48208e-05 -0.000141807 1.00353)
(-0.000701905 -0.000149874 1.00376)
(-0.000229813 -0.00015834 1.00387)
(-0.00246816 -0.000164448 1.01219)
(-0.00291293 -0.000171559 0.985663)
(0.00308459 -0.000893304 0.985281)
(0.00272841 -0.000905175 1.01254)
(0.000478639 -0.000903127 1.00393)
(0.00104012 -0.000904571 1.00386)
(0.000273405 -0.000906649 1.00369)
(9.07084e-05 -0.000908341 1.00372)
(-0.000705345 -0.000908887 1.00396)
(-0.000230773 -0.000907808 1.00407)
(-0.0024681 -0.00090715 1.01239)
(-0.00291435 -0.000881878 0.98587)
(0.00307326 -0.000374053 0.985384)
(0.00272353 -0.000377911 1.01261)
(0.000481118 -0.000380202 1.00401)
(0.00104018 -0.000377323 1.00395)
(0.000273945 -0.00037757 1.00378)
(9.2439e-05 -0.000375961 1.00381)
(-0.000701422 -0.000371603 1.00405)
(-0.000226918 -0.000367814 1.00417)
(-0.00244827 -0.000357375 1.01248)
(-0.00289145 -0.000328006 0.986034)
(0.0031056 -0.0026229 0.993834)
(0.00274386 -0.00264059 1.02118)
(0.000479048 -0.00261878 1.0125)
(0.00104381 -0.00262082 1.01245)
(0.000275752 -0.00261448 1.01227)
(9.52e-05 -0.00260841 1.0123)
(-0.000698733 -0.0026016 1.01254)
(-0.000216727 -0.00258381 1.01264)
(-0.0024511 -0.00258901 1.02101)
(-0.00291051 -0.00253247 0.994478)
(0.00306353 -0.00299514 0.966917)
(0.00272805 -0.00303826 0.994125)
(0.000479059 -0.00300435 0.985566)
(0.0010394 -0.00301325 0.985492)
(0.000283489 -0.00300523 0.985336)
(0.000108877 -0.00300023 0.985386)
(-0.000671061 -0.0029977 0.985642)
(-0.000192431 -0.00297702 0.985808)
(-0.00239667 -0.00299812 0.994072)
(-0.00284191 -0.00293062 0.967836)
(0.00321963 0.00307941 0.960813)
(0.00280719 0.0031254 0.992998)
(0.000553706 0.00308016 0.983095)
(0.00122962 0.00308352 0.983004)
(0.000398518 0.00306244 0.982903)
(0.000341622 0.00304269 0.983031)
(-0.000517846 0.00302334 0.983394)
(3.10675e-05 0.0029777 0.983734)
(-0.00207985 0.00298356 0.993078)
(-0.00271878 0.00286121 0.963113)
(0.00326299 0.00258944 0.992356)
(0.00281502 0.00260176 1.02468)
(0.000542024 0.00256909 1.0146)
(0.00121676 0.00255967 1.01451)
(0.000363625 0.00253511 1.01434)
(0.00029291 0.00250606 1.01439)
(-0.00059139 0.0024706 1.01466)
(-4.0138e-05 0.00241476 1.01483)
(-0.0022085 0.00238779 1.02431)
(-0.00284537 0.00223999 0.993667)
(0.00322125 0.000328138 0.982696)
(0.00278569 0.000325247 1.01486)
(0.000538466 0.000322087 1.0049)
(0.00120184 0.000306961 1.0048)
(0.00034774 0.000291524 1.00465)
(0.00027092 0.000268082 1.00473)
(-0.000618492 0.000234633 1.00502)
(-8.0845e-05 0.000194602 1.00523)
(-0.00225632 0.000145694 1.01467)
(-0.00286183 1.98085e-05 0.984067)
(0.00322992 0.000908654 0.982546)
(0.0027825 0.000912955 1.01473)
(0.000524236 0.000901713 1.00476)
(0.00118493 0.000888768 1.00466)
(0.000323721 0.000870585 1.0045)
(0.000238491 0.000845252 1.00456)
(-0.000661908 0.000811045 1.00484)
(-0.000128555 0.000766521 1.00503)
(-0.00235259 0.000724883 1.01453)
(-0.00294037 0.000597569 0.983626)
(0.00321902 2.05598e-05 0.982352)
(0.00277156 1.43473e-05 1.0145)
(0.000516393 8.64305e-06 1.00454)
(0.0011708 -1.61904e-06 1.00444)
(0.000304062 -1.54177e-05 1.00428)
(0.000211407 -3.43006e-05 1.00433)
(-0.000697174 -5.90848e-05 1.00459)
(-0.000169395 -8.96359e-05 1.00476)
(-0.00241595 -0.000118469 1.01428)
(-0.00297991 -0.000186756 0.983206)
(0.00321599 -7.96489e-05 0.982357)
(0.00276635 -8.5187e-05 1.01449)
(0.000510086 -8.81851e-05 1.00454)
(0.00116111 -9.39481e-05 1.00444)
(0.000291076 -0.000102093 1.00427)
(0.000194855 -0.000111948 1.00432)
(-0.000717202 -0.000122999 1.00457)
(-0.000189968 -0.000135021 1.00473)
(-0.00244372 -0.000143657 1.01427)
(-0.00299797 -0.000151036 0.983115)
(0.00322111 -0.000963286 0.982558)
(0.00276736 -0.00097834 1.0147)
(0.000505917 -0.000975072 1.00474)
(0.00115681 -0.00097677 1.00464)
(0.000286035 -0.000978568 1.00447)
(0.000190462 -0.000979322 1.00452)
(-0.000720124 -0.000977536 1.00478)
(-0.000188743 -0.000971516 1.00494)
(-0.00243589 -0.000964384 1.01448)
(-0.0029953 -0.000909592 0.983354)
(0.0032073 -0.000368095 0.982716)
(0.00276178 -0.000373235 1.01481)
(0.000509579 -0.000375955 1.00488)
(0.00115757 -0.000371713 1.00478)
(0.000288559 -0.000371106 1.00461)
(0.000195693 -0.00036699 1.00466)
(-0.000709473 -0.000357483 1.00492)
(-0.000175194 -0.000345794 1.0051)
(-0.00238955 -0.000321812 1.01461)
(-0.00295081 -0.000252578 0.983643)
(0.00324628 -0.00263046 0.99244)
(0.00278626 -0.00265058 1.0247)
(0.000507123 -0.0026238 1.01466)
(0.00116321 -0.00262509 1.01457)
(0.000292018 -0.00261481 1.01439)
(0.000201896 -0.00260395 1.01444)
(-0.000701411 -0.00259028 1.01469)
(-0.000153566 -0.00255866 1.01485)
(-0.00237149 -0.00255113 1.02442)
(-0.00295576 -0.0024467 0.993367)
(0.00319733 -0.00310662 0.960776)
(0.00276925 -0.00315731 0.99285)
(0.000508135 -0.00311592 0.982974)
(0.00116005 -0.00312603 0.982857)
(0.000306298 -0.00311382 0.982717)
(0.000225639 -0.00310522 0.982791)
(-0.0006557 -0.0030989 0.983084)
(-0.000108118 -0.00306708 0.983342)
(-0.00227627 -0.00308398 0.992781)
(-0.00285047 -0.00298273 0.962237)
(0.00333565 0.00315568 0.95459)
(0.00285403 0.0032077 0.991721)
(0.00061234 0.00315376 0.98051)
(0.00137716 0.00315546 0.98038)
(0.00047327 0.00312621 0.980321)
(0.000534954 0.00309724 0.980502)
(-0.00039027 0.00306631 0.980937)
(0.000225288 0.00299866 0.981432)
(-0.00172137 0.00298979 0.991783)
(-0.0025608 0.00280188 0.95834)
(0.0033836 0.00257563 0.990852)
(0.00285935 0.00258787 1.02816)
(0.000595312 0.00254849 1.01672)
(0.00135591 0.00253409 1.01658)
(0.000421217 0.00249961 1.01641)
(0.000461339 0.00245677 1.01648)
(-0.000502816 0.00240116 1.01677)
(0.000109752 0.0023114 1.01701)
(-0.00193614 0.00224997 1.02754)
(-0.00275269 0.00197226 0.992972)
(0.00333476 0.000320518 0.979967)
(0.00282488 0.000316642 1.01706)
(0.000590261 0.00031202 1.00578)
(0.00133557 0.000291632 1.00564)
(0.00039841 0.00026936 1.00551)
(0.000427111 0.000233967 1.0056)
(-0.000549778 0.000180577 1.00593)
(3.63881e-05 0.000108692 1.00624)
(-0.00206285 1.72721e-05 1.01675)
(-0.00282296 -0.000261958 0.982082)
(0.00334409 0.000957023 0.979762)
(0.00281934 0.000961522 1.01688)
(0.000571102 0.000946439 1.00558)
(0.00131165 0.000928711 1.00544)
(0.000362522 0.000902489 1.0053)
(0.000376162 0.000864438 1.00538)
(-0.000623461 0.000810126 1.00568)
(-5.35172e-05 0.000733143 1.00594)
(-0.00225866 0.000653475 1.01655)
(-0.00298327 0.000388077 0.981215)
(0.00332978 -2.97034e-05 0.979576)
(0.00280489 -3.81636e-05 1.01665)
(0.000560449 -4.54649e-05 1.00537)
(0.00129175 -5.94834e-05 1.00522)
(0.00033389 -7.87128e-05 1.00507)
(0.000334717 -0.00010609 1.00514)
(-0.000681001 -0.000143918 1.00542)
(-0.000125145 -0.000194243 1.00565)
(-0.00238476 -0.000245835 1.01631)
(-0.00307897 -0.000380841 0.980633)
(0.00332588 -4.04193e-05 0.979583)
(0.00279817 -4.70191e-05 1.01663)
(0.00055214 -5.1015e-05 1.00536)
(0.00127874 -5.82758e-05 1.00521)
(0.00031596 -6.87881e-05 1.00506)
(0.000310997 -8.16437e-05 1.00512)