/*--------------------------------*- C++ -*----------------------------------*\
  =========                 |
  \\      /  F ield         | OpenFOAM: The Open Source CFD Toolbox
   \\    /   O peration     | Website:  https://openfoam.org
    \\  /    A nd           | Version:  6
     \\/     M anipulation  |
\*---------------------------------------------------------------------------*/
FoamFile
{
    version     2.0;
    format      ascii;
    class       volScalarField;
    location    "0.3";
    object      T;
}
// * * * * * * * * * * * * * * * * * * * * * * * * * * * * * * * * * * * * * //

dimensions      [0 0 0 1 0 0 0];

internalField   nonuniform List<scalar> 
7000
(
104.314
104.313
104.312
104.31
104.307
104.303
104.3
104.297
104.295
104.293
104.314
104.313
104.312
104.31
104.307
104.303
104.3
104.297
104.295
104.293
104.314
104.313
104.312
104.31
104.307
104.303
104.3
104.297
104.295
104.293
104.314
104.313
104.312
104.31
104.307
104.303
104.3
104.297
104.295
104.293
104.314
104.313
104.312
104.31
104.307
104.303
104.3
104.297
104.295
104.293
104.314
104.313
104.312
104.31
104.307
104.303
104.3
104.297
104.295
104.293
104.314
104.313
104.312
104.31
104.307
104.303
104.3
104.297
104.295
104.293
104.314
104.313
104.312
104.31
104.307
104.303
104.3
104.297
104.295
104.293
104.314
104.313
104.312
104.31
104.307
104.303
104.3
104.297
104.295
104.293
104.314
104.313
104.312
104.31
104.307
104.303
104.3
104.297
104.295
104.293
93.0372
93.0347
93.0298
93.0227
93.0137
93.0033
92.9926
92.9828
92.9751
92.9709
93.0371
93.0346
93.0297
93.0226
93.0136
93.0033
92.9926
92.9827
92.975
92.9708
93.0371
93.0346
93.0297
93.0226
93.0136
93.0032
92.9925
92.9827
92.975
92.9708
93.0371
93.0346
93.0297
93.0226
93.0135
93.0032
92.9925
92.9827
92.975
92.9708
93.0371
93.0345
93.0297
93.0225
93.0135
93.0032
92.9925
92.9826
92.975
92.9708
93.037
93.0345
93.0297
93.0225
93.0135
93.0032
92.9925
92.9826
92.975
92.9708
93.0371
93.0345
93.0297
93.0225
93.0135
93.0032
92.9925
92.9827
92.975
92.9708
93.0371
93.0346
93.0297
93.0226
93.0136
93.0032
92.9925
92.9827
92.975
92.9708
93.0371
93.0346
93.0297
93.0226
93.0136
93.0033
92.9926
92.9827
92.975
92.9708
93.0371
93.0346
93.0297
93.0226
93.0136
93.0033
92.9926
92.9827
92.9751
92.9709
82.0392
82.0347
82.0258
82.0128
81.9962
81.9769
81.9567
81.9378
81.9229
81.9147
82.0391
82.0346
82.0257
82.0127
81.9961
81.9769
81.9566
81.9377
81.9229
81.9147
82.039
82.0345
82.0257
82.0127
81.996
81.9768
81.9566
81.9377
81.9228
81.9146
82.039
82.0345
82.0256
82.0126
81.996
81.9768
81.9565
81.9376
81.9228
81.9146
82.039
82.0345
82.0256
82.0126
81.996
81.9768
81.9565
81.9376
81.9228
81.9146
82.039
82.0345
82.0256
82.0126
81.996
81.9767
81.9565
81.9376
81.9228
81.9146
82.039
82.0345
82.0256
82.0126
81.996
81.9768
81.9565
81.9376
81.9228
81.9146
82.039
82.0345
82.0256
82.0127
81.996
81.9768
81.9566
81.9377
81.9228
81.9146
82.039
82.0345
82.0257
82.0127
81.9961
81.9768
81.9566
81.9377
81.9229
81.9147
82.0391
82.0346
82.0257
82.0127
81.9961
81.9769
81.9567
81.9378
81.9229
81.9147
71.4909
71.4839
71.47
71.4494
71.4226
71.3912
71.3574
71.3252
71.2995
71.285
71.4908
71.4838
71.4699
71.4493
71.4225
71.3911
71.3573
71.3251
71.2994
71.285
71.4908
71.4837
71.4698
71.4492
71.4225
71.391
71.3573
71.3251
71.2993
71.2849
71.4907
71.4837
71.4698
71.4492
71.4224
71.3909
71.3572
71.325
71.2993
71.2849
71.4907
71.4837
71.4698
71.4491
71.4224
71.3909
71.3572
71.325
71.2993
71.2849
71.4907
71.4837
71.4698
71.4491
71.4224
71.3909
71.3572
71.325
71.2993
71.2849
71.4907
71.4837
71.4698
71.4492
71.4224
71.3909
71.3572
71.325
71.2993
71.2849
71.4907
71.4837
71.4698
71.4492
71.4225
71.391
71.3573
71.3251
71.2994
71.2849
71.4908
71.4838
71.4699
71.4493
71.4225
71.391
71.3573
71.3251
71.2994
71.285
71.4908
71.4838
71.4699
71.4493
71.4226
71.3911
71.3574
71.3252
71.2995
71.2851
61.5416
61.5314
61.511
61.4803
61.4398
61.391
61.3373
61.2847
61.2413
61.2165
61.5415
61.5313
61.5108
61.4802
61.4397
61.3909
61.3372
61.2846
61.2412
61.2164
61.5414
61.5312
61.5108
61.4801
61.4396
61.3908
61.3371
61.2845
61.2412
61.2163
61.5413
61.5311
61.5107
61.48
61.4395
61.3908
61.3371
61.2845
61.2411
61.2163
61.5413
61.5311
61.5107
61.48
61.4395
61.3907
61.3371
61.2844
61.2411
61.2163
61.5413
61.5311
61.5107
61.48
61.4395
61.3907
61.3371
61.2844
61.2411
61.2163
61.5413
61.5311
61.5107
61.48
61.4395
61.3908
61.3371
61.2845
61.2411
61.2163
61.5413
61.5311
61.5107
61.4801
61.4396
61.3908
61.3372
61.2845
61.2412
61.2163
61.5414
61.5312
61.5108
61.4801
61.4397
61.3909
61.3372
61.2846
61.2413
61.2164
61.5415
61.5313
61.5109
61.4802
61.4398
61.391
61.3373
61.2847
61.2414
61.2165
52.3126
52.2984
52.2698
52.2261
52.167
52.0939
52.0106
51.9257
51.8529
51.8096
52.3125
52.2983
52.2697
52.2259
52.1669
52.0937
52.0105
51.9256
51.8528
51.8095
52.3124
52.2982
52.2696
52.2258
52.1668
52.0936
52.0104
51.9255
51.8527
51.8095
52.3123
52.2981
52.2695
52.2258
52.1667
52.0936
52.0103
51.9254
51.8527
51.8094
52.3123
52.2981
52.2695
52.2258
52.1667
52.0936
52.0103
51.9254
51.8527
51.8094
52.3123
52.2981
52.2695
52.2258
52.1667
52.0936
52.0103
51.9254
51.8527
51.8094
52.3123
52.2981
52.2695
52.2258
52.1668
52.0936
52.0104
51.9255
51.8527
51.8094
52.3123
52.2982
52.2696
52.2258
52.1668
52.0937
52.0104
51.9255
51.8528
51.8095
52.3124
52.2983
52.2696
52.2259
52.1669
52.0937
52.0105
51.9256
51.8529
51.8096
52.3125
52.2984
52.2697
52.226
52.167
52.0939
52.0106
51.9257
51.853
51.8097
43.8939
43.875
43.8364
43.7764
43.6933
43.5867
43.4601
43.3241
43.2006
43.1227
43.8938
43.8749
43.8363
43.7763
43.6931
43.5865
43.4599
43.324
43.2005
43.1226
43.8937
43.8748
43.8362
43.7762
43.693
43.5865
43.4599
43.3239
43.2004
43.1226
43.8936
43.8748
43.8362
43.7761
43.693
43.5864
43.4598
43.3239
43.2004
43.1225
43.8936
43.8747
43.8361
43.7761
43.693
43.5864
43.4598
43.3239
43.2004
43.1225
43.8936
43.8747
43.8361
43.7761
43.693
43.5864
43.4598
43.3239
43.2004
43.1225
43.8936
43.8748
43.8362
43.7761
43.693
43.5864
43.4598
43.3239
43.2004
43.1226
43.8937
43.8748
43.8362
43.7762
43.6931
43.5865
43.4599
43.324
43.2005
43.1226
43.8938
43.8749
43.8363
43.7763
43.6931
43.5866
43.46
43.3241
43.2006
43.1227
43.8938
43.875
43.8364
43.7764
43.6933
43.5867
43.4601
43.3242
43.2007
43.1228
36.3424
36.3183
36.2684
36.1893
36.0766
35.9264
35.7386
35.5228
35.3095
35.1613
36.3423
36.3182
36.2683
36.1892
36.0765
35.9263
35.7384
35.5227
35.3094
35.1612
36.3422
36.3181
36.2682
36.1891
36.0764
35.9262
35.7384
35.5226
35.3093
35.1611
36.3421
36.318
36.2681
36.189
36.0763
35.9261
35.7383
35.5226
35.3092
35.1611
36.3421
36.318
36.2681
36.189
36.0763
35.9261
35.7383
35.5225
35.3092
35.1611
36.3421
36.318
36.2681
36.189
36.0763
35.9261
35.7383
35.5225
35.3092
35.1611
36.3421
36.318
36.2681
36.189
36.0763
35.9262
35.7383
35.5226
35.3093
35.1611
36.3422
36.3181
36.2682
36.1891
36.0764
35.9262
35.7384
35.5226
35.3093
35.1612
36.3422
36.3181
36.2683
36.1892
36.0765
35.9263
35.7385
35.5227
35.3094
35.1613
36.3423
36.3183
36.2684
36.1893
36.0766
35.9264
35.7386
35.5229
35.3096
35.1614
29.6823
29.6529
29.5914
29.4921
29.3464
29.1441
28.8756
28.5398
28.1654
27.8584
29.6821
29.6528
29.5913
29.492
29.3463
29.144
28.8755
28.5397
28.1653
27.8584
29.682
29.6527
29.5912
29.4919
29.3462
29.1439
28.8754
28.5396
28.1652
27.8583
29.682
29.6526
29.5912
29.4918
29.3462
29.1439
28.8753
28.5396
28.1652
27.8583
29.682
29.6526
29.5911
29.4918
29.3462
29.1438
28.8753
28.5396
28.1652
27.8582
29.682
29.6526
29.5911
29.4918
29.3462
29.1438
28.8753
28.5396
28.1652
27.8583
29.682
29.6526
29.5912
29.4918
29.3462
29.1439
28.8753
28.5396
28.1652
27.8583
29.682
29.6527
29.5912
29.4919
29.3463
29.1439
28.8754
28.5397
28.1653
27.8584
29.6821
29.6528
29.5913
29.492
29.3464
29.144
28.8755
28.5398
28.1654
27.8585
29.6822
29.6529
29.5914
29.4921
29.3465
29.1442
28.8756
28.5399
28.1655
27.8586
23.9076
23.8737
23.802
23.6842
23.5071
23.2513
22.8905
22.3927
21.7382
21.0239
23.9075
23.8736
23.8019
23.6841
23.507
23.2512
22.8904
22.3926
21.7381
21.0238
23.9074
23.8735
23.8018
23.684
23.5069
23.2511
22.8903
22.3925
21.738
21.0237
23.9074
23.8734
23.8017
23.684
23.5069
23.2511
22.8902
22.3925
21.738
21.0237
23.9073
23.8734
23.8017
23.684
23.5068
23.251
22.8902
22.3925
21.7379
21.0237
23.9073
23.8734
23.8017
23.684
23.5068
23.2511
22.8902
22.3925
21.738
21.0237
23.9074
23.8734
23.8017
23.684
23.5069
23.2511
22.8903
22.3925
21.738
21.0237
23.9074
23.8735
23.8018
23.6841
23.5069
23.2512
22.8903
22.3926
21.7381
21.0238
23.9075
23.8736
23.8019
23.6841
23.507
23.2513
22.8904
22.3927
21.7381
21.0239
23.9076
23.8737
23.802
23.6843
23.5072
23.2514
22.8905
22.3928
21.7383
21.024
18.9862
18.9492
18.8705
18.74
18.5404
18.2445
17.8077
17.1498
16.0988
14.1858
18.9861
18.949
18.8704
18.7399
18.5403
18.2444
17.8076
17.1497
16.0987
14.1858
18.986
18.949
18.8703
18.7398
18.5402
18.2443
17.8075
17.1496
16.0987
14.1857
18.9859
18.9489
18.8703
18.7397
18.5402
18.2443
17.8075
17.1496
16.0986
14.1857
18.9859
18.9489
18.8702
18.7397
18.5402
18.2443
17.8075
17.1496
16.0986
14.1857
18.9859
18.9489
18.8702
18.7397
18.5402
18.2443
17.8075
17.1496
16.0986
14.1857
18.9859
18.9489
18.8703
18.7398
18.5402
18.2443
17.8075
17.1496
16.0987
14.1857
18.986
18.949
18.8703
18.7398
18.5403
18.2444
17.8076
17.1497
16.0987
14.1858
18.9861
18.9491
18.8704
18.7399
18.5404
18.2445
17.8077
17.1498
16.0988
14.1858
18.9861
18.9492
18.8705
18.74
18.5405
18.2446
17.8078
17.1499
16.0989
14.1859
14.8639
14.8259
14.7451
14.6106
14.4046
14.0986
13.6479
12.9798
11.9737
10.4449
14.8638
14.8258
14.745
14.6105
14.4045
14.0985
13.6478
12.9797
11.9737
10.4448
14.8637
14.8258
14.7449
14.6105
14.4044
14.0985
13.6477
12.9796
11.9736
10.4448
14.8637
14.8257
14.7449
14.6104
14.4044
14.0984
13.6477
12.9796
11.9736
10.4448
14.8637
14.8257
14.7448
14.6104
14.4044
14.0984
13.6477
12.9796
11.9736
10.4448
14.8637
14.8257
14.7449
14.6104
14.4044
14.0984
13.6477
12.9796
11.9736
10.4448
14.8637
14.8257
14.7449
14.6104
14.4044
14.0984
13.6477
12.9796
11.9736
10.4448
14.8638
14.8258
14.7449
14.6105
14.4045
14.0985
13.6478
12.9797
11.9736
10.4448
14.8638
14.8259
14.745
14.6106
14.4046
14.0986
13.6479
12.9798
11.9737
10.4449
14.8639
14.826
14.7451
14.6107
14.4047
14.0987
13.648
12.9799
11.9738
10.445
11.4706
11.4339
11.3559
11.2269
11.031
10.7445
10.3337
9.75296
8.94889
7.88834
11.4705
11.4338
11.3558
11.2268
11.0309
10.7444
10.3336
9.75289
8.94882
7.88828
11.4704
11.4337
11.3557
11.2267
11.0309
10.7444
10.3335
9.75285
8.94878
7.88824
11.4704
11.4337
11.3557
11.2267
11.0308
10.7443
10.3335
9.75282
8.94875
7.88821
11.4704
11.4337
11.3557
11.2267
11.0308
10.7443
10.3335
9.75281
8.94874
7.8882
11.4704
11.4337
11.3557
11.2267
11.0308
10.7443
10.3335
9.75282
8.94875
7.88821
11.4704
11.4337
11.3557
11.2267
11.0308
10.7444
10.3335
9.75284
8.94878
7.88823
11.4705
11.4337
11.3558
11.2268
11.0309
10.7444
10.3336
9.75289
8.94882
7.88827
11.4705
11.4338
11.3558
11.2269
11.031
10.7445
10.3337
9.75296
8.94889
7.88833
11.4706
11.4339
11.3559
11.227
11.0311
10.7446
10.3338
9.75305
8.94897
7.88841
8.72529
8.69171
8.62081
8.5047
8.33109
8.08311
7.73972
7.27862
6.68549
5.97678
8.72521
8.69164
8.62074
8.50463
8.33103
8.08305
7.73966
7.27856
6.68544
5.97673
8.72516
8.69159
8.62069
8.50458
8.33098
8.083
7.73961
7.27852
6.6854
5.97669
8.72513
8.69156
8.62066
8.50455
8.33095
8.08297
7.73959
7.2785
6.68537
5.97666
8.72512
8.69155
8.62065
8.50454
8.33094
8.08296
7.73958
7.27849
6.68537
5.97666
8.72512
8.69155
8.62066
8.50455
8.33095
8.08297
7.73959
7.2785
6.68537
5.97666
8.72514
8.69158
8.62068
8.50457
8.33097
8.083
7.73961
7.27852
6.6854
5.97669
8.72518
8.69162
8.62072
8.50461
8.33102
8.08304
7.73966
7.27857
6.68544
5.97672
8.72524
8.69167
8.62079
8.50468
8.33108
8.0831
7.73972
7.27862
6.68549
5.97678
8.7253
8.69175
8.62087
8.50476
8.33116
8.08319
7.7398
7.2787
6.68557
5.97685
6.5421
6.51294
6.4518
6.35292
6.20782
6.00592
5.73619
5.3908
4.97277
4.5084
6.54204
6.51288
6.45174
6.35286
6.20776
6.00587
5.73613
5.39076
4.97272
4.50836
6.542
6.51284
6.4517
6.35282
6.20772
6.00583
5.7361
5.39072
4.97269
4.50832
6.54197
6.51281
6.45168
6.35279
6.2077
6.00581
5.73608
5.3907
4.97267
4.5083
6.54196
6.5128
6.45167
6.35279
6.20769
6.0058
5.73607
5.39069
4.97266
4.5083
6.54196
6.51281
6.45167
6.35279
6.2077
6.00581
5.73608
5.3907
4.97267
4.5083
6.54198
6.51283
6.45169
6.35281
6.20772
6.00583
5.7361
5.39072
4.97269
4.50832
6.54202
6.51286
6.45173
6.35285
6.20776
6.00587
5.73614
5.39076
4.97272
4.50835
6.54206
6.51291
6.45178
6.35291
6.20781
6.00593
5.73619
5.39081
4.97277
4.5084
6.54212
6.51298
6.45185
6.35298
6.20788
6.00599
5.73626
5.39087
4.97284
4.50846
4.83517
4.81098
4.76068
4.68043
4.56499
4.4086
4.20678
3.9594
3.67547
3.37902
4.83512
4.81094
4.76064
4.68039
4.56495
4.40856
4.20674
3.95936
3.67543
3.37898
4.83508
4.8109
4.7606
4.68036
4.56491
4.40853
4.20671
3.95933
3.6754
3.37895
4.83506
4.81088
4.76058
4.68034
4.56489
4.40851
4.20669
3.95932
3.67538
3.37894
4.83506
4.81087
4.76057
4.68033
4.56489
4.40851
4.20669
3.95931
3.67538
3.37893
4.83506
4.81088
4.76058
4.68033
4.5649
4.40851
4.2067
3.95932
3.67539
3.37894
4.83508
4.8109
4.7606
4.68035
4.56491
4.40853
4.20672
3.95934
3.6754
3.37895
4.83511
4.81093
4.76063
4.68039
4.56495
4.40856
4.20675
3.95937
3.67543
3.37898
4.83514
4.81097
4.76067
4.68043
4.56499
4.40861
4.20679
3.95941
3.67547
3.37902
4.83519
4.81102
4.76073
4.68049
4.56505
4.40867
4.20685
3.95946
3.67553
3.37907
3.52276
3.50352
3.46384
3.40143
3.31345
3.19745
3.05288
2.88329
2.6991
2.51983
3.52272
3.50348
3.4638
3.40139
3.31341
3.19742
3.05285
2.88326
2.69907
2.51979
3.52269
3.50346
3.46378
3.40137
3.31339
3.19739
3.05282
2.88323
2.69905
2.51977
3.52268
3.50344
3.46376
3.40135
3.31337
3.19738
3.05281
2.88322
2.69903
2.51976
3.52267
3.50343
3.46375
3.40134
3.31337
3.19738
3.0528
2.88322
2.69903
2.51975
3.52267
3.50344
3.46376
3.40135
3.31338
3.19738
3.05281
2.88322
2.69904
2.51976
3.52269
3.50345
3.46377
3.40137
3.31339
3.1974
3.05283
2.88324
2.69905
2.51977
3.52271
3.50348
3.4638
3.40139
3.31342
3.19742
3.05285
2.88326
2.69907
2.5198
3.52275
3.50351
3.46384
3.40143
3.31346
3.19746
3.05289
2.8833
2.69911
2.51983
3.52278
3.50356
3.46389
3.40148
3.3135
3.19751
3.05293
2.88334
2.69915
2.51987
2.5302
2.51546
2.48533
2.43862
2.37415
2.29155
2.1925
2.08241
1.97206
1.87824
2.53017
2.51543
2.4853
2.43859
2.37412
2.29152
2.19248
2.08238
1.97204
1.87821
2.53015
2.51541
2.48528
2.43857
2.3741
2.2915
2.19246
2.08236
1.97202
1.87819
2.53013
2.5154
2.48527
2.43856
2.37409
2.29149
2.19245
2.08235
1.97201
1.87818
2.53013
2.51539
2.48526
2.43855
2.37409
2.29149
2.19244
2.08235
1.972
1.87818
2.53013
2.5154
2.48527
2.43856
2.37409
2.29149
2.19245
2.08235
1.97201
1.87818
2.53015
2.51541
2.48528
2.43857
2.3741
2.29151
2.19246
2.08237
1.97202
1.8782
2.53016
2.51543
2.4853
2.43859
2.37413
2.29153
2.19248
2.08239
1.97204
1.87822
2.53019
2.51546
2.48533
2.43862
2.37416
2.29156
2.19251
2.08241
1.97207
1.87824
2.53022
2.5155
2.48537
2.43866
2.3742
2.2916
2.19255
2.08245
1.97211
1.87828
1.79164
1.78073
1.75863
1.72488
1.67932
1.62276
1.55809
1.49171
1.43559
1.4089
1.79161
1.78071
1.75861
1.72486
1.67929
1.62274
1.55807
1.49169
1.43557
1.40887
1.7916
1.78069
1.75859
1.72484
1.67928
1.62273
1.55805
1.49168
1.43556
1.40886
1.79159
1.78068
1.75858
1.72483
1.67927
1.62272
1.55804
1.49167
1.43555
1.40885
1.79158
1.78068
1.75858
1.72483
1.67927
1.62272
1.55804
1.49167
1.43555
1.40885
1.79159
1.78068
1.75858
1.72483
1.67927
1.62272
1.55804
1.49167
1.43555
1.40885
1.7916
1.78069
1.75859
1.72484
1.67928
1.62273
1.55806
1.49168
1.43556
1.40886
1.79161
1.78071
1.75861
1.72486
1.6793
1.62275
1.55807
1.4917
1.43558
1.40888
1.79163
1.78073
1.75863
1.72489
1.67932
1.62277
1.5581
1.49172
1.4356
1.4089
1.79166
1.78076
1.75866
1.72492
1.67935
1.6228
1.55813
1.49175
1.43563
1.40893
1.25081
1.24299
1.22728
1.20365
1.17246
1.13503
1.09449
1.0573
1.03633
1.06029
1.25079
1.24298
1.22727
1.20363
1.17245
1.13501
1.09448
1.05728
1.03632
1.06027
1.25078
1.24296
1.22725
1.20362
1.17243
1.135
1.09447
1.05727
1.03631
1.06026
1.25077
1.24296
1.22725
1.20362
1.17243
1.135
1.09446
1.05727
1.0363
1.06025
1.25077
1.24295
1.22724
1.20361
1.17243
1.13499
1.09446
1.05727
1.0363
1.06025
1.25078
1.24296
1.22725
1.20362
1.17243
1.135
1.09446
1.05727
1.0363
1.06025
1.25078
1.24296
1.22726
1.20363
1.17244
1.13501
1.09447
1.05728
1.03631
1.06026
1.2508
1.24298
1.22727
1.20364
1.17245
1.13502
1.09448
1.05729
1.03632
1.06028
1.25081
1.24299
1.22729
1.20366
1.17247
1.13504
1.0945
1.05731
1.03634
1.0603
1.25083
1.24302
1.22731
1.20368
1.17249
1.13506
1.09453
1.05733
1.03636
1.06032
9.78909
7.44695
6.34893
6.20146
6.9424
8.65918
11.585
16.1524
23.1427
34.0841
9.78902
7.44688
6.34885
6.20138
6.94231
8.65907
11.5849
16.1523
23.1425
34.0838
9.78897
7.44683
6.3488
6.20132
6.94224
8.65899
11.5848
16.1522
23.1423
34.0836
9.78894
7.4468
6.34876
6.20128
6.94219
8.65893
11.5847
16.1521
23.1422
34.0835
9.78892
7.44679
6.34875
6.20126
6.94217
8.6589
11.5847
16.152
23.1422
34.0835
9.78893
7.44679
6.34875
6.20126
6.94217
8.6589
11.5847
16.152
23.1422
34.0835
9.78896
7.44681
6.34877
6.20128
6.94219
8.65892
11.5847
16.1521
23.1422
34.0835
9.789
7.44685
6.3488
6.20131
6.94222
8.65896
11.5848
16.1521
23.1423
34.0836
9.78906
7.4469
6.34885
6.20136
6.94227
8.65902
11.5848
16.1522
23.1424
34.0838
9.78913
7.44696
6.34891
6.20142
6.94233
8.65909
11.5849
16.1523
23.1425
34.0839
8.27551
6.71095
5.90657
5.85405
6.5751
8.16415
10.8053
14.7875
20.5034
28.3312
8.27545
6.71088
5.9065
5.85398
6.57501
8.16404
10.8052
14.7874
20.5032
28.331
8.2754
6.71083
5.90645
5.85392
6.57494
8.16396
10.8051
14.7872
20.5031
28.3308
8.27537
6.7108
5.90642
5.85388
6.5749
8.16391
10.805
14.7872
20.503
28.3307
8.27536
6.71079
5.9064
5.85386
6.57488
8.16388
10.805
14.7871
20.503
28.3307
8.27536
6.71079
5.9064
5.85386
6.57487
8.16388
10.805
14.7871
20.503
28.3307
8.27539
6.71081
5.90642
5.85388
6.57489
8.1639
10.805
14.7871
20.503
28.3307
8.27543
6.71085
5.90646
5.85392
6.57493
8.16395
10.8051
14.7872
20.5031
28.3308
8.27549
6.71091
5.90651
5.85397
6.57499
8.16401
10.8052
14.7873
20.5032
28.331
8.27557
6.71098
5.90658
5.85404
6.57506
8.1641
10.8053
14.7874
20.5033
28.3312
6.66208
5.69922
5.20152
5.25578
5.92795
7.30573
9.51231
12.6973
16.9859
22.3297
6.66202
5.69916
5.20146
5.25571
5.92787
7.30563
9.51219
12.6971
16.9858
22.3295
6.66198
5.69912
5.20141
5.25566
5.92781
7.30556
9.51211
12.697
16.9856
22.3294
6.66195
5.69909
5.20138
5.25562
5.92777
7.30551
9.51205
12.6969
16.9855
22.3293
6.66194
5.69908
5.20137
5.25561
5.92775
7.30549
9.51202
12.6969
16.9855
22.3292
6.66195
5.69908
5.20137
5.25561
5.92775
7.30549
9.51202
12.6969
16.9855
22.3292
6.66197
5.6991
5.20139
5.25563
5.92777
7.30551
9.51204
12.6969
16.9855
22.3293
6.66201
5.69914
5.20142
5.25566
5.9278
7.30555
9.51209
12.697
16.9856
22.3294
6.66207
5.69919
5.20147
5.25571
5.92786
7.30562
9.51217
12.6971
16.9857
22.3295
6.66214
5.69926
5.20154
5.25579
5.92794
7.30571
9.51228
12.6972
16.9859
22.3297
5.24147
4.66829
4.39989
4.52868
5.12568
6.26087
8.00766
10.4277
13.5271
17.1726
5.24142
4.66824
4.39983
4.52862
5.12561
6.26079
8.00756
10.4276
13.5269
17.1724
5.24138
4.6682
4.39979
4.52857
5.12555
6.26072
8.00748
10.4275
13.5268
17.1723
5.24136
4.66817
4.39976
4.52854
5.12552
6.26068
8.00743
10.4274
13.5267
17.1722
5.24135
4.66816
4.39975
4.52853
5.1255
6.26066
8.0074
10.4274
13.5267
17.1722
5.24136
4.66817
4.39975
4.52853
5.1255
6.26066
8.0074
10.4274
13.5267
17.1722
5.24138
4.66819
4.39977
4.52855
5.12552
6.26068
8.00743
10.4274
13.5267
17.1722
5.24141
4.66822
4.3998
4.52858
5.12556
6.26072
8.00748
10.4275
13.5268
17.1723
5.24146
4.66827
4.39985
4.52863
5.12561
6.26078
8.00755
10.4276
13.5269
17.1724
5.24153
4.66833
4.39991
4.5287
5.12568
6.26087
8.00765
10.4277
13.5271
17.1726
4.06155
3.73223
3.61345
3.77853
4.28621
5.18649
6.51914
8.30091
10.4992
12.9961
4.0615
3.73219
3.61339
3.77847
4.28614
5.18641
6.51905
8.3008
10.4991
12.9959
4.06147
3.73215
3.61336
3.77843
4.2861
5.18636
6.51898
8.30072
10.499
12.9958
4.06145
3.73213
3.61333
3.7784
4.28606
5.18632
6.51894
8.30067
10.499
12.9958
4.06144
3.73212
3.61332
3.77839
4.28605
5.1863
6.51892
8.30065
10.4989
12.9957
4.06145
3.73213
3.61333
3.77839
4.28605
5.1863
6.51892
8.30065
10.4989
12.9957
4.06146
3.73214
3.61334
3.77841
4.28607
5.18632
6.51894
8.30068
10.499
12.9958
4.0615
3.73217
3.61337
3.77844
4.2861
5.18636
6.51899
8.30073
10.499
12.9959
4.06154
3.73222
3.61342
3.77848
4.28615
5.18642
6.51905
8.30081
10.4991
12.996
4.0616
3.73227
3.61347
3.77854
4.28622
5.1865
6.51914
8.30092
10.4992
12.9961
3.11317
2.9364
2.9085
3.08194
3.49982
4.19507
5.1869
6.4721
8.01202
9.72028
3.11313
2.93636
2.90845
3.08189
3.49976
4.195
5.18682
6.47201
8.01192
9.72017
3.1131
2.93633
2.90842
3.08186
3.49972
4.19496
5.18676
6.47195
8.01184
9.72008
3.11309
2.93631
2.9084
3.08183
3.49969
4.19493
5.18673
6.47191
8.01179
9.72003
3.11308
2.93631
2.90839
3.08182
3.49968
4.19491
5.18671
6.47189
8.01177
9.72
3.11309
2.93631
2.90839
3.08183
3.49968
4.19491
5.18671
6.47189
8.01178
9.72001
3.1131
2.93633
2.90841
3.08184
3.4997
4.19493
5.18673
6.47192
8.01181
9.72005
3.11313
2.93635
2.90844
3.08187
3.49973
4.19497
5.18677
6.47196
8.01186
9.72011
3.11317
2.93639
2.90848
3.08191
3.49978
4.19502
5.18683
6.47203
8.01195
9.72021
3.11322
2.93644
2.90853
3.08196
3.49984
4.19509
5.18691
6.47213
8.01205
9.72033
2.3739
2.29498
2.32098
2.4881
2.82632
3.35607
4.08439
4.99962
6.06602
7.22259
2.37387
2.29494
2.32094
2.48806
2.82627
3.35601
4.08432
4.99955
6.06594
7.22249
2.37384
2.29492
2.32091
2.48803
2.82623
3.35597
4.08428
4.99949
6.06587
7.22243
2.37383
2.2949
2.32089
2.48801
2.82621
3.35594
4.08425
4.99946
6.06583
7.22238
2.37382
2.2949
2.32089
2.488
2.8262
3.35593
4.08423
4.99944
6.06582
7.22236
2.37383
2.2949
2.32089
2.488
2.8262
3.35594
4.08424
4.99945
6.06582
7.22237
2.37384
2.29491
2.3209
2.48802
2.82622
3.35595
4.08426
4.99947
6.06585
7.2224
2.37387
2.29494
2.32093
2.48804
2.82625
3.35598
4.08429
4.99951
6.0659
7.22246
2.3739
2.29497
2.32096
2.48808
2.82629
3.35603
4.08435
4.99957
6.06597
7.22254
2.37394
2.29501
2.321
2.48813
2.82634
3.35609
4.08441
4.99965
6.06606
7.22264
1.8201
1.809
1.86874
2.0256
2.30101
2.7073
3.24408
3.89484
4.62505
5.38618
1.82007
1.80897
1.86871
2.02556
2.30097
2.70725
3.24402
3.89478
4.62498
5.3861
1.82005
1.80895
1.86869
2.02554
2.30094
2.70721
3.24398
3.89473
4.62493
5.38605
1.82004
1.80893
1.86867
2.02552
2.30092
2.70719
3.24396
3.89471
4.6249
5.38601
1.82004
1.80893
1.86867
2.02551
2.30091
2.70718
3.24395
3.89469
4.62488
5.386
1.82004
1.80893
1.86867
2.02552
2.30091
2.70718
3.24395
3.8947
4.62489
5.386
1.82006
1.80894
1.86868
2.02553
2.30093
2.7072
3.24397
3.89472
4.62491
5.38603
1.82007
1.80896
1.8687
2.02555
2.30095
2.70723
3.244
3.89476
4.62495
5.38608
1.8201
1.80899
1.86873
2.02558
2.30099
2.70727
3.24405
3.89481
4.62501
5.38615
1.82014
1.80903
1.86877
2.02562
2.30103
2.70732
3.24411
3.89488
4.62509
5.38624
1.43309
1.47676
1.56074
1.71003
1.94292
2.26741
2.67831
3.15412
3.65444
4.12261
1.43307
1.47673
1.56072
1.71
1.94289
2.26737
2.67826
3.15407
3.65438
4.12255
1.43305
1.47672
1.5607
1.70998
1.94286
2.26734
2.67823
3.15403
3.65434
4.1225
1.43304
1.4767
1.56068
1.70996
1.94285
2.26732
2.67821
3.15401
3.65432
4.12248
1.43304
1.4767
1.56068
1.70996
1.94284
2.26731
2.6782
3.154
3.65431
4.12247
1.43304
1.4767
1.56068
1.70996
1.94284
2.26732
2.67821
3.154
3.65431
4.12247
1.43306
1.47672
1.56069
1.70997
1.94286
2.26733
2.67822
3.15402
3.65433
4.1225
1.43307
1.47673
1.56071
1.70999
1.94288
2.26736
2.67825
3.15405
3.65437
4.12254
1.4331
1.47676
1.56074
1.71002
1.94291
2.26739
2.67829
3.1541
3.65442
4.12259
1.43313
1.47679
1.56077
1.71006
1.94295
2.26744
2.67835
3.15416
3.65449
4.12267
1.21037
1.30238
1.40349
1.54998
1.76174
2.04539
2.39305
2.77832
3.14849
3.40706
1.21036
1.30236
1.40347
1.54995
1.76171
2.04536
2.39302
2.77828
3.14845
3.40701
1.21034
1.30235
1.40345
1.54993
1.76169
2.04534
2.39299
2.77825
3.14841
3.40698
1.21033
1.30234
1.40344
1.54992
1.76167
2.04532
2.39297
2.77823
3.14839
3.40695
1.21033
1.30234
1.40344
1.54992
1.76167
2.04531
2.39296
2.77822
3.14838
3.40694
1.21034
1.30234
1.40344
1.54992
1.76167
2.04532
2.39297
2.77823
3.14839
3.40695
1.21035
1.30235
1.40345
1.54993
1.76168
2.04533
2.39298
2.77824
3.14841
3.40697
1.21036
1.30237
1.40347
1.54995
1.76171
2.04536
2.39301
2.77827
3.14844
3.40701
1.21038
1.30239
1.4035
1.54998
1.76174
2.04539
2.39305
2.77832
3.14849
3.40706
1.21041
1.30242
1.40353
1.55001
1.76177
2.04543
2.3931
2.77837
3.14855
3.40713
52.4211
60.4502
64.8642
67.6155
69.4298
70.6496
71.4663
71.9972
72.3155
72.4646
52.4207
60.4499
64.8638
67.6151
69.4294
70.6492
71.4659
71.9967
72.315
72.4643
52.4205
60.4496
64.8635
67.6148
69.4291
70.6489
71.4656
71.9964
72.3148
72.464
52.4203
60.4494
64.8634
67.6146
69.4289
70.6487
71.4654
71.9963
72.3146
72.4639
52.4202
60.4493
64.8633
67.6145
69.4289
70.6486
71.4653
71.9962
72.3146
72.4638
52.4202
60.4494
64.8633
67.6145
69.4289
70.6487
71.4654
71.9962
72.3146
72.4639
52.4203
60.4494
64.8634
67.6147
69.429
70.6488
71.4655
71.9964
72.3148
72.464
52.4205
60.4496
64.8636
67.6149
69.4292
70.649
71.4657
71.9966
72.315
72.4643
52.4207
60.4498
64.8639
67.6151
69.4295
70.6493
71.4661
71.997
72.3153
72.4646
52.4209
60.4501
64.8642
67.6155
69.4299
70.6497
71.4664
71.9973
72.3157
72.465
37.9106
44.5322
48.8422
51.6757
53.5681
54.8405
55.6897
56.2398
56.5687
56.7226
37.9103
44.5319
48.8418
51.6753
53.5677
54.8401
55.6893
56.2394
56.5684
56.7223
37.9101
44.5317
48.8416
51.6751
53.5675
54.8398
55.6891
56.2392
56.5682
56.7221
37.91
44.5315
48.8414
51.6749
53.5673
54.8397
55.6889
56.239
56.568
56.722
37.91
44.5315
48.8414
51.6748
53.5673
54.8396
55.6889
56.239
56.568
56.722
37.91
44.5315
48.8414
51.6749
53.5673
54.8396
55.6889
56.239
56.568
56.722
37.91
44.5316
48.8415
51.675
53.5674
54.8398
55.689
56.2391
56.5681
56.7221
37.9101
44.5317
48.8416
51.6751
53.5676
54.84
55.6892
56.2394
56.5684
56.7224
37.9103
44.5319
48.8419
51.6754
53.5678
54.8403
55.6895
56.2397
56.5687
56.7227
37.9106
44.5322
48.8422
51.6757
53.5682
54.8406
55.6899
56.24
56.5691
56.7231
28.1568
32.9503
36.4899
38.9989
40.7473
41.951
42.7651
43.2965
43.6156
43.7652
28.1566
32.9501
36.4896
38.9986
40.747
41.9507
42.7648
43.2962
43.6153
43.765
28.1564
32.9499
36.4894
38.9984
40.7468
41.9505
42.7646
43.296
43.6151
43.7648
28.1563
32.9498
36.4893
38.9983
40.7467
41.9504
42.7645
43.2959
43.615
43.7647
28.1562
32.9497
36.4892
38.9982
40.7466
41.9503
42.7644
43.2958
43.615
43.7647
28.1562
32.9497
36.4892
38.9983
40.7467
41.9503
42.7645
43.2959
43.615
43.7647
28.1563
32.9498
36.4893
38.9984
40.7468
41.9504
42.7646
43.296
43.6152
43.7649
28.1564
32.9499
36.4894
38.9985
40.7469
41.9506
42.7648
43.2962
43.6154
43.7651
28.1566
32.9501
36.4897
38.9987
40.7472
41.9509
42.765
43.2965
43.6156
43.7654
28.1568
32.9504
36.4899
38.9991
40.7475
41.9512
42.7654
43.2968
43.616
43.7657
20.9845
24.3619
27.0635
29.1026
30.5884
31.6433
32.3717
32.8538
33.1458
33.2834
20.9843
24.3617
27.0633
29.1023
30.5882
31.643
32.3714
32.8535
33.1456
33.2832
20.9842
24.3615
27.0631
29.1022
30.588
31.6428
32.3713
32.8533
33.1454
33.2831
20.9841
24.3614
27.063
29.1021
30.5879
31.6427
32.3712
32.8532
33.1453
33.283
20.984
24.3614
27.0629
29.102
30.5879
31.6427
32.3711
32.8532
33.1453
33.2829
20.984
24.3614
27.063
29.102
30.5879
31.6427
32.3711
32.8532
33.1453
33.283
20.9841
24.3615
27.063
29.1021
30.588
31.6428
32.3712
32.8533
33.1454
33.2831
20.9842
24.3616
27.0632
29.1023
30.5881
31.643
32.3714
32.8535
33.1456
33.2833
20.9843
24.3617
27.0633
29.1025
30.5883
31.6432
32.3717
32.8537
33.1458
33.2835
20.9845
24.362
27.0636
29.1027
30.5886
31.6435
32.372
32.8541
33.1462
33.2838
15.5655
17.9255
19.911
21.4826
22.6735
23.545
24.1607
24.5749
24.8287
24.949
15.5654
17.9253
19.9108
21.4824
22.6733
23.5448
24.1605
24.5747
24.8285
24.9488
15.5653
17.9252
19.9107
21.4822
22.6731
23.5447
24.1604
24.5746
24.8283
24.9487
15.5652
17.9251
19.9106
21.4821
22.673
23.5446
24.1603
24.5745
24.8283
24.9486
15.5652
17.925
19.9106
21.4821
22.673
23.5445
24.1603
24.5745
24.8282
24.9486
15.5652
17.925
19.9106
21.4821
22.673
23.5446
24.1603
24.5745
24.8283
24.9486
15.5652
17.9251
19.9106
21.4822
22.6731
23.5446
24.1604
24.5746
24.8284
24.9487
15.5653
17.9252
19.9107
21.4823
22.6732
23.5448
24.1605
24.5747
24.8285
24.9489
15.5654
17.9253
19.9109
21.4825
22.6734
23.545
24.1607
24.5749
24.8287
24.9491
15.5656
17.9255
19.9111
21.4827
22.6737
23.5452
24.161
24.5752
24.829
24.9494
11.4644
13.0984
14.52
15.6863
16.5996
17.2868
17.7832
18.1229
18.3334
18.434
11.4643
13.0983
14.5198
15.6861
16.5994
17.2866
17.783
18.1227
18.3333
18.4338
11.4642
13.0982
14.5197
15.686
16.5993
17.2865
17.7829
18.1226
18.3331
18.4337
11.4642
13.0981
14.5197
15.6859
16.5992
17.2864
17.7828
18.1225
18.3331
18.4337
11.4641
13.0981
14.5196
15.6859
16.5992
17.2864
17.7828
18.1225
18.3331
18.4337
11.4641
13.0981
14.5196
15.6859
16.5992
17.2864
17.7828
18.1225
18.3331
18.4337
11.4642
13.0982
14.5197
15.686
16.5993
17.2865
17.7829
18.1226
18.3332
18.4338
11.4643
13.0982
14.5198
15.6861
16.5994
17.2866
17.783
18.1227
18.3333
18.4339
11.4644
13.0984
14.5199
15.6862
16.5996
17.2868
17.7832
18.1229
18.3335
18.4341
11.4645
13.0985
14.5201
15.6864
16.5998
17.287
17.7834
18.1231
18.3337
18.4343
8.39231
9.50226
10.493
11.3303
12.0051
12.5259
12.9102
13.1776
13.3453
13.426
8.3922
9.50215
10.4929
11.3302
12.005
12.5258
12.9101
13.1774
13.3452
13.4259
8.39213
9.50207
10.4928
11.3301
12.0049
12.5257
12.91
13.1773
13.3451
13.4258
8.39208
9.50202
10.4927
11.33
12.0048
12.5256
12.9099
13.1773
13.345
13.4258
8.39206
9.502
10.4927
11.33
12.0048
12.5256
12.9099
13.1773
13.345
13.4258
8.39207
9.50201
10.4927
11.33
12.0048
12.5256
12.9099
13.1773
13.3451
13.4258
8.3921
9.50205
10.4928
11.3301
12.0049
12.5257
12.91
13.1774
13.3451
13.4259
8.39217
9.50212
10.4929
11.3302
12.005
12.5258
12.9101
13.1775
13.3452
13.426
8.39226
9.50222
10.493
11.3303
12.0051
12.5259
12.9102
13.1776
13.3454
13.4261
8.39238
9.50236
10.4931
11.3304
12.0053
12.5261
12.9104
13.1778
13.3456
13.4263
6.13298
6.85383
7.51774
8.09724
8.57815
8.95881
9.24561
9.44845
9.57725
9.63965
6.1329
6.85374
7.51765
8.09714
8.57805
8.9587
9.2455
9.44834
9.57715
9.63958