/*--------------------------------*- C++ -*----------------------------------*\
  =========                 |
  \\      /  F ield         | OpenFOAM: The Open Source CFD Toolbox
   \\    /   O peration     | Website:  https://openfoam.org
    \\  /    A nd           | Version:  6
     \\/     M anipulation  |
\*---------------------------------------------------------------------------*/
FoamFile
{
    version     2.0;
    format      ascii;
    class       volScalarField;
    location    "1800";
    object      p;
}
// * * * * * * * * * * * * * * * * * * * * * * * * * * * * * * * * * * * * * //

dimensions      [0 2 -2 0 0 0 0];

internalField   nonuniform List<scalar> 
7000
(
0.0409666
0.0387597
0.0382677
0.0380808
0.0380231
0.0381003
0.0383055
0.0386191
0.0392118
0.0415491
0.0386932
0.0364828
0.0359904
0.0358014
0.0357408
0.0358147
0.0360167
0.0363273
0.0369164
0.0392522
0.0381459
0.0359352
0.0354415
0.0352508
0.0351881
0.0352596
0.0354591
0.0357675
0.0363551
0.0386871
0.0378839
0.0356714
0.0351761
0.0349833
0.0349178
0.0349861
0.0351824
0.0354879
0.0360731
0.0384016
0.037734
0.035519
0.0350218
0.0348263
0.0347574
0.0348218
0.0350141
0.0353161
0.0358986
0.0382228
0.0377103
0.0354927
0.0349933
0.0347949
0.0347222
0.0347825
0.0349706
0.0352688
0.0358482
0.0381676
0.0378153
0.0355952
0.0350938
0.0348925
0.0348162
0.0348723
0.0350563
0.035351
0.0359273
0.0382418
0.03804
0.0358176
0.0353143
0.0351106
0.0350312
0.0350839
0.0352645
0.0355562
0.03613
0.0384406
0.0385596
0.0363344
0.0358299
0.0356243
0.0355426
0.0355927
0.0357707
0.0360603
0.0366322
0.0389403
0.0407995
0.0385738
0.0380665
0.0378583
0.0377736
0.0378205
0.0379952
0.038282
0.0388521
0.0411526
0.0380266
0.0366507
0.0367017
0.0365219
0.0364669
0.0365499
0.036765
0.0370847
0.0371337
0.0386553
0.0365782
0.0351992
0.0352517
0.0350687
0.03501
0.0350889
0.0353001
0.0356166
0.0356598
0.0371773
0.0365767
0.0351992
0.0352498
0.0350652
0.0350044
0.035081
0.0352897
0.035604
0.0356468
0.0371578
0.0363162
0.0349358
0.0349848
0.0347978
0.0347337
0.0348066
0.0350114
0.035322
0.0353624
0.0368691
0.0361627
0.0347792
0.0348263
0.0346361
0.034568
0.0346364
0.0348366
0.0351428
0.0351803
0.036681
0.0361379
0.0347513
0.0347963
0.0346028
0.0345304
0.0345939
0.034789
0.0350906
0.0351248
0.0366186
0.0362441
0.0348546
0.0348976
0.0347007
0.0346242
0.0346829
0.034873
0.03517
0.0352008
0.0366876
0.0364649
0.0350733
0.0351144
0.0349145
0.0348343
0.034889
0.0350748
0.0353681
0.0353961
0.0368763
0.0364416
0.0350451
0.0350861
0.0348842
0.0348018
0.0348538
0.0350369
0.0353277
0.035353
0.0368317
0.0378515
0.0364531
0.036489
0.0362847
0.0361986
0.0362464
0.036425
0.0367112
0.0367356
0.038207
0.0355779
0.0348044
0.0351818
0.035026
0.0350376
0.0351345
0.0353106
0.0356336
0.0353668
0.0363253
0.034718
0.0339443
0.034325
0.0341639
0.034171
0.0342625
0.0344328
0.0347523
0.0344762
0.0354252
0.0350421
0.0342719
0.0346497
0.034487
0.0344917
0.0345805
0.034748
0.0350644
0.0347889
0.035728
0.0347941
0.0340191
0.0343955
0.0342298
0.0342302
0.0343141
0.0344764
0.0347877
0.0345088
0.0354422
0.0346939
0.0339153
0.0342893
0.0341196
0.034115
0.034193
0.0343491
0.0346543
0.0343717
0.0352954
0.0346669
0.0338843
0.034256
0.034082
0.0340718
0.0341435
0.0342926
0.0345911
0.0343041
0.035217
0.0347155
0.0339286
0.0342981
0.0341198
0.0341043
0.0341696
0.0343119
0.0346037
0.0343119
0.0352141
0.034919
0.0341302
0.0344973
0.034315
0.0342948
0.0343546
0.0344909
0.034777
0.0344814
0.0353721
0.0345709
0.0337747
0.0341426
0.0339578
0.0339348
0.0339914
0.034124
0.0344071
0.034107
0.0349967
0.0353828
0.03458
0.0349401
0.0347528
0.0347246
0.0347753
0.0349019
0.035177
0.0348775
0.0357594
0.0343169
0.0337821
0.0341868
0.0340306
0.0341295
0.0342503
0.0343863
0.0347573
0.0344906
0.035277
0.0336773
0.033144
0.0335522
0.0333883
0.0334818
0.0335952
0.0337223
0.0340887
0.033811
0.0345811
0.0340226
0.0334931
0.0338972
0.0337318
0.033822
0.0339319
0.0340553
0.034417
0.0341408
0.0348978
0.0337558
0.0332194
0.033622
0.0334522
0.0335366
0.0336397
0.0337557
0.0341101
0.0338287
0.0345769
0.0337206
0.0331802
0.0335798
0.0334046
0.033482
0.0335769
0.033684
0.0340293
0.0337424
0.0344744
0.0336902
0.0331443
0.0335409
0.0333598
0.0334297
0.0335155
0.0336126
0.0339476
0.0336536
0.0343677
0.0336669
0.0331148
0.0335085
0.0333217
0.0333842
0.0334609
0.0335478
0.0338722
0.0335704
0.034267
0.0338821
0.0333278
0.033718
0.0335258
0.0335817
0.0336505
0.0337283
0.0340434
0.0337353
0.0344127
0.0335116
0.0329484
0.0333401
0.0331442
0.0331965
0.0332608
0.0333332
0.0336435
0.0333284
0.0340002
0.034092
0.0335179
0.0339004
0.0337014
0.0337457
0.0338016
0.0338658
0.034164
0.0338464
0.0345085
0.0334431
0.0330292
0.0333876
0.0332338
0.0334043
0.0335601
0.0336936
0.0341325
0.0339617
0.0347254
0.0329027
0.0324912
0.032852
0.032688
0.0328519
0.0329975
0.0331184
0.0335508
0.0333666
0.0341094
0.0331913
0.0327827
0.0331382
0.0329723
0.0331316
0.0332724
0.0333883
0.0338141
0.0336316
0.0343588
0.0329016
0.0324839
0.0328375
0.0326654
0.0328167
0.0329478
0.0330532
0.0334682
0.0332779
0.0339912
0.0329071
0.0324845
0.032834
0.0326544
0.0327961
0.0329156
0.0330077
0.0334089
0.0332099
0.0338964
0.032872
0.0324423
0.0327876
0.0325999
0.032731
0.0328373
0.0329143
0.0332991
0.0330883
0.0337444
0.0327994
0.0323608
0.0327025
0.0325067
0.0326273
0.0327204
0.0327819
0.0331496
0.0329252
0.0335509
0.0330281
0.0325865
0.0329232
0.0327202
0.0328313
0.0329126
0.0329601
0.0333123
0.0330765
0.0336695
0.0327117
0.0322606
0.0325992
0.0323909
0.032497
0.0325716
0.0326107
0.0329548
0.0327072
0.033288
0.033181
0.0327151
0.0330436
0.032831
0.0329255
0.0329883
0.033016
0.0333419
0.0330891
0.0336516
0.03247
0.0321802
0.0325231
0.0323999
0.0326308
0.0328333
0.0330002
0.0335095
0.033428
0.0342257
0.0320286
0.0317421
0.032086
0.0319501
0.0321722
0.0323614
0.0325113
0.0330108
0.0329157
0.0336853
0.0322887
0.0320038
0.0323414
0.0322029
0.032419
0.0326015
0.0327447
0.0332349
0.0331424
0.0338929
0.0319984
0.0317022
0.0320373
0.03189
0.0320953
0.0322644
0.0323924
0.0328672
0.0327636
0.0334914
0.0320248
0.0317224
0.0320519
0.0318947
0.0320866
0.032239
0.0323476
0.0328011
0.0326835
0.0333678
0.0319843
0.0316725
0.0319965
0.0318281
0.0320051
0.0321383
0.0322239
0.0326513
0.032513
0.033144
0.0318808
0.0315572
0.0318764
0.0316969
0.031859
0.031973
0.0320348
0.0324342
0.0322711
0.0328463
0.0320994
0.0317712
0.0320837
0.0318944
0.0320432
0.0321398
0.0321803
0.0325538
0.0323696
0.0328878
0.0318086
0.0314701
0.0317844
0.0315881
0.0317301
0.0318171
0.0318446
0.0322045
0.0320024
0.0324906
0.0321664
0.0318086
0.032112
0.0319093
0.0320357
0.0321065
0.0321178
0.0324527
0.0322363
0.0326982
0.0314137
0.0312428
0.0315857
0.0315123
0.0318014
0.0320634
0.0322944
0.0328907
0.0329263
0.0338512
0.0310631
0.0308965
0.0312388
0.0311501
0.031428
0.0316728
0.0318816
0.0324641
0.0324835
0.0333799
0.0313079
0.0311415
0.0314766
0.0313846
0.0316546
0.0318907
0.0320905
0.0326606
0.032682
0.0335584
0.0310312
0.0308513
0.0311831
0.0310795
0.0313351
0.0315527
0.0317312
0.0322788
0.0322848
0.0331272
0.0310688
0.0308807
0.0312051
0.0310884
0.0313259
0.0315201
0.0316699
0.0321844
0.0321684
0.0329395
0.0310226
0.0308223
0.0311394
0.0310076
0.0312245
0.0313911
0.0315061
0.0319783
0.0319263
0.0326012
0.0308977
0.0306824
0.0309932
0.0308463
0.0310425
0.0311811
0.0312597
0.031686
0.0315894
0.032155
0.0310914
0.0308691
0.0311713
0.0310113
0.0311888
0.0313023
0.0313483
0.0317323
0.0315958
0.0320554
0.0308126
0.0305793
0.0308829
0.0307137
0.0308819
0.0309815
0.0310083
0.0313698
0.0312029
0.0316087
0.0310667
0.0308086
0.0311002
0.0309215
0.0310695
0.0311477
0.0311523
0.0314802
0.0312961
0.0316585
0.0303682
0.0302915
0.0306256
0.0306053
0.03095
0.0312824
0.0316065
0.0323368
0.0325626
0.033806
0.0300821
0.0300101
0.0303415
0.0303037
0.0306343
0.0309452
0.0312415
0.0319526
0.0321647
0.0333985
0.0303025
0.0302288
0.0305526
0.0305104
0.0308312
0.0311312
0.0314158
0.03211
0.0323275
0.0335437
0.03004
0.0299507
0.0302701
0.030213
0.0305152
0.0307908
0.0310458
0.0317082
0.0319077
0.0330786
0.0300811
0.0299811
0.0302912
0.0302171
0.0304953
0.0307385
0.0309522
0.0315646
0.0317282
0.0327911
0.0300293
0.0299138
0.0302146
0.0301207
0.0303709
0.030575
0.0307365
0.0312808
0.0313777
0.0322585
0.0298912
0.0297572
0.0300499
0.029936
0.030158
0.030322
0.0304283
0.0308969
0.0309051
0.0315591
0.0300596
0.0299155
0.0301974
0.0300664
0.0302629
0.0303914
0.0304493
0.0308483
0.0307785
0.031221
0.0298027
0.0296468
0.0299294
0.0297869
0.0299714
0.0300811
0.0301115
0.0304746
0.0303596
0.0306877
0.0299792
0.0297937
0.0300636
0.0299081
0.0300679
0.030151
0.030154
0.0304793
0.0303382
0.0306221
0.0293319
0.0293272
0.0296447
0.029676
0.0300713
0.0304804
0.0309202
0.0318339
0.0323607
0.0342088
0.0290884
0.0290885
0.0294013
0.0294131
0.0297916
0.0301756
0.0305828
0.03147
0.0319792
0.0338692
0.0292782
0.0292745
0.0295795
0.0295861
0.0299532
0.0303241
0.0307175
0.031583
0.0320923
0.0339671
0.0290284
0.029007
0.0293065
0.0292948
0.0296389
0.0299788
0.0303336
0.0311554
0.0316432
0.0334827
0.0290669
0.029032
0.0293202
0.0292872
0.0296004
0.0298972
0.0301946
0.03094
0.0313739
0.0330633
0.0290103
0.0289563
0.029233
0.0291746
0.0294509
0.0296938
0.029915
0.0305505
0.0308639
0.0322203
0.0288666
0.0287905
0.0290571
0.028973
0.0292118
0.0293988
0.0295381
0.03005
0.0302024
0.031089
0.0290129
0.028923
0.0291766
0.0290706
0.0292758
0.029414
0.0294826
0.0298866
0.029899
0.0303482
0.0287852
0.0286832
0.0289368
0.0288171
0.0290072
0.0291209
0.0291524
0.0295056
0.0294443
0.0296965
0.0289077
0.028771
0.0290113
0.028875
0.0290365
0.0291202
0.0291228
0.0294396
0.0293818
0.0296253
0.0282609
0.0283144
0.0286136
0.0286923
0.0291272
0.029606
0.0301593
0.0312845
0.0323346
0.035165
0.0280496
0.0281078
0.0284006
0.0284588
0.028875
0.0293265
0.0298452
0.0309367
0.0319586
0.0350695
0.0282114
0.028264
0.0285491
0.0286016
0.0290055
0.0294432
0.0299473
0.0310101
0.0320134
0.0351087
0.0279758
0.0280089
0.0282876
0.0283185
0.0286954
0.0290961
0.0295539
0.030562
0.0315528
0.0347443
0.028009
0.0280255
0.0282912
0.0282964
0.0286352
0.028981
0.0293633
0.0302645
0.0311757
0.0342788
0.0279488
0.0279426
0.0281947
0.0281686
0.0284604
0.0287346
0.0290099
0.0297447
0.0304331
0.032908
0.0278053
0.0277735
0.0280134
0.0279554
0.0281994
0.0283985
0.0285567
0.0291015
0.0294804
0.030906
0.02793
0.0278806
0.0281055
0.0280206
0.0282223
0.0283574
0.0284186
0.0288012
0.0289139
0.0293626
0.0277313
0.0276694
0.0278936
0.0277934
0.0279776
0.0280842
0.0281008
0.0284139
0.0284313
0.0285163
0.0278122
0.0277118
0.027923
0.0278036
0.0279581
0.0280362
0.0280327
0.0283383
0.0284349
0.0286443
0.0271278
0.0272285
0.0275077
0.0276256
0.0280815
0.0286051
0.029236
0.0304555
0.0318664
0.0361701
0.026944
0.02705
0.0273219
0.02742
0.0278579
0.0283554
0.0289543
0.0301488
0.0314393
0.0358073
0.0270834
0.0271824
0.0274477
0.0275404
0.0279669
0.0284521
0.0290401
0.0302125
0.031428
0.0356107
0.0268647
0.026943
0.0272015
0.0272705
0.0276676
0.0281129
0.0286539
0.029774
0.0310166
0.035529
0.0268927
0.0269517
0.0271961
0.0272356
0.0275884
0.0279687
0.0284196
0.0294066
0.030541
0.034968
0.0268312
0.0268642
0.0270931
0.0270957
0.0273919
0.0276823
0.0279933
0.0287526
0.0295565
0.0329307
0.0266922
0.0266965
0.0269115
0.0268764
0.0271146
0.0273099
0.0274636
0.0279553
0.0283386
0.0300282
0.0267967
0.0267796
0.0269781
0.0269115
0.0270993
0.0272164
0.0272448
0.0275191
0.0275863
0.027792
0.026624
0.0265949
0.0267928
0.02671
0.0268793
0.0269665
0.0269482
0.0271526
0.0271733
0.027022
0.0266733
0.0266018
0.0267875
0.0266841
0.026826
0.0268936
0.0268809
0.0271341
0.0273955
0.0279406
0.0259287
0.0260648
0.0263192
0.0264619
0.0269091
0.0274198
0.0280122
0.0290212
0.0296409
0.0331025
0.0257699
0.0259127
0.0261602
0.026286
0.0267195
0.0272104
0.0277742
0.028764
0.0290772
0.0311544
0.0258915
0.0260266
0.0262693
0.0263912
0.0268168
0.0273011
0.0278644
0.0288605
0.0291678
0.0309479
0.0256916
0.0258058
0.026042
0.0261397
0.0265365
0.0269823
0.0275075
0.0284731
0.0288293
0.0311049
0.0257159
0.0258088
0.0260307
0.0260967
0.0264452
0.0268191
0.0272426
0.0280534
0.0282451
0.0300946
0.0256558
0.0257202
0.0259257
0.0259505
0.026235
0.0265048
0.0267611
0.0273021
0.0271773
0.0276306
0.0255252
0.0255587
0.0257495
0.0257321
0.0259512
0.0261117
0.0261845
0.0264245
0.0260309
0.0250294
0.0256119
0.0256208
0.0257945
0.0257424
0.0259061
0.025982
0.0259265
0.0259571
0.0254866
0.0238723
0.0254644
0.0254619
0.0256353
0.0255675
0.0257145
0.0257661
0.0256859
0.0256935
0.025381
0.0243908
0.025489
0.0254423
0.0256058
0.0255184
0.0256445
0.0256943
0.025667
0.0258092
0.0259541
0.0267588
0.0246609
0.0248194
0.025042
0.0251923
0.0256009
0.026036
0.0264719
0.0271452
0.0266285
0.027546
0.0245254
0.0246934
0.0249111
0.0250503
0.0254545
0.0258881
0.0263158
0.0270276
0.0265302
0.0261437
0.0246329
0.0247934
0.0250088
0.0251473
0.0255509
0.0259933
0.0264515
0.0272644
0.0271384
0.0277079
0.0244533
0.0245939
0.0248043
0.0249205
0.0252997
0.0257118
0.0261507
0.026969
0.0268962
0.0280115
0.0244765
0.0245951
0.0247923
0.0248767
0.0252075
0.0255453
0.0258801
0.0265219
0.0263018
0.0270628
0.0244211
0.02451
0.0246914
0.0247327
0.0249964
0.0252243
0.0253816
0.0257247
0.025285
0.024621
0.0243031
0.0243603
0.0245275
0.0245249
0.0247209
0.0248362
0.0248088
0.0248311
0.0242478
0.0222632
0.0243767
0.0244073
0.0245581
0.0245199
0.0246603
0.0246936
0.0245545
0.0243779
0.0237267
0.0211916
0.0242543
0.0242755
0.0244275
0.0243759
0.0245034
0.0245191
0.0243781
0.024202
0.0235821
0.0215518
0.024264
0.0242398
0.0243851
0.0243165
0.0244317
0.0244621
0.0244144
0.0244341
0.0241607
0.0240267
0.0233274
0.0234975
0.0236841
0.0238324
0.0241952
0.0245584
0.0248555
0.0253946
0.0245192
0.0233208
0.0232152
0.0233985
0.023584
0.0237299
0.0241041
0.0245002
0.0248557
0.0255502
0.0252411
0.0242273
0.0233118
0.0234886
0.0236752
0.0238251
0.0242094
0.024638
0.0250764
0.0259758
0.0262421
0.0268959
0.0231539
0.0233131
0.0234972
0.0236288
0.0239965
0.024406
0.0248399
0.0257565
0.0260106
0.0268858
0.023179
0.0233169
0.0234902
0.0235918
0.0239137
0.0242477
0.0245698
0.0252659
0.0252174
0.0253118
0.0231319
0.0232406
0.0233998
0.0234591
0.0237145
0.0239366
0.0240775
0.0244126
0.0241175
0.0228119
0.0230303
0.0231083
0.0232553
0.023272
0.0234615
0.0235724
0.0235382
0.0235243
0.0232167
0.0211643
0.0230946
0.0231457
0.0232785
0.0232608
0.0233973
0.0234282
0.0232896
0.0230827
0.0227727
0.0205244
0.0229976
0.0230415
0.023177
0.0231485
0.0232749
0.0232854
0.0231338
0.0229189
0.022456
0.0202471
0.0229984
0.0229981
0.0231311
0.0230886
0.0232092
0.0232378
0.0231814
0.0231762
0.0227605
0.0219925
0.0219259
0.0220966
0.0222454
0.0223876
0.0227135
0.0230502
0.0233065
0.023914
0.023566
0.0222765
0.0218368
0.0220258
0.0221777
0.0223278
0.0226824
0.0230902
0.0234829
0.0243355
0.0247825
0.0251144
0.0219256
0.0221094
0.0222659
0.0224245
0.0227993
0.0232621
0.0237813
0.0248933
0.0260036
0.0287235
0.0217905
0.0219603
0.0221177
0.022263
0.0226297
0.0230856
0.0236099
0.0247578
0.0259192
0.0287878
0.0218209
0.0219716
0.0221214
0.02224
0.0225645
0.0229401
0.0233263
0.0241727
0.0247545
0.0256119
0.0217856
0.0219096
0.0220486
0.022128
0.0223895
0.0226478
0.0228385
0.0232272
0.0232333
0.0219664
0.021704
0.0218005
0.0219312
0.0219727
0.0221751
0.0223267
0.0223615
0.0223714
0.0222855
0.0203624
0.0217643
0.0218353
0.0219555
0.0219669
0.0221241
0.0222036
0.022156
0.022007
0.0220674
0.0204575
0.0216922
0.0217601
0.0218855
0.0218896
0.0220401
0.0220965
0.022016
0.0218573
0.0217861
0.019802
0.0216926
0.0217184
0.0218461
0.0218395
0.0219897
0.0220616
0.0220486
0.0221059
0.0218893
0.0206431
0.0204646
0.0206258
0.0207364
0.0208702
0.021166
0.0215136
0.0218157
0.0225654
0.0230716
0.0231491
0.0203989
0.0205832
0.0207005
0.0208508
0.021187
0.0216293
0.0221121
0.0231452
0.0243844
0.0270365
0.0204817
0.0206625
0.020787
0.0209489
0.0213117
0.0218241
0.0224713
0.0238463
0.025964
0.0332314
0.0203703
0.0205414
0.0206706
0.0208247
0.0211888
0.0217114
0.0224005
0.0238609
0.0262854
0.03482
0.0204086
0.0205642
0.0206901
0.0208216
0.0211477
0.0215848
0.0221054
0.0231391
0.0246799
0.0293075
0.0203881
0.0205216
0.0206412
0.0207391
0.0210085
0.0213213
0.0216154
0.0220714
0.022507
0.022662
0.0203294
0.0204413
0.0205582
0.0206266
0.0208511
0.0210669
0.0212181
0.0212661
0.0213218
0.0197741
0.0203894
0.0204797
0.0205919
0.0206382
0.0208337
0.0209975
0.0210989
0.0210367
0.0212909
0.0200301
0.0203417
0.0204333
0.0205535
0.0205974
0.0207933
0.0209403
0.0209968
0.0209304
0.0211979
0.0191882
0.0203459
0.0204002
0.0205282
0.0205662
0.0207686
0.0209326
0.0210267
0.021189
0.0212553
0.0193125
0.0189466
0.0190845
0.0191533
0.0192667
0.0195177
0.019866
0.020219
0.021051
0.022105
0.0230815
0.018903
0.0190681
0.0191443
0.0192781
0.0195694
0.020009
0.0205448
0.0216083
0.0230564
0.0272647
0.0189809
0.0191435
0.0192278
0.0193738
0.0196915
0.0202034
0.0209408
0.022416
0.0249049
0.0370735
0.0188931
0.019051
0.0191431
0.0192872
0.0196156
0.0201568
0.021
0.0226459
0.0256838
0.0413585
0.0189413
0.0190886
0.0191826
0.0193093
0.0196063
0.0200601
0.0207101
0.0218516
0.0236895
0.0335923
0.0189379
0.0190699
0.0191639
0.0192656
0.0195191
0.0198511
0.0202381
0.0207335
0.0211507
0.0230761
0.0189043
0.0190234
0.0191229
0.0192084
0.0194416
0.0197041
0.0199697
0.0200796
0.0201758
0.0188175
0.0189683
0.0190725
0.0191753
0.019252
0.0194829
0.0197339
0.020006
0.0200808
0.0205513
0.019287
0.0189436
0.0190554
0.0191703
0.0192521
0.0194955
0.0197503
0.0199912
0.0200598
0.020813
0.0187448
0.0189581
0.0190388
0.0191681
0.0192512
0.0195127
0.0198013
0.0200673
0.0203805
0.0211128
0.0187354
0.0173858
0.0174839
0.0175032
0.0175733
0.0177394
0.0180228
0.0183438
0.0190338
0.020255
0.0217771
0.0173622
0.0174896
0.0175139
0.0176017
0.0177931
0.0181301
0.0185656
0.0193142
0.0201726
0.0246292
0.0174353
0.0175606
0.0175922
0.0176895
0.0179002
0.0182884
0.0189122
0.0200818
0.0214734
0.0352906
0.0173701
0.0174961
0.017538
0.0176398
0.017871
0.0182986
0.0190972
0.0205578
0.0222682
0.0415368
0.0174293
0.0175508
0.0176003
0.0176932
0.0179067
0.0182584
0.0188909
0.0199184
0.0203036
0.0328049
0.017444
0.0175595
0.0176175
0.0176995
0.0178962
0.0181636
0.018564
0.019069
0.0187239
0.0210475
0.0174366
0.0175506
0.0176248
0.0177103
0.0179264
0.0181961
0.0185723
0.018855
0.0192315
0.0183103
0.0175065
0.0176151
0.0177031
0.0177978
0.0180494
0.0183817
0.0188701
0.0192457
0.0206463
0.0207222
0.0175027
0.0176251
0.0177289
0.0178369
0.0181152
0.0184835
0.0189818
0.0193345
0.0213626
0.0211457
0.0175289
0.0176288
0.017754
0.0178721
0.0181822
0.018608
0.0191389
0.0197263
0.0218745
0.021663
0.0157942
0.0158351
0.0157957
0.0157944
0.0158257
0.0159529
0.0161542
0.0164724
0.0177778
0.0236437
0.0157874
0.0158572
0.0158178
0.0158248
0.015853
0.0159608
0.0161282
0.0162706
0.0162133
0.0226233
0.0158555
0.0159226
0.0158879
0.0158981
0.0159293
0.01603
0.0162689
0.0166749
0.0155602
0.0278263
0.015811
0.015884
0.0158608
0.01588
0.0159375
0.0160585
0.0164567
0.0171936
0.0153039
0.0320026
0.0158808
0.0159567
0.0159467
0.0159681
0.0160308
0.0161062
0.0163901
0.0169745
0.0142
0.0250271
0.0159133
0.0159941
0.0160029
0.0160335
0.0161232
0.0162113
0.0164103
0.0168398
0.0154927
0.0188547
0.0159308
0.0160238
0.0160612
0.016121
0.0162831
0.0164989
0.0169155
0.0174071
0.0186146
0.0230888
0.0160079
0.0161064
0.0161689
0.0162596
0.0164992
0.0168727
0.0175986
0.0183158
0.0212422
0.0296463
0.0160208
0.0161394
0.0162203
0.0163313
0.0166067
0.0170425
0.0178485
0.0184805
0.0221979
0.0318775
0.016061
0.0161651
0.0162728
0.0164019
0.016718
0.0172283
0.0180779
0.0188757
0.0227719
0.0322331
0.0141952
0.0141654
0.014063
0.0139688
0.0138284
0.0136967
0.0137222
0.0137778
0.0134183
0.0257098
0.0142022
0.014199
0.01409
0.0139911
0.0138146
0.0135842
0.0134037
0.0130621
0.0107827
0.0218899
0.0142644
0.0142576
0.01415
0.0140447
0.0138491
0.0135363
0.0131907
0.012769
0.00758737
0.0156523
0.0142379
0.0142413
0.014145
0.0140487
0.0138797
0.0135401
0.0131726
0.0130238
0.00543903
0.010397
0.0143164
0.0143304
0.0142523
0.0141707
0.0140388
0.0137084
0.0132981
0.0135052
0.00667944
0.00997127
0.0143641
0.014395
0.0143459
0.0142979
0.0142485
0.0140784
0.0138884
0.0144461
0.012282
0.0191854
0.0144031
0.0144598
0.014451
0.0144596
0.0145354
0.0146347
0.0150293
0.0159129
0.0177994
0.0345049
0.0144855
0.0145583
0.0145839
0.0146433
0.0148271
0.0151542
0.0160844
0.0172621
0.0205092
0.0437873
0.01451
0.0146059
0.0146487
0.0147301
0.0149444
0.0153232
0.0163867
0.0174133
0.0206156
0.0442121
0.0145608
0.0146495
0.0147208
0.0148228
0.0150741
0.0155103
0.01658
0.0176164
0.0202451
0.0405772
0.0356231
0.0366511
0.0354799
0.0313617
0.0273331
0.0255556
0.0257559
0.0266839
0.0277926
0.0278942
0.0355435
0.0373798
0.0361241
0.0314854
0.0269023
0.0245214
0.0245005
0.0257727
0.0277299
0.0292189
0.0358875
0.037127
0.0346612
0.0300679
0.025704
0.0233361
0.0233111
0.0245974
0.0265692
0.0277742
0.0357375
0.0364093
0.0345846
0.0307433
0.0262835
0.0231993
0.022377
0.0231801
0.0249414
0.0255885
0.0349786
0.0353638
0.0344133
0.031523
0.0269016
0.0230408
0.0212317
0.0212141
0.0227571
0.0234153
0.0325803
0.0329436
0.0324525
0.0303714
0.0260178
0.0220326
0.0197629
0.0191989
0.0205836
0.0213893
0.0290242
0.0292566
0.0287703
0.0268942
0.0229002
0.0193612
0.0174559
0.0171777
0.018705
0.0195103
0.0267491
0.0263872
0.0256382
0.0235063
0.019712
0.0168441
0.0157957
0.0161069
0.0176058
0.0178104
0.0267089
0.0263108
0.0248973
0.0222942
0.0189015
0.016586
0.0159233
0.0162082
0.0172814
0.0166881
0.0278673
0.0279608
0.0259327
0.0227558
0.0195435
0.0173329
0.0164642
0.0163614
0.0170272
0.0160323
0.0321061
0.0327355
0.030821
0.0265413
0.0230957
0.0222165
0.023527
0.0257343
0.0280976
0.0299564
0.031406
0.0321916
0.030138
0.0262814
0.0228687
0.021321
0.0217865
0.0237084
0.026756
0.0294045
0.0328668
0.0324709
0.0301348
0.026789
0.023213
0.021061
0.0210749
0.0227121
0.025404
0.0278032
0.0324398
0.0323036
0.0302732
0.0269692
0.023131
0.0205853
0.020022
0.0210684
0.0233323
0.0253054
0.0309748
0.0313714
0.0299955
0.0269547
0.0228478
0.0200981
0.0191251
0.019491
0.0212043
0.0228008
0.0279526
0.0287613
0.027883
0.0252165
0.0211422
0.0185796
0.0175397
0.017539
0.0189908
0.0205125
0.0240084
0.0249027
0.0241174
0.0216066
0.0177816
0.0156135
0.0149596
0.0153268
0.0170642
0.0187635
0.021909
0.022259
0.0213866
0.0188088
0.0152287
0.0133651
0.0132618
0.0143138
0.0163629
0.0181943
0.0234394
0.0225663
0.021243
0.0186563
0.0154564
0.013745
0.0137263
0.0148944
0.0166962
0.0184621
0.0265939
0.025346
0.0233436
0.0205899
0.0175734
0.0155529
0.0150032
0.0156225
0.0169071
0.0186598
0.0275371
0.0273922
0.024711
0.0211815
0.0185431
0.01801
0.0198617
0.0230855
0.0265747
0.0285838
0.0276276
0.0260738
0.0227854
0.0199812
0.0178152
0.0174007
0.0187557
0.0211671
0.0244962
0.0268138
0.0301633
0.0267402
0.0247587
0.0223633
0.0194677
0.0181062
0.0186505
0.0204303
0.0230595
0.024918
0.0296134
0.0276206
0.0254276
0.0224784
0.0190982
0.0172108
0.0174061
0.0188329
0.0209835
0.0222622
0.0278723
0.0271079
0.0250022
0.0215183
0.0177828
0.015883
0.0159661
0.0172308
0.019122
0.0199401
0.0249338
0.0248038
0.0230958
0.01947
0.015445
0.0137538
0.0139357
0.0152062
0.017025
0.0178502
0.0216752
0.0215637
0.0204404
0.0169417
0.0129116
0.0114996
0.0119179
0.0133804
0.0153587
0.0163475
0.0194582
0.0200299
0.0194128
0.0162748
0.0124124
0.0109004
0.0112231
0.0127747
0.0149915
0.0163173
0.0206499
0.0207907
0.0203312
0.0178656
0.0145926
0.0127283
0.012254
0.0134205
0.0155587
0.0173709
0.0242019
0.0231876
0.0222321
0.0202108
0.0171599
0.0146938
0.0134079
0.0139554
0.015732
0.0175858
0.0242266
0.0219905
0.0188721
0.0160677
0.0137043
0.0133797
0.0156069
0.0192063
0.0229616
0.0244573
0.0247483
0.0199309
0.0161132
0.0136172
0.0117569
0.0122307
0.0146377
0.0175949
0.0209112
0.0225083
0.0256661
0.0219778
0.0195329
0.0166584
0.0136548
0.0131126
0.0147895
0.0171546
0.0197954
0.0208676
0.0257856
0.023745
0.0210717
0.0174606
0.0138678
0.0125037
0.0137088
0.0158407
0.0179838
0.0184066
0.0242943
0.0234827
0.0205521
0.0160368
0.0120035
0.0107179
0.0119566
0.0141205
0.0162043
0.0161795
0.0217519
0.0217061
0.0191518
0.0140977
0.00939721
0.00821981
0.00943574
0.0116839
0.0139834
0.0141565
0.0195388
0.019519
0.0179469
0.0130949
0.00801643
0.00639975
0.00715928
0.00961899
0.0122976
0.0128198
0.0183105
0.0189934
0.0183546
0.0144136
0.00971281
0.00740903
0.0071934
0.00934721
0.0121023
0.0129958
0.0193401
0.0202042
0.0203059
0.0175694
0.0139647
0.01142
0.00998776
0.0107308
0.0128811
0.0141858
0.0225841
0.0220519
0.0220163
0.0203207
0.0169978
0.0141589
0.0120386
0.0116723
0.0129627
0.013784
0.0234953
0.0188541
0.0154731
0.0115878
0.00807459
0.00779266
0.0108197
0.015016
0.018953
0.0201937
0.0231321
0.0156271
0.0124645
0.00875457
0.00582516
0.00667309
0.0101331
0.013814
0.017225
0.0184622
0.0228896
0.0192734
0.0154311
0.0105403
0.00697465
0.00717435
0.0102662
0.0135858
0.0165124
0.017204
0.0234002
0.0217246
0.0175578
0.0120185
0.00790965
0.00732601
0.00989786
0.012903
0.0152219
0.0150596
0.0219655
0.0215003
0.0173094
0.0110814
0.00658584
0.00619971
0.00882999
0.0116901
0.0137144
0.0129138
0.0197542
0.0200001
0.0166603
0.00975488
0.00456716
0.00439156
0.0067694
0.00928727
0.0112426
0.0108141
0.0179968
0.0185594
0.0167463
0.0103253
0.0043971
0.00325777
0.00453022
0.0066858
0.00897544
0.00918035
0.017472
0.0184172
0.0178582
0.0132317
0.00723804
0.00463483
0.00412225
0.00567974
0.00833962
0.00899879
0.0183664
0.019415
0.019861
0.0169388
0.0121761
0.0088513
0.0068089
0.00737394
0.00937755
0.0101837
0.0212298
0.0208574
0.0213515
0.0195575
0.015806
0.0127061
0.0102747
0.00938027
0.0100398
0.00991952
0.0241933
0.0187206
0.0152869
0.00889497
0.00383216
0.00339722
0.00694576
0.0119122
0.0161152
0.0170353
0.0218058
0.0146485
0.0122954
0.00574196
0.00179261
0.00262533
0.00671052
0.0111047
0.0147302
0.0157263
0.0229421
0.0183153
0.0129553
0.00571167
0.00213374
0.00283228
0.00678397
0.0109492
0.0142375
0.0147015
0.0246223
0.0214182
0.0150667
0.00733414
0.0029535
0.0031285
0.00672844
0.0106052
0.0133068
0.0126904
0.0223433
0.0211033
0.0153991
0.0073282
0.00247999
0.00287277
0.00657603
0.0101553
0.0122875
0.0107931
0.0191136
0.0191188
0.0153778
0.00694237
0.00164318
0.00223063
0.00559883
0.0083775
0.0100767
0.00887483
0.0170046
0.0178668
0.0163271
0.00888813
0.00274847
0.00226924
0.00430749
0.0059138
0.00741214
0.00688833
0.0165289
0.0177827
0.0178437
0.0129537
0.006249
0.00407987
0.00399783
0.0045614
0.0060174
0.00591721
0.0169755
0.0183507
0.0194937
0.0168034
0.0109498
0.00752435
0.00571344
0.00537693
0.00670908
0.00674292
0.0192395
0.0193061
0.020491
0.0189671
0.014669
0.0113697
0.00889559
0.00777762
0.00798598
0.0071785
0.0232952
0.0191625
0.0164755
0.00863301
0.00272848
0.00257274
0.00624919
0.0115309
0.0154722
0.0155038
0.0195776
0.0160035
0.013759
0.00526408
0.000801355
0.00159868
0.00594863
0.0107445
0.014378
0.0147542
0.0235764
0.0188334
0.0124212
0.00358669
0.000791289
0.0016672
0.00584863
0.0104745
0.0138235
0.0137766
0.0271641
0.0221835
0.0142032
0.00492608
0.00131194
0.00175041
0.00549344
0.00987827
0.0127843
0.011621
0.0233901
0.0211908
0.0150915
0.00589362
0.0012987
0.00164769
0.00539317
0.00965747
0.0119015
0.00980212
0.0178322
0.0178998
0.0152768
0.00676378
0.00139588
0.00182684
0.00537908
0.00869155
0.010189
0.00811754
0.0147084
0.0164564
0.0164176
0.00980321
0.00345522
0.00300182
0.0055561
0.00676285
0.00760403
0.00604997
0.0146442
0.0165326
0.018205
0.0144571
0.00758399
0.00581312
0.00615635
0.00531097
0.00554306
0.00445247
0.0150175
0.0169604
0.0195644
0.0180515
0.0120008
0.00879624
0.00722121
0.00532852
0.00519284
0.00449625
0.0169946
0.0178161
0.0202759
0.0197213
0.0152462
0.0120398
0.00965287
0.00739816
0.00642893
0.00544152
0.0199387
0.0186556
0.0185837
0.0129585
0.00584972
0.00504464
0.00868904
0.0140456
0.0177305
0.0170423
0.0158479
0.0165916
0.0170079
0.00992544
0.00359962
0.00378843
0.00807408
0.0131515
0.017126
0.0171225
0.0215124
0.0192928
0.0152477
0.00681344
0.00261365
0.00345248
0.00765391
0.0125735
0.0162789
0.0160943
0.0271401
0.0226357
0.0164324
0.00712046
0.00250596
0.00313547
0.00686178
0.0115054
0.0147343
0.0137053
0.0219137
0.0203627
0.017297
0.00859781
0.0027857
0.00300542
0.00672669
0.0110665
0.01326
0.0108203
0.0146286
0.0157188
0.0172575
0.0106332
0.00393062
0.00363814
0.00728153
0.0103129
0.0109559
0.00772822
0.0117033
0.0145516
0.0178568
0.0146893
0.00710153
0.00581274
0.00804232
0.00850329
0.00800486
0.00516695
0.0133681
0.015386
0.0194122
0.0192643
0.0120135
0.00909617
0.00855534
0.00613235
0.00523852
0.00342389
0.0145399
0.0162946
0.0207251
0.0221599
0.0165749
0.0121163
0.00872558
0.00483343
0.0037107
0.00229533
0.0172873
0.0176754
0.0215585
0.0235542
0.0194614
0.0151125
0.0106322
0.00559548
0.00383083
0.00218092
0.0206017
0.0191606
0.0215142
0.0203669
0.0136225
0.0106106
0.0128969
0.0171406
0.0208849
0.0201097
0.0142269
0.0172328
0.0213621
0.0185719
0.0111946
0.00967659
0.0129031
0.0170079
0.021114
0.0207507
0.0183015
0.0201399
0.0207786
0.0153451
0.00900442
0.00853388
0.0120834
0.0159545
0.0199756
0.0204857
0.0232663
0.0224568
0.0213757
0.0146542
0.00803385
0.00698893
0.0101273
0.013589
0.0172682
0.0194597
0.0181901
0.0200897
0.0225168
0.0162124
0.00843028
0.00639717
0.00861818
0.0109194
0.0137266
0.018384
0.0129195
0.01671
0.0240237
0.0202244
0.0109403
0.00746583
0.00788993
0.0077358
0.00969652
0.0177262
0.0151577
0.0169854
0.0247085
0.0260468
0.0162304
0.010507
0.00756236
0.00337193
0.00610629
0.0178331
0.0223937
0.0189123
0.0248427
0.0297604
0.0223681
0.0143074
0.00674939
-0.0010904
0.00323394
0.0176893
0.0261408
0.0206144
0.025083
0.0309149
0.0262199
0.0177333
0.0072413
-0.0019964
0.00142665
0.0160632
0.0294372
0.0228833
0.0260884
0.0314453
0.0284456
0.0216747
0.0109938
-0.000230009
0.00182529
0.0152889
0.0358628
0.0227296
0.0220306
0.0221455
0.018457
0.0155155
0.0140593
0.0146563
0.0273542
0.0542795
0.0263598
0.0216292
0.0223028
0.0213109
0.0168061
0.0144977
0.0137025
0.0142568
0.0282425
0.0590016
0.0215068
0.0224926
0.0224032
0.0195779
0.0155179
0.0144255
0.0141937
0.0140291
0.0294012
0.0665739
0.0197268
0.0226539
0.0230724
0.0200429
0.0167501
0.0164702
0.0156774
0.0136106
0.0306285
0.0783949
0.0198196
0.0240105
0.0265837