/*--------------------------------*- C++ -*----------------------------------*\
  =========                 |
  \\      /  F ield         | OpenFOAM: The Open Source CFD Toolbox
   \\    /   O peration     | Website:  https://openfoam.org
    \\  /    A nd           | Version:  6
     \\/     M anipulation  |
\*---------------------------------------------------------------------------*/
FoamFile
{
    version     2.0;
    format      ascii;
    class       volVectorField;
    location    "1800";
    object      U;
}
// * * * * * * * * * * * * * * * * * * * * * * * * * * * * * * * * * * * * * //

dimensions      [0 1 -1 0 0 0 0];

internalField   nonuniform List<vector> 
7000
(
(0.00059257 0.000607974 0.997866)
(0.000744537 0.000609449 0.999401)
(0.000200211 0.000609484 0.998939)
(6.45294e-05 0.000610065 0.998939)
(-7.96414e-07 0.000610813 0.998941)
(-6.47157e-05 0.000611639 0.99894)
(-0.000123736 0.00061246 0.998935)
(-0.000249825 0.000613195 0.998933)
(-0.000795533 0.000614253 0.999407)
(-0.000621282 0.000613909 0.997847)
(0.000594073 0.000773058 0.999415)
(0.000745813 0.000774277 1.00095)
(0.000201049 0.000775038 1.00049)
(6.58551e-05 0.00077602 1.00049)
(8.70659e-07 0.00077738 1.00049)
(-6.29379e-05 0.000778931 1.00049)
(-0.000121966 0.000780527 1.00049)
(-0.000248083 0.000782047 1.00049)
(-0.000794404 0.000783329 1.00096)
(-0.000621549 0.000784325 0.999404)
(0.000594074 0.000230603 0.998946)
(0.000746546 0.000231312 1.00048)
(0.000201948 0.000232189 1.00002)
(6.69918e-05 0.00023329 1.00002)
(2.23e-06 0.000234718 1.00002)
(-6.14728e-05 0.000236366 1.00002)
(-0.000120547 0.000238084 1.00002)
(-0.000246839 0.000239667 1.00002)
(-0.000793099 0.000240986 1.00049)
(-0.000620477 0.000242718 0.998932)
(0.000594596 0.000102977 0.998946)
(0.00074744 0.000104073 1.00048)
(0.000203022 0.000105129 1.00002)
(6.84071e-05 0.000106504 1.00002)
(3.95391e-06 0.000108279 1.00002)
(-5.95844e-05 0.000110326 1.00002)
(-0.000118694 0.000112454 1.00002)
(-0.000245171 0.000114414 1.00002)
(-0.000791338 0.000116091 1.00049)
(-0.000619584 0.000118103 0.998935)
(0.000595235 4.3628e-05 0.998949)
(0.000748627 4.49515e-05 1.00049)
(0.000204348 4.61502e-05 1.00003)
(7.01443e-05 4.77375e-05 1.00003)
(6.05616e-06 4.97725e-05 1.00003)
(-5.72942e-05 5.21042e-05 1.00003)
(-0.000116454 5.45185e-05 1.00002)
(-0.000243157 5.67375e-05 1.00002)
(-0.000789257 5.86648e-05 1.0005)
(-0.000618464 6.09463e-05 0.99894)
(0.000595896 -1.85604e-05 0.998949)
(0.000749904 -1.72266e-05 1.00049)
(0.000205792 -1.60134e-05 1.00003)
(7.20295e-05 -1.43778e-05 1.00003)
(8.32268e-06 -1.22958e-05 1.00003)
(-5.4835e-05 -9.92229e-06 1.00003)
(-0.000114056 -7.47305e-06 1.00003)
(-0.000240996 -5.23064e-06 1.00002)
(-0.000786982 -3.24388e-06 1.0005)
(-0.000617203 -8.4711e-07 0.998942)
(0.000596513 -8.06286e-05 0.998946)
(0.000751139 -7.93479e-05 1.00049)
(0.000207198 -7.82512e-05 1.00002)
(7.386e-05 -7.67484e-05 1.00002)
(1.05103e-05 -7.48476e-05 1.00003)
(-5.24716e-05 -7.2693e-05 1.00003)
(-0.000111762 -7.04831e-05 1.00002)
(-0.000238923 -6.84725e-05 1.00002)
(-0.000784755 -6.66473e-05 1.00049)
(-0.000615936 -6.45261e-05 0.998941)
(0.00059704 -0.000212549 0.998945)
(0.000752268 -0.000211315 1.00049)
(0.000208407 -0.000210436 1.00002)
(7.54287e-05 -0.000209188 1.00002)
(1.23737e-05 -0.000207618 1.00003)
(-5.04731e-05 -0.000205846 1.00003)
(-0.000109838 -0.000204041 1.00002)
(-0.000237177 -0.00020241 1.00002)
(-0.000782948 -0.000200922 1.00049)
(-0.000614878 -0.000199405 0.998943)
(0.000597866 -0.000756408 0.999409)
(0.000753138 -0.000755825 1.00095)
(0.000209315 -0.000754947 1.00049)
(7.66474e-05 -0.000753719 1.00049)
(1.38385e-05 -0.000752261 1.00049)
(-4.88887e-05 -0.000750623 1.00049)
(-0.000108304 -0.000748972 1.00049)
(-0.000235801 -0.000747567 1.00049)
(-0.00078158 -0.000746352 1.00095)
(-0.000614479 -0.000743765 0.999404)
(0.00059728 -0.000599224 0.997869)
(0.000753612 -0.000599759 0.99941)
(0.000210468 -0.000598931 0.998946)
(7.79368e-05 -0.000598341 0.998947)
(1.52836e-05 -0.000597596 0.998951)
(-4.73618e-05 -0.00059674 0.998952)
(-0.000106947 -0.000595865 0.99895)
(-0.000234812 -0.000595089 0.99895)
(-0.000779234 -0.000594851 0.99942)
(-0.000612013 -0.000592322 0.997873)
(0.00143405 0.00148815 0.99433)
(0.0016646 0.00149535 0.999117)
(0.000363323 0.00149332 0.997274)
(0.00017533 0.00149514 0.997257)
(-2.47878e-05 0.00149684 0.997238)
(-0.000229857 0.00149863 0.997228)
(-0.000407615 0.00150029 0.997225)
(-0.000553114 0.00150114 0.997222)
(-0.00186494 0.00150492 0.999155)
(-0.00155213 0.00150075 0.994155)
(0.00144129 0.00175813 0.999216)
(0.00166907 0.00176259 1.00402)
(0.000364866 0.00176273 1.00217)
(0.000178286 0.00176447 1.00216)
(-2.15222e-05 0.00176672 1.00215)
(-0.000226743 0.00176907 1.00214)
(-0.000405024 0.00177124 1.00214)
(-0.00055077 0.00177288 1.00214)
(-0.00186514 0.00177455 1.00408)
(-0.00155654 0.00177503 0.999079)
(0.00143912 0.000459203 0.997326)
(0.0016691 0.000460539 1.00212)
(0.000365788 0.000461472 1.00028)
(0.000179321 0.000462486 1.00026)
(-2.04026e-05 0.000463872 1.00025)
(-0.000225751 0.000465344 1.00024)
(-0.000404381 0.00046667 1.00024)
(-0.000550933 0.00046744 1.00024)
(-0.00186353 0.000467077 1.00217)
(-0.00155277 0.000469998 0.997175)
(0.0014408 0.000300837 0.997316)
(0.00167067 0.000303424 1.00212)
(0.000366787 0.00030449 1.00027)
(0.000180719 0.0003059 1.00026)
(-1.87001e-05 0.00030778 1.00024)
(-0.000224058 0.000309804 1.00023)
(-0.000403096 0.000311634 1.00023)
(-0.000550508 0.000312688 1.00023)
(-0.00186239 0.00031265 1.00216)
(-0.00155206 0.000315908 0.997172)
(0.00144225 0.000120004 0.997306)
(0.00167268 0.000122759 1.00211)
(0.000368199 0.000123987 1.00026)
(0.00018261 0.000125765 1.00025)
(-1.6508e-05 0.000128021 1.00023)
(-0.000221917 0.000130426 1.00023)
(-0.00040152 0.000132595 1.00023)
(-0.000549936 0.000133818 1.00022)
(-0.0018607 0.000134044 1.00215)
(-0.00155036 0.000138453 0.997169)
(0.00144373 -7.86696e-05 0.997305)
(0.00167479 -7.61015e-05 1.00212)
(0.00036979 -7.48948e-05 1.00026)
(0.000184757 -7.2955e-05 1.00025)
(-1.40433e-05 -7.05383e-05 1.00024)
(-0.000219498 -6.79473e-05 1.00023)
(-0.000399722 -6.55939e-05 1.00023)
(-0.000549135 -6.42124e-05 1.00023)
(-0.0018584 -6.35998e-05 1.00215)
(-0.00154817 -5.83931e-05 0.997178)
(0.0014451 -0.000264505 0.997314)
(0.00167679 -0.000262324 1.00213)
(0.000371418 -0.000261241 1.00028)
(0.00018698 -0.000259344 1.00026)
(-1.14946e-05 -0.000257052 1.00025)
(-0.000216975 -0.000254604 1.00024)
(-0.000397792 -0.000252399 1.00024)
(-0.000548072 -0.000251126 1.00024)
(-0.0018557 -0.000250467 1.00216)
(-0.00154576 -0.000245227 0.997197)
(0.00144579 -0.000432656 0.997323)
(0.00167856 -0.000430368 1.00214)
(0.000372902 -0.000429742 1.00029)
(0.000188966 -0.000428276 1.00027)
(-9.28839e-06 -0.00042651 1.00026)
(-0.000214835 -0.000424621 1.00025)
(-0.000396238 -0.000422968 1.00025)
(-0.000547367 -0.000422215 1.00025)
(-0.00185342 -0.000421794 1.00218)
(-0.0015431 -0.00041674 0.997216)
(0.00144956 -0.00173024 0.999189)
(0.00168076 -0.00173066 1.00401)
(0.000373626 -0.0017285 1.00215)
(0.000190239 -0.00172669 1.00214)
(-7.74604e-06 -0.00172445 1.00212)
(-0.000213268 -0.00172198 1.00211)
(-0.000395168 -0.00171973 1.00212)
(-0.000546838 -0.00171822 1.00211)
(-0.00185142 -0.0017165 1.00403)
(-0.00154302 -0.00170627 0.999071)
(0.00144514 -0.00147038 0.994347)
(0.00168086 -0.00147501 0.999164)
(0.000376584 -0.00147125 0.997311)
(0.000193363 -0.00147049 0.9973)
(-3.95457e-06 -0.00146894 0.997288)
(-0.00020924 -0.00146721 0.997286)
(-0.000391399 -0.00146557 0.997292)
(-0.000542633 -0.00146372 0.997296)
(-0.0018411 -0.00146395 0.999211)
(-0.00153226 -0.00145324 0.994279)
(0.00193627 0.00203281 0.990121)
(0.00204897 0.00204773 0.998623)
(0.000318111 0.00204222 0.995409)
(0.000257553 0.00204677 0.995368)
(-6.95147e-05 0.0020503 0.995284)
(-0.000380731 0.00205427 0.995255)
(-0.000670462 0.00205827 0.995282)
(-0.000649354 0.00205981 0.995269)
(-0.00239673 0.0020698 0.998696)
(-0.00214503 0.00206121 0.989646)
(0.00195146 0.00221246 0.99887)
(0.00205872 0.00222212 1.00741)
(0.00032227 0.00222067 1.00418)
(0.000264806 0.00222511 1.00416)
(-6.22242e-05 0.00223015 1.00408)
(-0.000373788 0.00223554 1.00406)
(-0.000665145 0.00224072 1.0041)
(-0.000644269 0.00224452 1.0041)
(-0.00239635 0.00225092 1.00754)
(-0.00215373 0.00225206 0.998489)
(0.00194556 0.000487742 0.995545)
(0.00205698 0.000491584 1.00407)
(0.00032424 0.000493601 1.00085)
(0.000267205 0.000496295 1.00081)
(-5.94668e-05 0.00050003 1.00074)
(-0.000371136 0.000504024 1.00071)
(-0.000662895 0.000507814 1.00075)
(-0.000643616 0.00051093 1.00074)
(-0.00239017 0.000511396 1.00417)
(-0.00214392 0.000517873 0.995131)
(0.00194978 0.000484995 0.995523)
(0.00206103 0.000491621 1.00406)
(0.000326911 0.000494097 1.00083)
(0.000271206 0.00049808 1.0008)
(-5.46085e-05 0.000503306 1.00072)
(-0.000366152 0.000508989 1.0007)
(-0.000658454 0.00051445 1.00073)
(-0.000640949 0.000518803 1.00073)
(-0.00238641 0.000520344 1.00415)
(-0.00214194 0.000528235 0.995124)
(0.00195274 0.000192826 0.995462)
(0.00206552 0.000199169 1.00401)
(0.000330643 0.000202114 1.00078)
(0.000276397 0.000206955 1.00074)
(-4.85897e-05 0.000213029 1.00067)
(-0.000360031 0.000219638 1.00065)
(-0.000653132 0.00022603 1.00068)
(-0.00063785 0.000231033 1.00067)
(-0.00238076 0.000233048 1.00409)
(-0.00213688 0.000244275 0.995083)
(0.00195595 -0.000105069 0.99546)
(0.00207025 -9.92717e-05 1.00402)
(0.000334723 -9.63163e-05 1.00078)
(0.000282118 -9.11841e-05 1.00075)
(-4.19441e-05 -8.48252e-05 1.00067)
(-0.000353185 -7.78093e-05 1.00065)
(-0.000647105 -7.0925e-05 1.00069)
(-0.000634119 -6.54623e-05 1.00068)
(-0.00237376 -6.27649e-05 1.00409)
(-0.00213089 -4.94225e-05 0.995105)
(0.00195914 -0.000406609 0.995519)
(0.00207479 -0.000402296 1.00408)
(0.000338805 -0.000399483 1.00084)
(0.000287906 -0.000394467 1.00081)
(-3.51984e-05 -0.000388456 1.00074)
(-0.000346126 -0.000381813 1.00072)
(-0.000640784 -0.000375246 1.00076)
(-0.000629844 -0.00037012 1.00076)
(-0.00236584 -0.000367192 1.00416)
(-0.0021245 -0.00035273 0.99519)
(0.00196014 -0.000431036 0.99554)
(0.00207835 -0.000426623 1.00411)
(0.000342707 -0.000424851 1.00087)
(0.00029319 -0.000420927 1.00084)
(-2.92405e-05 -0.000416396 1.00077)
(-0.00033994 -0.000411348 1.00075)
(-0.000635378 -0.000406378 1.00079)
(-0.00062622 -0.000402801 1.00079)
(-0.00235784 -0.000400087 1.00418)
(-0.00211665 -0.000389354 0.995237)
(0.00196935 -0.00215231 0.998809)
(0.00208488 -0.00215319 1.00739)
(0.000344695 -0.00214679 1.00414)
(0.000296482 -0.00214293 1.00411)
(-2.5406e-05 -0.00213761 1.00403)
(-0.000335864 -0.00213161 1.00401)
(-0.000631926 -0.00212563 1.00405)
(-0.000623392 -0.00211971 1.00404)
(-0.00235638 -0.00211941 1.00743)
(-0.00211967 -0.002098 0.998479)
(0.00196009 -0.00199348 0.990166)
(0.0020846 -0.00200292 0.998743)
(0.000350163 -0.00199377 0.995505)
(0.000302596 -0.00199251 0.995479)
(-1.70414e-05 -0.00198874 0.995413)
(-0.000326421 -0.00198465 0.995404)
(-0.000621455 -0.00198066 0.995453)
(-0.000615138 -0.00197481 0.995462)
(-0.00233551 -0.00197907 0.998842)
(-0.00209579 -0.00195496 0.989964)
(0.00225404 0.00239998 0.984917)
(0.00218865 0.00242381 0.99755)
(0.000208764 0.002414 0.993101)
(0.000301061 0.00242242 0.993043)
(-0.000158423 0.00242802 0.992876)
(-0.000514319 0.00243493 0.992817)
(-0.000922065 0.00244245 0.992866)
(-0.000702317 0.0024449 0.992816)
(-0.00271416 0.00246245 0.997647)
(-0.00257759 0.00244952 0.983954)
(0.00227864 0.00243002 0.998012)
(0.00220494 0.00244583 1.01071)
(0.000216823 0.00244212 1.00624)
(0.000314548 0.00245028 1.00621)
(-0.000145502 0.0024587 1.00606)
(-0.000501854 0.00246811 1.00602)
(-0.000912835 0.00247758 1.0061)
(-0.000693852 0.00248422 1.00606)
(-0.00271212 0.00249628 1.01092)
(-0.00259014 0.00249945 0.997239)
(0.00226806 0.000459392 0.993365)
(0.00220058 0.000466787 1.00604)
(0.00022016 0.000470251 1.00157)
(0.000318395 0.000475121 1.00153)
(-0.000140776 0.000482046 1.00138)
(-0.000497027 0.000489464 1.00133)
(-0.000908324 0.000496584 1.00139)
(-0.000692641 0.000502977 1.00135)
(-0.00269991 0.000504024 1.00618)
(-0.00257238 0.00051562 0.992531)
(0.00227586 0.000643615 0.993343)
(0.00220806 0.000655841 1.00604)
(0.000225013 0.000659886 1.00157)
(0.000326085 0.000667504 1.00152)
(-0.000131499 0.000677365 1.00137)
(-0.000487407 0.00068816 1.00133)
(-0.00089949 0.000698736 1.00139)
(-0.000686853 0.000707644 1.00135)
(-0.00269244 0.000711472 1.00617)
(-0.00256844 0.000726429 0.992541)
(0.00228041 0.000237661 0.993222)
(0.00221551 0.000248719 1.00594)
(0.000231891 0.000253788 1.00146)
(0.000335833 0.000262891 1.00141)
(-0.000120178 0.000274247 1.00126)
(-0.000475696 0.000286788 1.00122)
(-0.000888917 0.000299246 1.00129)
(-0.000680297 0.000309635 1.00125)
(-0.00268048 0.000314424 1.00606)
(-0.00255779 0.000336585 0.992464)
(0.00228591 -9.46544e-05 0.993219)
(0.00222366 -8.45084e-05 1.00595)
(0.00023934 -7.91807e-05 1.00146)
(0.000346514 -6.96132e-05 1.00142)
(-0.000107648 -5.77427e-05 1.00128)
(-0.000462466 -4.4373e-05 1.00124)
(-0.000876738 -3.0795e-05 1.00131)
(-0.000672116 -1.92124e-05 1.00127)
(-0.00266581 -1.29369e-05 1.00606)
(-0.00254564 1.33337e-05 0.992513)
(0.00229188 -0.000514471 0.993335)
(0.00223183 -0.000507489 1.00608)
(0.000246738 -0.000502122 1.00159)
(0.000357259 -0.000492777 1.00155)
(-9.49245e-05 -0.000481534 1.00141)
(-0.000448741 -0.000468768 1.00137)
(-0.000863755 -0.000455599 1.00145)
(-0.000662496 -0.000444232 1.00141)
(-0.0026496 -0.000437572 1.00619)
(-0.0025333 -0.00040886 0.992687)
(0.00229313 -0.000366742 0.993355)
(0.0022377 -0.000359843 1.00611)
(0.000254106 -0.0003567 1.00161)
(0.000367154 -0.000349272 1.00158)
(-8.35499e-05 -0.00034092 1.00144)
(-0.000436468 -0.000331301 1.0014)
(-0.000852144 -0.000321252 1.00148)
(-0.000654078 -0.000313047 1.00146)
(-0.00263279 -0.000307302 1.00622)
(-0.00251766 -0.000282619 0.992766)
(0.00230906 -0.00233042 0.997895)
(0.00224976 -0.0023312 1.01068)
(0.000257553 -0.00231914 1.00616)
(0.000373336 -0.0023126 1.00612)
(-7.65345e-05 -0.00230269 1.00597)
(-0.000428876 -0.00229157 1.00593)
(-0.000845225 -0.00228011 1.006)
(-0.000648246 -0.0022679 1.00597)
(-0.00262713 -0.00226462 1.01072)
(-0.00251901 -0.00222754 0.997257)
(0.00229481 -0.00233322 0.985006)
(0.00224977 -0.00234759 0.997787)
(0.000266162 -0.00233159 0.993294)
(0.000383353 -0.00232973 0.993266)
(-6.16831e-05 -0.00232245 0.993138)
(-0.00041154 -0.00231488 0.993123)
(-0.000825267 -0.00230755 0.99322)
(-0.000629079 -0.00229624 0.993219)
(-0.00259175 -0.00230012 0.997954)
(-0.00248317 -0.00226335 0.984629)
(0.00248051 0.00268547 0.979233)
(0.002245 0.00271896 0.996196)
(0.000105924 0.00270485 0.990557)
(0.00030746 0.00271824 0.990468)
(-0.000299126 0.00272622 0.990225)
(-0.000653408 0.00273698 0.990121)
(-0.00119321 0.00274947 0.990158)
(-0.000809175 0.00275313 0.99006)
(-0.00300859 0.00277989 0.996312)
(-0.00296101 0.00276296 0.97754)
(0.00251568 0.00257767 0.996947)
(0.00226885 0.00260024 1.01402)
(0.000119101 0.00259458 1.00834)
(0.000329225 0.00260753 1.00829)
(-0.000278639 0.00261996 1.00809)
(-0.000633163 0.00263451 1.00802)
(-0.00117834 0.00264973 1.0081)
(-0.000795313 0.00266002 1.00803)
(-0.00300223 0.00267894 1.01434)
(-0.00297643 0.00268576 0.995593)
(0.00250015 0.000452116 0.990995)
(0.00226199 0.000463927 1.00802)
(0.000124293 0.000469418 1.00236)
(0.000334554 0.000477017 1.0023)
(-0.000271683 0.000488046 1.00207)
(-0.000625811 0.000499865 1.00199)
(-0.00117099 0.000511173 1.00206)
(-0.000793788 0.000522131 1.00197)
(-0.0029834 0.000523685 1.00822)
(-0.00294968 0.000542339 0.989535)
(0.00251254 0.0007883 0.990964)
(0.00227388 0.000807615 1.00803)
(0.000131918 0.000813448 1.00235)
(0.000347155 0.000825915 1.00229)
(-0.000256596 0.000841833 1.00207)
(-0.000610051 0.000859458 1.00199)
(-0.00115621 0.00087693 1.00206)
(-0.000783617 0.000892526 1.00198)
(-0.00297083 0.000899311 1.00822)
(-0.00294287 0.000925083 0.989563)
(0.00251885 0.000259746 0.9908)
(0.00228479 0.000276755 1.0079)
(0.000142884 0.000284451 1.00221)
(0.000362863 0.00029918 1.00215)
(-0.000238236 0.000317564 1.00193)
(-0.000590742 0.000338232 1.00186)
(-0.00113804 0.000359211 1.00193)
(-0.000772283 0.000378027 1.00186)
(-0.00294949 0.000386134 1.00806)
(-0.00292346 0.000425542 0.989482)
(0.00252732 -5.42434e-05 0.990795)
(0.00229736 -3.8351e-05 1.00792)
(0.000154739 -2.99693e-05 1.00222)
(0.000380186 -1.4464e-05 1.00216)
(-0.000217637 4.90209e-06 1.00195)
(-0.000568499 2.71966e-05 1.00189)
(-0.00111661 5.04937e-05 1.00197)
(-0.000757594 7.19158e-05 1.0019)
(-0.00292349 8.25332e-05 1.00808)
(-0.00290178 0.000130374 0.989582)
(0.00253721 -0.000600962 0.990949)
(0.00231049 -0.000590372 1.00811)
(0.000166467 -0.000581527 1.00239)
(0.000397658 -0.000566356 1.00234)
(-0.000196572 -0.000547806 1.00214)
(-0.00054514 -0.000526146 1.00208)
(-0.00109335 -0.000502976 1.00217)
(-0.000740097 -0.000481215 1.00211)
(-0.00289392 -0.000469052 1.00826)
(-0.00287889 -0.000414603 0.989856)
(0.00253891 -0.000318625 0.990974)
(0.00231943 -0.000308277 1.00815)
(0.000178608 -0.000303465 1.00243)
(0.000413969 -0.000291092 1.00238)
(-0.000177268 -0.000277256 1.00218)
(-0.000523552 -0.000260713 1.00213)
(-0.00107158 -0.000242571 1.00222)
(-0.000723291 -0.000226126 1.00217)
(-0.00286066 -0.000212528 1.0083)
(-0.00284917 -0.000170523 0.989999)
(0.00256238 -0.00243195 0.996749)
(0.00233782 -0.00243145 1.01398)
(0.000183988 -0.002413 1.00821)
(0.000424503 -0.00240263 1.00816)
(-0.000165355 -0.002386 1.00794)
(-0.000510313 -0.0023674 1.00788)
(-0.00105851 -0.0023479 1.00796)
(-0.000709439 -0.00232414 1.00789)
(-0.00285053 -0.00231967 1.01401)
(-0.00285174 -0.00225873 0.995691)
(0.00254346 -0.00258542 0.979379)
(0.00233922 -0.00260438 0.996601)
(0.000196834 -0.00258075 0.990889)
(0.000439973 -0.00257785 0.990854)
(-0.000141517 -0.00256544 0.990681)
(-0.000482097 -0.00255292 0.990661)
(-0.00102379 -0.00254095 0.990791)
(-0.000680541 -0.00252034 0.990786)
(-0.00279486 -0.00252877 0.996866)
(-0.00279336 -0.00246807 0.978805)
(0.00263639 0.00291194 0.973464)
(0.00224192 0.00295575 0.994802)
(2.14278e-06 0.00293766 0.987971)
(0.000271128 0.00295715 0.987823)
(-0.000492672 0.00296815 0.987508)
(-0.000822128 0.00298398 0.987345)
(-0.00150556 0.00300323 0.987331)
(-0.000990175 0.00300909 0.987183)
(-0.00334126 0.00304554 0.994954)
(-0.00334034 0.00302393 0.970709)
(0.00268332 0.0026831 0.995929)
(0.00227476 0.00271329 1.01744)
(2.21432e-05 0.00270637 1.01054)
(0.000303787 0.00272539 1.01046)
(-0.0004619 0.00274296 1.0102)
(-0.000790747 0.00276429 1.01011)
(-0.00148188 0.00278728 1.01017)
(-0.000969064 0.00280255 1.01006)
(-0.00332935 0.00282745 1.01792)
(-0.00335778 0.00283815 0.993726)
(0.00266291 0.000463758 0.988636)
(0.00226583 0.000481184 1.01008)
(2.97667e-05 0.00048941 1.00321)
(0.000310933 0.00050076 1.0031)
(-0.000452066 0.000517334 1.00282)
(-0.000780249 0.000535177 1.00269)
(-0.00147116 0.000552244 1.00273)
(-0.000968538 0.000568983 1.0026)
(-0.00330496 0.000569412 1.01037)
(-0.0033215 0.000597635 0.986268)
(0.00268088 0.000921515 0.988572)
(0.00228331 0.000949673 1.01007)
(4.12181e-05 0.000957886 1.00318)
(0.00033029 0.000977017 1.00307)
(-0.000429037 0.00100117 1.0028)
(-0.000755883 0.00102838 1.00268)
(-0.00144833 0.00105584 1.00272)
(-0.000953458 0.00108006 1.0026)
(-0.00328567 0.00109016 1.01034)
(-0.00330969 0.00113265 0.986303)
(0.00268939 0.000269417 0.98838)
(0.00229868 0.000294001 1.00992)
(5.7718e-05 0.000305273 1.00301)
(0.000354092 0.000327664 1.00291)
(-0.000400847 0.000355807 1.00264)
(-0.000725576 0.000388183 1.00254)
(-0.00141967 0.000421807 1.00258)
(-0.000935884 0.000452073 1.00247)
(-0.00325008 0.000465731 1.01017)
(-0.00327687 0.000534212 0.986257)
(0.00270176 7.31715e-06 0.988369)
(0.00231708 3.08139e-05 1.00996)
(7.55845e-05 4.32469e-05 1.00304)
(0.00038066 6.69657e-05 1.00294)
(-0.000368698 9.69028e-05 1.00268)
(-0.000690028 0.00013229 1.00258)
(-0.0013848 0.000170192 1.00264)
(-0.000911172 0.000205928 1.00255)
(-0.0032034 0.000226546 1.01019)
(-0.0032378 0.000311509 0.986438)
(0.00271688 -0.000667423 0.988544)
(0.00233683 -0.000651797 1.01019)
(9.31947e-05 -0.000638285 1.00324)
(0.000407584 -0.000615218 1.00316)
(-0.00033556 -0.000586326 1.0029)
(-0.000652279 -0.00055165 1.00282)
(-0.00134613 -0.000513384 1.00289)
(-0.000879184 -0.000475321 1.00281)
(-0.00314885 -0.000450113 1.01041)
(-0.00319696 -0.000354446 0.986835)
(0.00271964 -0.000283947 0.988593)
(0.00235007 -0.000269142 1.01027)
(0.00011171 -0.000262271 1.00331)
(0.000432703 -0.000243384 1.00323)
(-0.00030486 -0.000222025 1.00298)
(-0.000616834 -0.000195559 1.00291)
(-0.00130829 -0.000165138 1.003)
(-0.000846967 -0.000134972 1.00294)
(-0.00308821 -0.000109631 1.01048)
(-0.00314586 -2.71978e-05 0.987103)
(0.0027512 -0.00248483 0.995615)
(0.0023752 -0.00248179 1.01737)
(0.000119447 -0.00245644 1.01034)
(0.000449011 -0.00244083 1.01025)
(-0.000286243 -0.00241514 1.00998)
(-0.000595203 -0.00238611 1.00989)
(-0.00128521 -0.00235475 1.00996)
(-0.000822437 -0.0023155 1.00987)
(-0.00305777 -0.00229686 1.01739)
(-0.00313379 -0.00219748 0.994006)
(0.00272832 -0.00277305 0.973679)
(0.00237934 -0.00279588 0.995431)
(0.000137786 -0.00276394 0.988487)
(0.000471915 -0.00275918 0.988426)
(-0.000250239 -0.00273982 0.988228)
(-0.000552013 -0.0027204 0.988207)
(-0.00123172 -0.00270163 0.988357)
(-0.000769193 -0.00266984 0.988377)
(-0.00297078 -0.00267001 0.995849)
(-0.00305469 -0.00258598 0.972881)
(0.00272691 0.00308625 0.967701)
(0.00217748 0.00314075 0.993386)
(-0.000121067 0.00311916 0.985389)
(0.000183049 0.00314577 0.98516)
(-0.000743297 0.00316068 0.984775)
(-0.00104336 0.00318308 0.984536)
(-0.00188094 0.00321102 0.984434)
(-0.00125707 0.00322059 0.984222)
(-0.00376432 0.00326842 0.993606)
(-0.00376528 0.00324343 0.963399)
(0.00278672 0.00274719 0.99499)
(0.00222092 0.00278581 1.02093)
(-9.21072e-05 0.0027783 1.01284)
(0.000229729 0.00280458 1.01271)
(-0.000698707 0.00282871 1.0124)
(-0.000996421 0.00285878 1.01227)
(-0.001844 0.00289176 1.01228)
(-0.00122497 0.00291414 1.01214)
(-0.00374034 0.00294643 1.02165)
(-0.0037807 0.00296278 0.99152)
(0.00276156 0.000479748 0.986343)
(0.00221026 0.000504241 1.01218)
(-8.17252e-05 0.000515743 1.00413)
(0.000239026 0.000532081 1.00396)
(-0.000685294 0.00055594 1.00362)
(-0.000982253 0.000581882 1.00345)
(-0.00182923 0.000606718 1.00342)
(-0.00122543 0.000631785 1.00325)
(-0.00371091 0.000631193 1.01262)
(-0.00373569 0.000671955 0.982612)
(0.00278603 0.00104103 0.986225)
(0.00223451 0.00108002 1.01215)
(-6.5147e-05 0.00109137 1.00406)
(0.000267396 0.0011194 1.0039)
(-0.000651571 0.00115463 1.00357)
(-0.00094601 0.00119521 1.0034)
(-0.00179482 0.00123692 1.00338)
(-0.0012036 0.00127509 1.00322)
(-0.0036817 0.0012893 1.01255)
(-0.0037162 0.00135904 0.982639)
(0.00279746 0.000273154 0.986013)
(0.00225569 0.000307314 1.012)
(-4.13228e-05 0.000323402 1.00389)
(0.000302094 0.000356098 1.00373)
(-0.00060969 0.000397756 1.00342)
(-0.000899896 0.000447006 1.00326)
(-0.00174965 0.000499522 1.00326)
(-0.00117587 0.000550004 1.00311)
(-0.00362484 0.000571227 1.01236)
(-0.00366326 0.000687161 0.982663)
(0.0028149 8.42251e-05 0.985995)
(0.0022817 0.000117603 1.01206)
(-1.53343e-05 0.000135363 1.00392)
(0.000341458 0.000170342 1.00377)
(-0.000560987 0.00021519 1.00347)
(-0.000844462 0.000269799 1.00334)
(-0.00169243 0.000330294 1.00335)
(-0.00113418 0.000392095 1.00323)
(-0.00354685 0.000425299 1.01239)
(-0.00359713 0.00057886 0.982984)
(0.00283671 -0.000710878 0.986175)
(0.00231005 -0.000688322 1.01233)
(1.02722e-05 -0.000668578 1.00416)
(0.000381626 -0.000634666 1.00402)
(-0.000510355 -0.000590969 1.00373)
(-0.000784764 -0.000536878 1.00361)
(-0.00162755 -0.000474635 1.00366)
(-0.00107978 -0.000407285 1.00356)
(-0.00344819 -0.000364309 1.01264)
(-0.00351903 -0.000183364 0.983582)
(0.00284159 -0.000247174 0.986263)
(0.00232945 -0.000226543 1.01245)
(3.7426e-05 -0.000216469 1.00427)
(0.000419202 -0.000188561 1.00414)
(-0.000462768 -0.000156175 1.00386)
(-0.000727677 -0.000114459 1.00377)
(-0.00156263 -6.40635e-05 1.00384)
(-0.00102161 -9.52882e-06 1.00377)
(-0.0033348 4.22205e-05 1.01277)
(-0.00342452 0.000188139 0.984084)
(0.00288198 -0.00248858 0.994518)
(0.00236241 -0.00248112 1.02083)
(4.89714e-05 -0.00244762 1.01254)
(0.000443898 -0.00242423 1.0124)
(-0.000433887 -0.00238589 1.01208)
(-0.000692216 -0.00234173 1.01195)
(-0.00152206 -0.00229222 1.01199)
(-0.000970887 -0.00222553 1.01188)
(-0.00327368 -0.0021903 1.02085)
(-0.00339896 -0.00203419 0.992179)
(0.00285641 -0.00290207 0.967993)
(0.0023713 -0.0029275 0.994304)
(7.46697e-05 -0.00288632 0.986139)
(0.0004773 -0.0028782 0.986042)
(-0.000381321 -0.00284951 0.985839)
(-0.000628479 -0.00282052 0.985825)
(-0.00143901 -0.00279175 0.98599)
(-0.000893862 -0.00274097 0.986058)
(-0.00314666 -0.00274112 0.994942)
(-0.0032823 -0.00261506 0.966962)
(0.00276321 0.00322062 0.961945)
(0.00206448 0.00328632 0.991911)
(-0.000265965 0.00326209 0.982805)
(4.10719e-05 0.00329692 0.982484)
(-0.00105465 0.00331704 0.982028)
(-0.0013374 0.00334787 0.981697)
(-0.00235055 0.00338708 0.981468)
(-0.00166312 0.00340218 0.981162)
(-0.00437936 0.00346204 0.99232)
(-0.00429275 0.00341774 0.95541)
(0.0028373 0.00278425 0.994104)
(0.00212063 0.00283249 1.02444)
(-0.000225399 0.00282544 1.0152)
(0.00010564 0.00286057 1.01502)
(-0.000991619 0.00289333 1.01468)
(-0.00126868 0.00293484 1.01449)
(-0.00229377 0.00298104 1.01444)
(-0.00161478 0.00301376 1.01424)
(-0.0043527 0.00304979 1.02559)
(-0.00431325 0.00305511 0.988799)
(0.00280787 0.000500163 0.984115)
(0.00210896 0.000533484 1.0143)
(-0.000211673 0.000549077 1.00512)
(0.00011791 0.000572298 1.00488)
(-0.000973327 0.000606016 1.0045)
(-0.00124974 0.000643213 1.00426)
(-0.00227335 0.000679545 1.00414)
(-0.00161979 0.000715309 1.0039)
(-0.00432681 0.000708493 1.01505)
(-0.00426098 0.00075413 0.978436)
(0.00283983 0.00114952 0.98393)
(0.00214146 0.00120171 1.01424)
(-0.000188045 0.00121745 1.00501)
(0.000158503 0.0012575 1.00478)
(-0.000924922 0.00130795 1.0044)
(-0.00119633 0.00136761 1.00418)
(-0.00222351 0.00143062 1.00407)
(-0.00159131 0.00148726 1.00384)
(-0.00429367 0.00150362 1.01492)
(-0.00423625 0.00159755 0.978455)
(0.00285527 0.000276147 0.983703)
(0.00217038 0.000322441 1.01411)
(-0.00015438 0.000345135 1.00484)
(0.000208145 0.000391852 1.00462)
(-0.000863505 0.000452492 1.00426)
(-0.0011269 0.000526478 1.00406)
(-0.0021542 0.000608119 1.00398)
(-0.00155178 0.000687373 1.00377)
(-0.00421117 0.000720088 1.01472)
(-0.0041566 0.000909903 0.978602)
(0.00287925 0.000172484 0.983673)
(0.00220635 0.00021856 1.01419)
(-0.000117313 0.000243442 1.00488)
(0.000265372 0.000293882 1.00467)
(-0.000790845 0.000359815 1.00434)
(-0.001041 0.000442802 1.00416)
(-0.00206366 0.000538738 1.00412)
(-0.00148402 0.00063804 1.00395)
(-0.00407019 0.000706743 1.01474)
(-0.00403761 0.000980823 0.97913)
(0.00290939 -0.000733054 0.983845)
(0.00224573 -0.000701117 1.01449)
(-8.07796e-05 -0.000673232 1.00513)
(0.000324046 -0.000624638 1.00494)
(-0.000714802 -0.00056016 1.00462)
(-0.000947839 -0.000477513 1.00448)
(-0.00195938 -0.000378476 1.00448)
(-0.00138407 -0.000266057 1.00436)
(-0.00387675 -0.000167737 1.01501)
(-0.00389136 0.000157768 0.980009)
(0.00291785 -0.000208097 0.983974)
(0.00227362 -0.000180005 1.01468)
(-4.22935e-05 -0.000165575 1.0053)
(0.000378653 -0.000126004 1.00512)
(-0.000643175 -7.864e-05 1.00482)
(-0.000858643 -1.5356e-05 1.0047)
(-0.00185202 6.49164e-05 1.00474)
(-0.00127102 0.000161324 1.00468)
(-0.00365865 0.000261336 1.01517)
(-0.00372042 0.000541624 0.980843)
(0.00296761 -0.00245783 0.993422)
(0.00231519 -0.00244428 1.0243)
(-2.57796e-05 -0.00240191 1.01477)
(0.000413994 -0.00236837 1.01456)
(-0.000600716 -0.00231426 1.01421)
(-0.000803352 -0.0022504 1.01404)
(-0.00178176 -0.00217559 1.01403)
(-0.00118385 -0.00207191 1.0139)
(-0.00352417 -0.00199856 1.02432)
(-0.00363672 -0.00173838 0.990142)
(0.00294051 -0.00298479 0.962313)
(0.00233042 -0.00301172 0.99319)
(8.81805e-06 -0.0029608 0.98384)
(0.000460649 -0.00294777 0.983708)
(-0.000527553 -0.0029077 0.983519)
(-0.000713467 -0.00286652 0.983524)
(-0.00166473 -0.00282428 0.983707)
(-0.0010623 -0.00275307 0.983846)
(-0.00333174 -0.00273315 0.99417)
(-0.00347741 -0.00255702 0.961024)
(0.00275781 0.00332761 0.956223)
(0.00191919 0.00340467 0.99037)
(-0.000428544 0.00337885 0.980225)
(-0.000152677 0.00342277 0.979808)
(-0.00142835 0.00344942 0.979284)
(-0.00172241 0.00349045 0.97885)
(-0.00295619 0.00354284 0.978467)
(-0.0022642 0.00356646 0.978035)
(-0.00535329 0.0036433 0.991074)
(-0.00511743 0.00357526 0.946494)
(0.0028474 0.0028101 0.993279)
(0.00198992 0.00286877 1.02793)
(-0.000374014 0.00286325 1.0176)
(-6.63138e-05 0.00290852 1.01738)
(-0.00134203 0.00295186 1.01701)
(-0.00162552 0.00300719 1.01679)
(-0.00287094 0.00306904 1.01666)
(-0.00219023 0.00311479 1.01639)
(-0.00530228 0.00315941 1.02971)
(-0.00514657 0.0031433 0.985074)
(0.00281435 0.000528809 0.981964)
(0.00197796 0.000572582 1.01642)
(-0.000356603 0.000592945 1.00617)
(-5.04411e-05 0.000624943 1.00586)
(-0.001318 0.000671031 1.00544)
(-0.00160132 0.000722734 1.00514)
(-0.00284564 0.000773486 1.00491)
(-0.00220213 0.000824053 1.00458)
(-0.0052863 0.000808009 1.01766)
(-0.00510432 0.000851683 0.973224)
(0.00285471 0.00125086 0.981702)
(0.00202016 0.00131864 1.01633)
(-0.000323947 0.00134009 1.00601)
(5.71309e-06 0.00139553 1.00571)
(-0.00125052 0.00146582 1.0053)
(-0.00152579 0.00155103 1.00501)
(-0.00277375 0.00164287 1.0048)
(-0.00216813 0.00172962 1.00449)
(-0.00525205 0.00174598 1.01744)
(-0.00507839 0.00188338 0.973092)
(0.0028755 0.000281757 0.981462)
(0.00205896 0.000343012 1.01622)
(-0.000277709 0.000374237 1.00585)
(7.49544e-05 0.000439266 1.00557)
(-0.0011629 0.000525424 1.00518)
(-0.00142393 0.000633781 1.00492)
(-0.00266781 0.000757674 1.00475)
(-0.0021062 0.00088795 1.00447)
(-0.00513352 0.000943396 1.01722)
(-0.00496579 0.00126237 0.973251)
(0.00290767 0.00026764 0.981414)
(0.00210752 0.000329566 1.01633)
(-0.000226154 0.000363558 1.0059)
(0.000156135 0.000434413 1.00564)
(-0.0010569 0.000528981 1.00528)
(-0.00129395 0.000652337 1.00507)