/*--------------------------------*- C++ -*----------------------------------*\
  =========                 |
  \\      /  F ield         | OpenFOAM: The Open Source CFD Toolbox
   \\    /   O peration     | Website:  https://openfoam.org
    \\  /    A nd           | Version:  6
     \\/     M anipulation  |
\*---------------------------------------------------------------------------*/
FoamFile
{
    version     2.0;
    format      ascii;
    class       volScalarField;
    location    "0.069";
    object      p;
}
// * * * * * * * * * * * * * * * * * * * * * * * * * * * * * * * * * * * * * //

dimensions      [0 2 -2 0 0 0 0];

internalField   nonuniform List<scalar> 
56000
(
-3.48488e-07
0.00126632
0.00323677
0.00509275
0.00639846
0.00682782
0.00627131
0.0047934
0.0025822
-6.4551e-05
-0.00278569
-0.00520357
-0.00696777
-0.0078083
-0.00759106
-0.00633849
-0.00427903
-0.00187573
0.000310504
0.00151648
-0.00112691
0.00103379
0.00365475
0.00556039
0.00686081
0.00721539
0.00653194
0.00494495
0.00262983
-0.000120148
-0.00294604
-0.00547981
-0.00737115
-0.0083502
-0.00828828
-0.00712776
-0.00507032
-0.00258411
0.000290011
0.00239822
-0.00343746
-7.20596e-05
0.0032943
0.00550582
0.00699865
0.00740364
0.00669154
0.00505649
0.00267192
-0.000159703
-0.00307129
-0.00569306
-0.00766444
-0.00870228
-0.00867387
-0.0074546
-0.00517875
-0.00234203
0.00131356
0.00463554
-0.00650533
-0.00206286
0.00216362
0.00492087
0.00674798
0.00733124
0.00670885
0.00510309
0.00270127
-0.000170925
-0.00312863
-0.00578871
-0.00777115
-0.00876671
-0.00862544
-0.00719179
-0.00453327
-0.0010967
0.00345842
0.00787195
-0.00972069
-0.00430328
0.00076066
0.00406719
0.00627042
0.00710507
0.0066334
0.00510118
0.00272013
-0.000159054
-0.00312999
-0.00578924
-0.00773407
-0.00862835
-0.00829614
-0.0065583
-0.00346165
0.000587055
0.0060265
0.0114385
-0.0127279
-0.00649945
-0.000716614
0.00310789
0.00569822
0.00680504
0.00650552
0.00507022
0.00273448
-0.000128246
-0.00308879
-0.00572053
-0.00759724
-0.00835902
-0.00780609
-0.0057361
-0.00218568
0.00244545
0.00865145
0.0148995
-0.0153033
-0.00844852
-0.00208219
0.00219228
0.00513005
0.00648846
0.00635704
0.0050249
0.00274584
-8.67407e-05
-0.00302221
-0.0056118
-0.00740745
-0.00802903
-0.00725892
-0.00487873
-0.000917866
0.00422211
0.0110537
0.0179489
-0.0173117
-0.0100018
-0.00319841
0.00142572
0.00464047
0.00620609
0.00621882
0.00497927
0.00275504
-4.41628e-05
-0.00294993
-0.00549523
-0.00721408
-0.00771018
-0.00675313
-0.00411563
0.000174843
0.00571236
0.0130139
0.0203788
-0.0186801
-0.011076
-0.00398413
0.000877232
0.00428431
0.00599706
0.00611435
0.00494358
0.00276184
-9.70084e-06
-0.00289012
-0.00539956
-0.00705951
-0.00746247
-0.00636949
-0.00354862
0.000971679
0.00677987
0.0143919
0.0220598
-0.0193718
-0.0116239
-0.0043892
0.000591968
0.00409755
0.0058865
0.00605847
0.00492416
0.00276548
9.46579e-06
-0.00285654
-0.00534606
-0.00697421
-0.0073278
-0.00616362
-0.0032476
0.00139064
0.00733576
0.0151017
0.0229173
-0.0193718
-0.0116239
-0.0043892
0.00059196
0.00409754
0.00588649
0.00605847
0.00492415
0.00276548
9.4641e-06
-0.00285654
-0.00534606
-0.00697421
-0.0073278
-0.00616362
-0.0032476
0.00139064
0.00733575
0.0151017
0.0229173
-0.0186802
-0.011076
-0.00398416
0.000877203
0.00428428
0.00599705
0.00611434
0.00494357
0.00276183
-9.71125e-06
-0.00289013
-0.00539956
-0.00705951
-0.00746247
-0.0063695
-0.00354862
0.000971664
0.00677986
0.0143919
0.0220598
-0.0173117
-0.0100019
-0.0031985
0.00142566
0.00464044
0.00620607
0.0062188
0.00497925
0.00275502
-4.41781e-05
-0.00294994
-0.00549524
-0.00721408
-0.00771018
-0.00675314
-0.00411567
0.000174813
0.00571237
0.013014
0.0203788
-0.0153034
-0.00844874
-0.00208238
0.00219217
0.00513001
0.00648844
0.00635702
0.00502488
0.00274581
-8.67672e-05
-0.00302224
-0.00561182
-0.00740746
-0.00802905
-0.00725899
-0.0048788
-0.000917879
0.00422219
0.0110539
0.0179489
-0.0127281
-0.00649977
-0.000716846
0.00310776
0.00569817
0.00680503
0.0065055
0.00507018
0.00273443
-0.00012829
-0.00308883
-0.00572055
-0.00759726
-0.00835908
-0.00780617
-0.00573615
-0.00218567
0.00244557
0.00865166
0.0148996
-0.00972091
-0.00430349
0.000760535
0.00406711
0.00627037
0.00710505
0.00663336
0.00510112
0.00272006
-0.000159124
-0.00313005
-0.00578928
-0.00773412
-0.00862841
-0.00829618
-0.00655835
-0.00346173
0.000587008
0.00602655
0.0114385
-0.00650539
-0.00206279
0.00216367
0.00492084
0.00674796
0.00733123
0.00670881
0.00510301
0.00270117
-0.000171016
-0.00312869
-0.00578876
-0.00777121
-0.00876674
-0.0086255
-0.00719192
-0.0045335
-0.00109697
0.00345819
0.00787179
-0.00343739
-7.19772e-05
0.00329438
0.0055058
0.00699868
0.00740372
0.00669156
0.00505644
0.00267182
-0.000159794
-0.00307135
-0.0056931
-0.00766448
-0.00870238
-0.00867408
-0.00745484
-0.00517894
-0.00234228
0.00131332
0.00463528
-0.00112734
0.0010332
0.00365444
0.00556032
0.00686099
0.00721569
0.00653213
0.00494502
0.00262981
-0.000120184
-0.00294606
-0.00547981
-0.00737122
-0.00835047
-0.00828879
-0.00712816
-0.00507038
-0.00258393
0.000290435
0.00239843
-2.27743e-06
0.00126453
0.00323586
0.00509244
0.00639865
0.00682822
0.00627158
0.00479351
0.00258222
-6.45697e-05
-0.0027857
-0.00520357
-0.00696789
-0.00780874
-0.00759183
-0.00633906
-0.004279
-0.00187505
0.000312024
0.00151761
-1.09303
-1.09035
-1.08504
-1.07851
-1.07194
-1.06618
-1.06164
-1.05837
-1.05611
-1.05435
-1.05249
-1.04985
-1.0459
-1.04027
-1.03295
-1.02433
-1.01526
-1.00705
-1.00124
-0.998921
-1.09482
-1.09017
-1.08359
-1.07682
-1.0703
-1.0648
-1.06066
-1.05779
-1.05595
-1.05463
-1.05321
-1.05105
-1.04759
-1.04246
-1.03561
-1.02728
-1.01822
-1.00962
-1.00241
-0.99816
-1.09985
-1.0926
-1.08429
-1.0767
-1.06977
-1.06418
-1.06014
-1.05748
-1.05591
-1.05489
-1.05379
-1.05195
-1.04878
-1.04388
-1.03714
-1.02868
-1.0191
-1.00953
-1.00049
-0.993699
-1.10736
-1.09757
-1.08721
-1.07832
-1.07057
-1.06453
-1.06027
-1.05754
-1.056
-1.05508
-1.05408
-1.05233
-1.04917
-1.04414
-1.03709
-1.02805
-1.01748
-1.00645
-0.995285
-0.985978
-1.11585
-1.10364
-1.09121
-1.08091
-1.07218
-1.06547
-1.06079
-1.05782
-1.05616
-1.05519
-1.05415
-1.05231
-1.04897
-1.0436
-1.03599
-1.0261
-1.01435
-1.00173
-0.988376
-0.976642
-1.12423
-1.10991
-1.09559
-1.08393
-1.07417
-1.06672
-1.06153
-1.05823
-1.05636
-1.05523
-1.05404
-1.052
-1.04836
-1.04253
-1.03425
-1.02342
-1.01042
-0.99623
-0.980876
-0.966995
-1.13173
-1.11568
-1.09979
-1.08691
-1.07621
-1.06805
-1.06235
-1.05869
-1.05656
-1.05521
-1.05382
-1.05153
-1.04754
-1.04122
-1.03226
-1.02052
-1.00637
-0.990781
-0.973726
-0.958091
-1.13778
-1.12044
-1.10331
-1.08947
-1.078
-1.06924
-1.0631
-1.05911
-1.05672
-1.05517
-1.05357
-1.05103
-1.04672
-1.03995
-1.03039
-1.01789
-1.00279
-0.98608
-0.967706
-0.950747
-1.14201
-1.1238
-1.10585
-1.09134
-1.07931
-1.07013
-1.06366
-1.05942
-1.05684
-1.05513
-1.05336
-1.05063
-1.04606
-1.03897
-1.02897
-1.01591
-1.00014
-0.98265
-0.963383
-0.945543
-1.14417
-1.12553
-1.10717
-1.09232
-1.08001
-1.0706
-1.06396
-1.05959
-1.05691
-1.0551
-1.05324
-1.05041
-1.0457
-1.03843
-1.0282
-1.01485
-0.998736
-0.980846
-0.961129
-0.942852
-1.14417
-1.12553
-1.10717
-1.09232
-1.08001
-1.0706
-1.06396
-1.05959
-1.05691
-1.0551
-1.05324
-1.05041
-1.0457
-1.03843
-1.0282
-1.01485
-0.998736
-0.980846
-0.961129
-0.942852
-1.14201
-1.1238
-1.10585
-1.09134
-1.07931
-1.07013
-1.06366
-1.05942
-1.05684
-1.05513
-1.05336
-1.05063
-1.04606
-1.03897
-1.02897
-1.01591
-1.00014
-0.98265
-0.963383
-0.945543
-1.13778
-1.12044
-1.10331
-1.08947
-1.078
-1.06924
-1.0631
-1.05911
-1.05672
-1.05517
-1.05357
-1.05103
-1.04672
-1.03995
-1.03039
-1.01789
-1.00279
-0.98608
-0.967706
-0.950747
-1.13173
-1.11568
-1.09979
-1.08691
-1.07621
-1.06805
-1.06235
-1.05869
-1.05656
-1.05521
-1.05382
-1.05153
-1.04754
-1.04122
-1.03226
-1.02052
-1.00637
-0.990781
-0.973726
-0.958091
-1.12423
-1.10991
-1.09559
-1.08393
-1.07417
-1.06672
-1.06153
-1.05823
-1.05636
-1.05523
-1.05404
-1.052
-1.04836
-1.04253
-1.03425
-1.02342
-1.01042
-0.99623
-0.980876
-0.966995
-1.11585
-1.10364
-1.09121
-1.08091
-1.07218
-1.06547
-1.06079
-1.05782
-1.05616
-1.05519
-1.05415
-1.05231
-1.04897
-1.0436
-1.03599
-1.0261
-1.01435
-1.00173
-0.988376
-0.976642
-1.10736
-1.09757
-1.08721
-1.07832
-1.07057
-1.06453
-1.06027
-1.05754
-1.056
-1.05508
-1.05408
-1.05233
-1.04917
-1.04414
-1.03709
-1.02805
-1.01748
-1.00645
-0.995285
-0.985978
-1.09985
-1.0926
-1.08429
-1.0767
-1.06977
-1.06418
-1.06014
-1.05748
-1.05591
-1.05489
-1.05379
-1.05195
-1.04878
-1.04388
-1.03714
-1.02868
-1.0191
-1.00953
-1.00049
-0.993699
-1.09482
-1.09017
-1.08359
-1.07682
-1.0703
-1.0648
-1.06066
-1.05779
-1.05595
-1.05463
-1.05321
-1.05106
-1.04759
-1.04246
-1.03561
-1.02728
-1.01822
-1.00962
-1.0024
-0.998159
-1.09303
-1.09035
-1.08504
-1.07852
-1.07194
-1.06617
-1.06164
-1.05837
-1.05611
-1.05435
-1.05249
-1.04985
-1.0459
-1.04027
-1.03295
-1.02433
-1.01526
-1.00705
-1.00123
-0.99892
-2.18459
-2.18027
-2.17134
-2.15995
-2.14806
-2.1371
-2.1278
-2.12029
-2.11418
-2.10875
-2.10302
-2.09601
-2.08687
-2.0751
-2.06077
-2.04461
-2.02813
-2.01359
-2.00365
-1.99994
-2.18728
-2.17974
-2.16882
-2.15696
-2.14518
-2.13469
-2.12607
-2.11927
-2.11393
-2.10928
-2.10437
-2.09822
-2.08997
-2.07909
-2.06557
-2.04994
-2.03348
-2.01821
-2.006
-1.99907
-2.19547
-2.18371
-2.16993
-2.15669
-2.14424
-2.13362
-2.12519
-2.11876
-2.11389
-2.10977
-2.10543
-2.09985
-2.09213
-2.08167
-2.06834
-2.05249
-2.03516
-2.0182
-2.00292
-1.99182
-2.20796
-2.19199
-2.17484
-2.15945
-2.14566
-2.13427
-2.12545
-2.11891
-2.1141
-2.11013
-2.10597
-2.10052
-2.0928
-2.08212
-2.06825
-2.05138
-2.03239
-2.01295
-1.99409
-1.97878
-2.22225
-2.20225
-2.18165
-2.16391
-2.14847
-2.13596
-2.12644
-2.11948
-2.11444
-2.11036
-2.10608
-2.10045
-2.09239
-2.08111
-2.06626
-2.04793
-2.02688
-2.00471
-1.98216
-1.96275
-2.2365
-2.21294
-2.18917
-2.16914
-2.15197
-2.13821
-2.12782
-2.12028
-2.11485
-2.11045
-2.10587
-2.09986
-2.09124
-2.07913
-2.0631
-2.04313
-2.01994
-1.99507
-1.9691
-1.94603
-2.24934
-2.22285
-2.1964
-2.17432
-2.15556
-2.1406
-2.12933
-2.12116
-2.11524
-2.11045
-2.10547
-2.09898
-2.08972
-2.07673
-2.05949
-2.03794
-2.01275
-1.98547
-1.95658
-1.9305
-2.25975
-2.23104
-2.20251
-2.17879
-2.15872
-2.14274
-2.13071
-2.12195
-2.11558
-2.1104
-2.10502
-2.09806
-2.0882
-2.0744
-2.05612
-2.03322
-2.00638
-1.97716
-1.94599
-1.91762
-2.26705
-2.23685
-2.2069
-2.18205
-2.16105
-2.14434
-2.13174
-2.12254
-2.11582
-2.11033
-2.10464
-2.09731
-2.08699
-2.07259
-2.05353
-2.02966
-2.00166
-1.97108
-1.93836
-1.90847
-2.2708
-2.23986
-2.2092
-2.18376
-2.16229
-2.14519
-2.13229
-2.12286
-2.11595
-2.11029
-2.10443
-2.0969
-2.08633
-2.07161
-2.05214
-2.02776
-1.99915
-1.96788
-1.93438
-1.90373
-2.2708
-2.23986
-2.2092
-2.18376
-2.16229
-2.14519
-2.13229
-2.12286
-2.11595
-2.11029
-2.10443
-2.0969
-2.08633
-2.07161
-2.05214
-2.02776
-1.99915
-1.96788
-1.93438
-1.90373
-2.26705
-2.23685
-2.2069
-2.18205
-2.16105
-2.14434
-2.13174
-2.12254
-2.11582
-2.11033
-2.10464
-2.09731
-2.08699
-2.07259
-2.05353
-2.02966
-2.00166
-1.97108
-1.93836
-1.90847
-2.25975
-2.23104
-2.20251
-2.17879
-2.15872
-2.14274
-2.13071
-2.12195
-2.11558
-2.1104
-2.10502
-2.09806
-2.0882
-2.0744
-2.05612
-2.03322
-2.00638
-1.97716
-1.94599
-1.91762
-2.24934
-2.22285
-2.1964
-2.17432
-2.15556
-2.1406
-2.12933
-2.12116
-2.11524
-2.11045
-2.10547
-2.09898
-2.08972
-2.07673
-2.05949
-2.03794
-2.01275
-1.98547
-1.95657
-1.9305
-2.2365
-2.21294
-2.18917
-2.16914
-2.15197
-2.13821
-2.12782
-2.12028
-2.11485
-2.11045
-2.10587
-2.09986
-2.09124
-2.07913
-2.0631
-2.04313
-2.01994
-1.99507
-1.9691
-1.94603
-2.22225
-2.20225
-2.18165
-2.16391
-2.14847
-2.13596
-2.12644
-2.11948
-2.11444
-2.11036
-2.10608
-2.10045
-2.09239
-2.08111
-2.06626
-2.04793
-2.02688
-2.00471
-1.98216
-1.96275
-2.20796
-2.19199
-2.17484
-2.15945
-2.14566
-2.13427
-2.12545
-2.11891
-2.1141
-2.11013
-2.10597
-2.10052
-2.0928
-2.08212
-2.06825
-2.05138
-2.03239
-2.01295
-1.99409
-1.97878
-2.19547
-2.18371
-2.16993
-2.15669
-2.14424
-2.13362
-2.12519
-2.11876
-2.11389
-2.10977
-2.10543
-2.09985
-2.09213
-2.08167
-2.06834
-2.05249
-2.03516
-2.0182
-2.00292
-1.99182
-2.18728
-2.17974
-2.16882
-2.15696
-2.14518
-2.13469
-2.12607
-2.11927
-2.11393
-2.10928
-2.10437
-2.09822
-2.08997
-2.07909
-2.06557
-2.04994
-2.03348
-2.01821
-2.006
-1.99907
-2.18459
-2.18027
-2.17135
-2.15995
-2.14806
-2.1371
-2.1278
-2.12029
-2.11418
-2.10875
-2.10302
-2.09601
-2.08687
-2.0751
-2.06077
-2.04461
-2.02813
-2.01359
-2.00365
-1.99994
-3.27405
-3.26771
-3.25468
-3.23807
-3.22078
-3.20482
-3.19127
-3.1803
-3.17137
-3.1634
-3.15499
-3.14468
-3.1312
-3.11381
-3.09255
-3.0685
-3.04389
-3.02207
-3.00711
-3.00152
-3.27806
-3.26692
-3.25101
-3.23368
-3.21655
-3.20129
-3.18873
-3.17883
-3.17103
-3.16424
-3.15706
-3.14804
-3.13592
-3.11988
-3.09986
-3.07662
-3.05204
-3.02907
-3.01072
-3.00014
-3.29012
-3.2728
-3.25268
-3.23329
-3.21519
-3.19974
-3.18746
-3.1781
-3.171
-3.165
-3.15867
-3.15051
-3.13918
-3.12376
-3.10403
-3.08046
-3.05457
-3.029
-3.00597
-2.98906
-3.30852
-3.28497
-3.25988
-3.23737
-3.2173
-3.20072
-3.18788
-3.17835
-3.17133
-3.16554
-3.15945
-3.15147
-3.14013
-3.12438
-3.10381
-3.07868
-3.05028
-3.02096
-2.99251
-2.96921
-3.32954
-3.30005
-3.26991
-3.24395
-3.22146
-3.20325
-3.18936
-3.17922
-3.17186
-3.16587
-3.15959
-3.15131
-3.13944
-3.12275
-3.10069
-3.07335
-3.04183
-3.00837
-2.97434
-2.94484
-3.35051
-3.31577
-3.28098
-3.25164
-3.22664
-3.2066
-3.19144
-3.18043
-3.17247
-3.166
-3.15924
-3.15036
-3.13762
-3.11968
-3.09581
-3.06598
-3.0312
-2.99365
-2.95445
-2.91945
-3.36941
-3.33035
-3.2916
-3.25927
-3.23194
-3.21014
-3.1937
-3.18174
-3.17306
-3.16598
-3.15861
-3.14898
-3.13526
-3.11595
-3.09026
-3.05802
-3.02023
-2.97903
-2.93542
-2.89587
-3.38474
-3.3424
-3.30058
-3.26586
-3.23661
-3.21332
-3.19574
-3.18293
-3.17356
-3.16588
-3.1579
-3.14755
-3.1329
-3.11237
-3.08508
-3.05081
-3.01051
-2.96639
-2.91933
-2.87635
-3.39549
-3.35095
-3.30705
-3.27065
-3.24005
-3.21569
-3.19728
-3.18381
-3.17392
-3.16577
-3.1573
-3.14639
-3.13104
-3.1096
-3.08112
-3.04538
-3.00332
-2.95715
-2.90776
-2.86248
-3.40102
-3.35538
-3.31042
-3.27318
-3.24187
-3.21695
-3.1981
-3.18429
-3.1741
-3.1657
-3.15697
-3.14575
-3.13001
-3.10808
-3.07899
-3.04248
-2.9995
-2.95229
-2.90172
-2.8553
-3.40102
-3.35538
-3.31042
-3.27318
-3.24187
-3.21695
-3.1981
-3.18429
-3.1741
-3.1657
-3.15697
-3.14575
-3.13001
-3.10808
-3.07899
-3.04248
-2.9995
-2.95229
-2.90172
-2.8553
-3.39549
-3.35095
-3.30705
-3.27065
-3.24005
-3.21569
-3.19728
-3.18381
-3.17392
-3.16577
-3.1573
-3.14639
-3.13104
-3.1096
-3.08112
-3.04538
-3.00332
-2.95715
-2.90776
-2.86248
-3.38474
-3.3424
-3.30058
-3.26586
-3.23661
-3.21332
-3.19574
-3.18293
-3.17356
-3.16588
-3.1579
-3.14755
-3.1329
-3.11238
-3.08508
-3.05081
-3.01051
-2.96639
-2.91933
-2.87635
-3.36941
-3.33035
-3.2916
-3.25927
-3.23194
-3.21014
-3.1937
-3.18174
-3.17306
-3.16598
-3.15861
-3.14898
-3.13526
-3.11595
-3.09026
-3.05802
-3.02023
-2.97903
-2.93542
-2.89587
-3.35051
-3.31578
-3.28098
-3.25164
-3.22664
-3.2066
-3.19144
-3.18043
-3.17247
-3.166
-3.15924
-3.15036
-3.13762
-3.11968
-3.09581
-3.06598
-3.0312
-2.99365
-2.95445
-2.91945
-3.32954
-3.30005
-3.26991
-3.24395
-3.22146
-3.20325
-3.18936
-3.17922
-3.17186
-3.16587
-3.15959
-3.15131
-3.13944
-3.12275
-3.10069
-3.07335
-3.04183
-3.00837
-2.97434
-2.94484
-3.30852
-3.28497
-3.25988
-3.23737
-3.2173
-3.20072
-3.18788
-3.17835
-3.17133
-3.16554
-3.15945
-3.15147
-3.14013
-3.12438
-3.10381
-3.07869
-3.05028
-3.02096
-2.99251
-2.96921
-3.29012
-3.2728
-3.25268
-3.23329
-3.21519
-3.19974
-3.18746
-3.1781
-3.171
-3.165
-3.15867
-3.15051
-3.13918
-3.12376
-3.10403
-3.08046
-3.05457
-3.029
-3.00597
-2.98906
-3.27806
-3.26692
-3.25101
-3.23368
-3.21655
-3.20129
-3.18873
-3.17883
-3.17103
-3.16424
-3.15706
-3.14804
-3.13592
-3.11988
-3.09986
-3.07662
-3.05204
-3.02907
-3.01072
-3.00014
-3.27405
-3.26771
-3.25468
-3.23807
-3.22078
-3.20482
-3.19127
-3.1803
-3.17137
-3.1634
-3.15499
-3.14468
-3.1312
-3.11381
-3.09255
-3.0685
-3.04389
-3.02207
-3.00711
-3.00152
-4.36028
-4.35139
-4.33358
-4.31129
-4.28846
-4.26783
-4.25079
-4.23753
-4.22728
-4.21848
-4.20914
-4.19715
-4.18064
-4.15845
-4.13046
-4.09804
-4.06422
-4.03372
-4.01237
-4.00412
-4.36621
-4.35047
-4.32867
-4.30534
-4.28274
-4.26306
-4.24735
-4.23557
-4.22686
-4.21968
-4.21205
-4.20188
-4.18729
-4.16702
-4.14079
-4.10954
-4.07579
-4.04358
-4.01733
-4.0016
-4.38321
-4.3588
-4.33108
-4.30486
-4.28094
-4.26099
-4.24566
-4.23461
-4.22686
-4.22077
-4.2143
-4.20531
-4.19182
-4.17242
-4.14658
-4.11485
-4.07923
-4.04323
-4.01012
-3.98509
-4.40882
-4.37568
-4.34105
-4.31052
-4.28388
-4.26237
-4.24627
-4.23497
-4.22732
-4.2215
-4.21535
-4.20657
-4.19305
-4.17314
-4.14609
-4.11212
-4.07285
-4.03145
-3.99046
-3.9561
-4.43791
-4.3965
-4.35485
-4.31956
-4.2896
-4.26584
-4.24831
-4.23616
-4.22802
-4.22191
-4.21547
-4.20625
-4.19194
-4.17068
-4.14148
-4.10431
-4.06057
-4.01318
-3.96414
-3.92084
-4.46682
-4.41812
-4.37004
-4.33011
-4.29669
-4.27042
-4.25115
-4.23781
-4.22883
-4.22203
-4.21491
-4.20482
-4.18927
-4.16619
-4.1344
-4.09366
-4.04524
-3.99198
-3.93552
-3.88431
-4.49281
-4.43812
-4.38459
-4.34054
-4.30393
-4.27526
-4.25422
-4.23959
-4.2296
-4.22195
-4.21395
-4.2028
-4.18583
-4.16082
-4.12641
-4.08224
-4.02949
-3.97101
-3.90823
-3.85055
-4.51386
-4.45463
-4.39687
-4.34953
-4.3103
-4.2796
-4.25701
-4.24119
-4.23026
-4.22177
-4.2129
-4.20073
-4.18243
-4.15568
-4.11899
-4.07191
-4.01559
-3.95292
-3.88525
-3.82268
-4.5286
-4.46634
-4.4057
-4.35607
-4.31499
-4.28282
-4.2591
-4.24239
-4.23073
-4.22158
-4.21203
-4.19906
-4.17976
-4.15171
-4.11334
-4.06416
-4.00532
-3.93974
-3.86875
-3.80292
-4.53618
-4.47239
-4.4103
-4.35951
-4.31747
-4.28454
-4.26021
-4.24303
-4.23097
-4.22146
-4.21154
-4.19814
-4.1783
-4.14955
-4.1103
-4.06002
-3.99988
-3.93282
-3.86015
-3.7927
-4.53618
-4.47239
-4.4103
-4.35951
-4.31747
-4.28454
-4.26021
-4.24303
-4.23097
-4.22146
-4.21154
-4.19814
-4.1783
-4.14955
-4.1103
-4.06002
-3.99988
-3.93282
-3.86015
-3.7927
-4.5286
-4.46634
-4.4057
-4.35607
-4.31499
-4.28282
-4.2591
-4.24239
-4.23073
-4.22158
-4.21203
-4.19906
-4.17976
-4.15171
-4.11334
-4.06416
-4.00532
-3.93974
-3.86875
-3.80292
-4.51386
-4.45463
-4.39687
-4.34953
-4.3103
-4.2796
-4.25701
-4.24119
-4.23026
-4.22177
-4.2129
-4.20073
-4.18244
-4.15568
-4.11899
-4.07191
-4.0156
-3.95292
-3.88525
-3.82268
-4.49281
-4.43812
-4.38459
-4.34054
-4.30393
-4.27526
-4.25422
-4.23959
-4.2296
-4.22195
-4.21395
-4.2028
-4.18583
-4.16082
-4.12641
-4.08224
-4.02949
-3.97101
-3.90823
-3.85055
-4.46682
-4.41812
-4.37004
-4.33011
-4.29669
-4.27042
-4.25115
-4.23781
-4.22883
-4.22203
-4.21491
-4.20482
-4.18927
-4.16619
-4.1344
-4.09366
-4.04524
-3.99198
-3.93552
-3.88431
-4.43791
-4.3965
-4.35485
-4.31956
-4.2896
-4.26584
-4.24831
-4.23616
-4.22802
-4.22191
-4.21547
-4.20625
-4.19194
-4.17068
-4.14148
-4.10431
-4.06057
-4.01318
-3.96414
-3.92084
-4.40882
-4.37568
-4.34105
-4.31052
-4.28388
-4.26237
-4.24627
-4.23497
-4.22732
-4.2215
-4.21535
-4.20657
-4.19305
-4.17314
-4.14609
-4.11212
-4.07285
-4.03145
-3.99047
-3.9561
-4.38321
-4.3588
-4.33108
-4.30486
-4.28094
-4.26099
-4.24566
-4.23461
-4.22686
-4.22077
-4.2143
-4.20531
-4.19182
-4.17242
-4.14658
-4.11485
-4.07923
-4.04323
-4.01012
-3.98509
-4.36621
-4.35047
-4.32867
-4.30534
-4.28274
-4.26306
-4.24735
-4.23557
-4.22686
-4.21968
-4.21205
-4.20188
-4.18729
-4.16702
-4.14079
-4.10954
-4.07579
-4.04358
-4.01733
-4.0016
-4.36028
-4.35139
-4.33358
-4.31129
-4.28846
-4.26783
-4.25079
-4.23753
-4.22728
-4.21848
-4.20914
-4.19715
-4.18064
-4.15845
-4.13046
-4.09804
-4.06422
-4.03372
-4.01237
-4.00412
-5.44149
-5.42934
-5.40587
-5.37733
-5.34888
-5.32407
-5.30464
-5.29077
-5.28131
-5.27411
-5.26638
-5.25511
-5.23759
-5.21192
-5.17766
-5.13636
-5.09194
-5.05077
-5.02108
-5.00901
-5.45012
-5.42848
-5.3996
-5.36961
-5.34146
-5.31789
-5.30021
-5.28827
-5.28084
-5.27578
-5.27032
-5.2615
-5.24656
-5.22353
-5.1917
-5.15206
-5.10776
-5.06417
-5.02746
-5.00437
-5.47346
-5.43995
-5.40302
-5.36912
-5.3392
-5.31525
-5.29804
-5.28705
-5.28087
-5.27724
-5.27331
-5.26605
-5.25258
-5.23071
-5.1994
-5.15907
-5.11214
-5.06316
-5.0166
-4.98003
-5.50799
-5.46261
-5.41634
-5.37668
-5.34314
-5.31711
-5.29887
-5.28753
-5.28146
-5.27816
-5.27462
-5.26761
-5.25405
-5.23144
-5.1984
-5.1549
-5.10284
-5.04622
-4.98844
-4.93851
-5.54689
-5.49035
-5.43466
-5.38865
-5.35069
-5.32168
-5.30154
-5.28907
-5.28234
-5.27862
-5.27466
-5.26702
-5.25234
-5.22783
-5.19178
-5.14379
-5.08543
-5.02037
-4.95123
-4.88867
-5.58533
-5.51901
-5.45472
-5.40254
-5.36
-5.32769
-5.30525
-5.29119
-5.28333
-5.27869
-5.27379
-5.26493
-5.24852
-5.22149
-5.18182
-5.12885
-5.06395
-4.99066
-4.91111
-4.83749
-5.61975
-5.54542
-5.47386
-5.41623
-5.36948
-5.334
-5.30924
-5.29347
-5.28428
-5.27849
-5.27239
-5.26207
-5.24371
-5.214
-5.1707
-5.11295
-5.04203
-4.96146
-4.87311
-4.79048
-5.64756
-5.56717
-5.48998
-5.428
-5.3778
-5.33965
-5.31285
-5.29552
-5.28508
-5.27816
-5.27089
-5.25918
-5.239
-5.20689
-5.16044
-5.09865
-5.02277
-4.93638
-4.84124
-4.75185
-5.667
-5.58255
-5.50156
-5.43655
-5.38392
-5.34385
-5.31555
-5.29706
-5.28565
-5.27785
-5.26966
-5.25687
-5.23531
-5.20141
-5.15265
-5.08797
-5.00859
-4.91816
-4.81843
-4.72456
-5.67698
-5.59051
-5.50759
-5.44105
-5.38716
-5.34608
-5.317
-5.29788
-5.28595
-5.27767
-5.26898
-5.25559
-5.2333
-5.19844
-5.14847
-5.08227
-5.00109
-4.9086
-4.80656
-4.71047
-5.67698
-5.59051
-5.50759
-5.44105
-5.38716
-5.34608
-5.317
-5.29788
-5.28595
-5.27767
-5.26898
-5.25559
-5.2333
-5.19844
-5.14847
-5.08227
-5.00109
-4.9086
-4.80656
-4.71047
-5.667
-5.58255
-5.50156
-5.43655
-5.38392
-5.34385
-5.31555
-5.29706
-5.28565
-5.27785
-5.26967
-5.25687
-5.23531
-5.20141
-5.15265
-5.08797
-5.00859
-4.91816
-4.81843
-4.72456
-5.64756
-5.56717
-5.48998
-5.428
-5.3778
-5.33965
-5.31285
-5.29552
-5.28508
-5.27816
-5.27089
-5.25918
-5.239
-5.20689
-5.16044
-5.09865
-5.02278
-4.93638
-4.84124
-4.75185
-5.61975
-5.54542
-5.47386
-5.41623
-5.36948
-5.334
-5.30924
-5.29347
-5.28428
-5.27849
-5.27239
-5.26207
-5.24371
-5.214
-5.1707
-5.11295
-5.04203
-4.96146
-4.87311
-4.79048
-5.58533
-5.51901
-5.45472
-5.40254
-5.36
-5.32769
-5.30525
-5.29119
-5.28333
-5.27869
-5.27379
-5.26493
-5.24852
-5.22149
-5.18182
-5.12885
-5.06395
-4.99066
-4.91111
-4.83749
-5.54689
-5.49035
-5.43466
-5.38865
-5.35069
-5.32168
-5.30154
-5.28907
-5.28234
-5.27862
-5.27466
-5.26702
-5.25234
-5.22783
-5.19178
-5.14379
-5.08543
-5.02037
-4.95123
-4.88867
-5.50799
-5.46261
-5.41634
-5.37668
-5.34314
-5.31711
-5.29887
-5.28753
-5.28146
-5.27816
-5.27462
-5.26761
-5.25405
-5.23144
-5.1984
-5.1549
-5.10284
-5.04622
-4.98844
-4.93851
-5.47346
-5.43995
-5.40302
-5.36912
-5.3392
-5.31525
-5.29804
-5.28705
-5.28087
-5.27724
-5.27331
-5.26605
-5.25259
-5.23071
-5.1994
-5.15907
-5.11215
-5.06316
-5.0166
-4.98003
-5.45012
-5.42848
-5.3996
-5.36961
-5.34146
-5.31789
-5.30021
-5.28826
-5.28084
-5.27578
-5.27032
-5.2615
-5.24656
-5.22353
-5.1917
-5.15206
-5.10776
-5.06417
-5.02746
-5.00437
-5.44149
-5.42934
-5.40587
-5.37733
-5.34888
-5.32407
-5.30464
-5.29077
-5.28131
-5.27411
-5.26638
-5.25511
-5.23759
-5.21192
-5.17767
-5.13636
-5.09194
-5.05077
-5.02108
-5.00901
-6.51492
-6.49863
-6.46846
-6.43302
-6.39896
-6.37074
-6.35049
-6.33832
-6.33261
-6.33041
-6.32788
-6.32082
-6.30528
-6.2783
-6.23878
-6.18822
-6.1315
-6.07705
-6.03624
-6.01867
-6.52728
-6.49808
-6.46069
-6.4233
-6.3896
-6.36296
-6.34493
-6.33521
-6.3321
-6.33264
-6.33305
-6.32918
-6.31707
-6.29363
-6.25739
-6.20914
-6.15265
-6.09482
-6.04406
-6.01038
-6.55868
-6.51356
-6.46543
-6.42288
-6.38686
-6.3597
-6.34223
-6.33371
-6.33216
-6.33452
-6.33689
-6.33503
-6.32483
-6.3029
-6.26732
-6.21809
-6.15794
-6.09255
-6.02777
-5.97474
-6.60426
-6.54334
-6.48286
-6.43275
-6.39201
-6.36213
-6.34331
-6.33432
-6.33287
-6.33562
-6.33844
-6.33686
-6.32645
-6.30346
-6.26545
-6.21179
-6.1445
-6.06841
-5.98782
-5.91583
-6.65511
-6.57945
-6.50659
-6.4482
-6.40172
-6.36798
-6.3467
-6.33623
-6.33392
-6.33608
-6.33832
-6.33583
-6.32386
-6.29824
-6.25607
-6.1962
-6.12015
-6.03231
-5.93585
-5.84621
-6.70503
-6.61653
-6.53242
-6.46601
-6.41361
-6.37562
-6.35138
-6.33887
-6.33508
-6.33602
-6.33698
-6.33285
-6.31853
-6.28945
-6.24232
-6.1756
-6.09052
-5.9913
-5.88042
-5.77547
-6.74953
-6.65054
-6.55697
-6.48351
-6.42569
-6.38363
-6.35641
-6.34169
-6.33619
-6.33562
-6.33499
-6.32891
-6.31194
-6.27923
-6.22715
-6.1539
-6.06054
-5.95128
-5.82831
-5.71101
-6.78536
-6.67847
-6.5776
-6.49852
-6.43627
-6.39078
-6.36095
-6.34423
-6.33711
-6.33508
-6.33291
-6.32496
-6.30557
-6.26961
-6.21325
-6.13449
-6.03436
-5.91712
-5.78485
-5.65833
-6.81035
-6.69819
-6.59238
-6.50942
-6.44404
-6.39609
-6.36435
-6.34614
-6.33777
-6.3346
-6.33123
-6.32184
-6.3006
-6.26223
-6.20275
-6.12004
-6.01514
-5.89239
-5.75386
-5.62126
-6.82317
-6.70838
-6.60007
-6.51513
-6.44814
-6.3989
-6.36616
-6.34715
-6.33812
-6.33432
-6.33029
-6.32012
-6.2979
-6.25825
-6.19712
-6.11237
-6.00501
-5.87945
-5.73778
-5.60217
-6.82317
-6.70838
-6.60007
-6.51513
-6.44814
-6.3989
-6.36616
-6.34715
-6.33812
-6.33432
-6.33029
-6.32012
-6.2979
-6.25825
-6.19712
-6.11237
-6.00501
-5.87945
-5.73778
-5.60217
-6.81035
-6.69819
-6.59238
-6.50942
-6.44404
-6.39609
-6.36435
-6.34614
-6.33777
-6.3346
-6.33123
-6.32184
-6.3006
-6.26223
-6.20275
-6.12004
-6.01514
-5.89239
-5.75387
-5.62126
-6.78536
-6.67847
-6.5776
-6.49852
-6.43627
-6.39078
-6.36095
-6.34423
-6.33711
-6.33508
-6.33291
-6.32496
-6.30557
-6.26961
-6.21325
-6.13449
-6.03436
-5.91712
-5.78485
-5.65833
-6.74953
-6.65055
-6.55697
-6.48351
-6.42569
-6.38363
-6.35641
-6.34169
-6.33619
-6.33562
-6.33499
-6.32891
-6.31194
-6.27923
-6.22715
-6.1539
-6.06054
-5.95128
-5.82831
-5.71101
-6.70503
-6.61653
-6.53242
-6.46601
-6.41361
-6.37562
-6.35138
-6.33887
-6.33508
-6.33602
-6.33698
-6.33286
-6.31853
-6.28945
-6.24232
-6.1756
-6.09052
-5.9913
-5.88042
-5.77547
-6.65511
-6.57945
-6.50659
-6.4482
-6.40172
-6.36798
-6.3467
-6.33623
-6.33392
-6.33608
-6.33832
-6.33583
-6.32387
-6.29825
-6.25607
-6.1962
-6.12015
-6.03231
-5.93586
-5.84621
-6.60426
-6.54334
-6.48286
-6.43275
-6.39201
-6.36213
-6.34331
-6.33432
-6.33287
-6.33562
-6.33844
-6.33686
-6.32645
-6.30346
-6.26545
-6.2118
-6.1445
-6.06841
-5.98782
-5.91583
-6.55868
-6.51356
-6.46543
-6.42288
-6.38686
-6.3597
-6.34223
-6.33371
-6.33216
-6.33452
-6.33689
-6.33503
-6.32483
-6.3029
-6.26732
-6.21809
-6.15794
-6.09255
-6.02777
-5.97474
-6.52728
-6.49808
-6.46069
-6.4233
-6.3896
-6.36296
-6.34493
-6.33521
-6.3321
-6.33264
-6.33305
-6.32918
-6.31707
-6.29363
-6.2574
-6.20914
-6.15265
-6.09482
-6.04406
-6.01038
-6.51492
-6.49864
-6.46847
-6.43302
-6.39896
-6.37074
-6.35049
-6.33832
-6.33261
-6.33041
-6.32788
-6.32082
-6.30528
-6.2783
-6.23878
-6.18822
-6.1315
-6.07705
-6.03624
-6.01867
-7.5766
-7.55513
-7.51705
-7.47406
-7.43456
-7.40407
-7.38517
-7.37785
-7.37989
-7.38735
-7.39504
-7.39717
-7.3881
-7.36329
-7.32044
-7.26071
-7.18981
-7.11871
-7.06294
-7.03739
-7.59394
-7.5552
-7.50763
-7.46206
-7.42298
-7.39447
-7.37832
-7.37405
-7.37933
-7.39023
-7.40165
-7.40787
-7.40327
-7.38312
-7.34468
-7.2881
-7.21759
-7.14185
-7.07204
-7.02309
-7.63549
-7.57574
-7.51408
-7.46181
-7.41973
-7.39051
-7.37503
-7.37221
-7.37943
-7.39257
-7.40643
-7.41519
-7.413
-7.39478
-7.35713
-7.29916
-7.22363
-7.13732
-7.04767
-6.97105
-7.69465
-7.61422
-7.53648
-7.47448
-7.42635
-7.39362
-7.37639
-7.37295
-7.38024
-7.39382
-7.40819
-7.41721
-7.41464
-7.39488
-7.35385
-7.28975
-7.20429
-7.10309
-6.99123
-6.88787
-7.75999
-7.6604
-7.56667
-7.49405
-7.43859
-7.40096
-7.3806
-7.37527
-7.38142
-7.39421
-7.40776
-7.41552
-7.4108
-7.38745
-7.34071
-7.26806
-7.17053
-7.05307
-6.91916
-6.79123
-7.82369
-7.70751
-7.59932
-7.51647
-7.4535
-7.41049
-7.38639
-7.37846
-7.38273
-7.39393
-7.40579
-7.41136
-7.40346
-7.37544
-7.32198
-7.24
-7.13009
-6.99696
-6.8432
-6.69422
-7.88018
-7.75053
-7.63024
-7.53841
-7.46859
-7.42045
-7.39259
-7.38187
-7.38396
-7.39323
-7.40302
-7.40601
-7.39461
-7.36171
-7.30158
-7.21074
-7.08956
-6.94272
-6.77242
-6.6066
-7.92552
-7.78574
-7.65613
-7.55719
-7.48176
-7.42931
-7.39818
-7.38495
-7.385
-7.3924
-7.40019
-7.40074
-7.38613
-7.34891
-7.28304
-7.18477
-7.0544
-6.89671
-6.71378
-6.53548
-7.95706
-7.81054
-7.67464
-7.57079
-7.49143
-7.43588
-7.40236
-7.38726
-7.38574
-7.39168
-7.39793
-7.3966
-7.37956
-7.33915
-7.2691
-7.16554
-7.02872
-6.86355
-6.67216
-6.48566
-7.97321
-7.82333
-7.68427
-7.57791
-7.49652
-7.43937
-7.40459
-7.38848
-7.38612
-7.39128
-7.39667
-7.39433
-7.376
-7.3339
-7.26166
-7.15534
-7.01521
-6.84625
-6.65062
-6.46006
-7.97321
-7.82333
-7.68427
-7.57791
-7.49652
-7.43937
-7.40459
-7.38848
-7.38612
-7.39128
-7.39667
-7.39433
-7.376
-7.3339
-7.26166
-7.15534
-7.01521
-6.84625
-6.65062
-6.46006
-7.95706
-7.81054
-7.67464
-7.57079
-7.49143
-7.43588
-7.40236
-7.38726
-7.38574
-7.39168
-7.39793
-7.3966
-7.37956
-7.33915
-7.2691
-7.16554
-7.02872
-6.86355
-6.67216
-6.48566
-7.92552
-7.78574
-7.65613
-7.55719
-7.48176
-7.42931
-7.39818
-7.38495
-7.385
-7.3924
-7.40019
-7.40074
-7.38613
-7.34891
-7.28304
-7.18477
-7.0544
-6.89671
-6.71379
-6.53548
-7.88018
-7.75053
-7.63024
-7.53841
-7.46859
-7.42045
-7.39259
-7.38188
-7.38396
-7.39323
-7.40303
-7.40601
-7.39461
-7.36171
-7.30158
-7.21074
-7.08956
-6.94272
-6.77242
-6.6066
-7.82369
-7.70751
-7.59932
-7.51647
-7.4535
-7.41049
-7.38639
-7.37846
-7.38273
-7.39393
-7.40579
-7.41136
-7.40346
-7.37544
-7.32198
-7.24
-7.13009
-6.99696
-6.8432
-6.69422
-7.75999
-7.6604
-7.56667
-7.49405
-7.43859
-7.40096
-7.3806
-7.37527
-7.38142
-7.39421
-7.40776
-7.41552
-7.4108
-7.38745
-7.34071
-7.26807
-7.17053
-7.05307
-6.91917
-6.79123
-7.69465
-7.61422
-7.53648
-7.47448
-7.42635
-7.39362
-7.37639
-7.37295
-7.38024
-7.39382
-7.40819
-7.41721
-7.41464
-7.39488
-7.35385
-7.28975
-7.20429
-7.10309
-6.99123
-6.88787
-7.63549
-7.57574
-7.51408
-7.46181
-7.41973
-7.39051
-7.37503
-7.37221
-7.37943
-7.39257
-7.40643
-7.41519
-7.413
-7.39478
-7.35713
-7.29916
-7.22363
-7.13732
-7.04767
-6.97105
-7.59394
-7.5552
-7.50763
-7.46206
-7.42298
-7.39447
-7.37832
-7.37405
-7.37933
-7.39023
-7.40165
-7.40787
-7.40327
-7.38312
-7.34468
-7.2881
-7.2176
-7.14186
-7.07204
-7.02309