/*--------------------------------*- C++ -*----------------------------------*\
  =========                 |
  \\      /  F ield         | OpenFOAM: The Open Source CFD Toolbox
   \\    /   O peration     | Website:  https://openfoam.org
    \\  /    A nd           | Version:  6
     \\/     M anipulation  |
\*---------------------------------------------------------------------------*/
FoamFile
{
    version     2.0;
    format      ascii;
    class       surfaceScalarField;
    location    "0.069";
    object      phi;
}
// * * * * * * * * * * * * * * * * * * * * * * * * * * * * * * * * * * * * * //

dimensions      [0 3 -1 0 0 0 0];

internalField   nonuniform List<scalar> 
162000
(
1.86765e-11
8.19882e-11
1.30832e-06
1.27137e-10
1.21808e-10
2.89492e-06
3.34807e-10
1.11199e-10
4.0143e-06
6.1832e-10
8.86523e-11
4.8578e-06
9.4599e-10
6.32195e-11
5.50822e-06
1.28066e-09
4.11248e-11
6.00923e-06
1.58549e-09
2.41276e-11
6.387e-06
1.82816e-09
1.15332e-11
6.65823e-06
1.9828e-09
2.49971e-12
6.83363e-06
2.0324e-09
-4.50153e-12
6.91963e-06
1.9705e-09
-1.12887e-11
6.91921e-06
1.8022e-09
-1.96321e-11
6.8323e-06
1.54446e-09
-3.12515e-11
6.65577e-06
1.22513e-09
-4.74121e-11
6.38314e-06
8.80419e-10
-6.84216e-11
6.00373e-06
5.5167e-10
-9.40313e-11
5.50101e-06
2.78896e-10
-1.20969e-10
4.84915e-06
9.22426e-11
-1.40979e-10
4.00497e-06
6.80496e-12
-1.42587e-10
2.88645e-06
-8.78546e-11
1.30351e-06
1.19411e-10
1.85973e-10
2.89517e-06
4.97302e-10
3.0717e-10
7.09251e-06
1.11469e-09
3.02732e-10
1.02598e-05
1.91269e-09
2.52151e-10
1.27082e-05
2.80814e-09
1.88201e-10
1.46165e-05
3.70909e-09
1.27933e-10
1.6094e-05
4.52471e-09
7.79646e-11
1.72112e-05
5.1732e-09
3.9019e-11
1.80146e-05
5.58912e-09
9.10456e-12
1.85348e-05
5.72896e-09
-1.56889e-11
1.87902e-05
5.57552e-09
-4.01725e-11
1.87894e-05
5.14065e-09
-6.9244e-11
1.85323e-05
4.46579e-09
-1.07309e-10
1.80098e-05
3.61976e-09
-1.57301e-10
1.72033e-05
2.69289e-09
-2.19383e-10
1.60824e-05
1.78702e-09
-2.89822e-10
1.4601e-05
1.00249e-09
-3.57575e-10
1.26896e-05
4.21939e-10
-3.99959e-10
1.02399e-05
9.05893e-11
-3.7853e-10
7.07502e-06
-2.13025e-10
2.88619e-06
2.25851e-10
2.65467e-10
4.01519e-06
8.72627e-10
4.65361e-10
1.0261e-05
1.87482e-09
4.80929e-10
1.51659e-05
3.13208e-09
4.14871e-10
1.90413e-05
4.51944e-09
3.19413e-10
2.20989e-05
5.90198e-09
2.23305e-10
2.4483e-05
7.14714e-09
1.39564e-10
2.62935e-05
8.13581e-09
7.14947e-11
2.7599e-05
8.77232e-09
1.68319e-11
2.84457e-05
8.99262e-09
-3.02307e-11
2.88619e-05
8.77065e-09
-7.72307e-11
2.88611e-05
8.12246e-09
-1.31954e-10
2.84428e-05
7.10708e-09
-2.01109e-10
2.75933e-05
5.82344e-09
-2.88594e-10
2.62838e-05
4.40213e-09
-3.93254e-10
2.44683e-05
2.9918e-09
-5.06405e-10
2.20789e-05
1.74122e-09
-6.0749e-10
1.90169e-05
7.78156e-10
-6.58559e-10
1.51398e-05
1.88e-10
-5.98314e-10
1.02383e-05
-3.19873e-10
4.00392e-06
3.20621e-10
3.06304e-10
4.8597e-06
1.20528e-09
5.60837e-10
1.27114e-05
2.54525e-09
5.99551e-10
1.90437e-05
4.20018e-09
5.31133e-10
2.41355e-05
6.00746e-09
4.18532e-10
2.81987e-05
7.79637e-09
2.98686e-10
3.13904e-05
9.40119e-09
1.90046e-10
3.38258e-05
1.06737e-08
9.86844e-11
3.55874e-05
1.14951e-08
2.28249e-11
3.67322e-05
1.17851e-08
-4.42535e-11
3.72958e-05
1.15106e-08
-1.11774e-10
3.7295e-05
1.06902e-08
-1.8936e-10
3.67295e-05
9.39569e-09
-2.84997e-10
3.55816e-05
7.74852e-09
-4.02623e-10
3.38154e-05
5.91034e-09
-5.39174e-10
3.13741e-05
4.06719e-09
-6.81197e-10
2.8176e-05
2.40866e-09
-8.00189e-10
2.41075e-05
1.10396e-09
-8.4722e-10
1.90135e-05
2.78655e-10
-7.47448e-10
1.26852e-05
-3.84602e-10
4.84678e-06
3.96761e-10
3.09715e-10
5.51132e-06
1.47854e-09
5.85575e-10
1.46222e-05
3.10083e-09
6.4196e-10
2.21042e-05
5.08796e-09
5.80473e-10
2.82018e-05
7.24451e-09
4.65648e-10
3.31144e-05
9.36963e-09
3.37537e-10
3.69994e-05
1.12707e-08
2.17587e-10
3.99774e-05
1.27765e-08
1.13893e-10
4.21383e-05
1.37499e-08
2.5541e-11
4.35454e-05
1.40985e-08
-5.41471e-11
4.4239e-05
1.3783e-08
-1.34835e-10
4.42383e-05
1.28238e-08
-2.26676e-10
4.35429e-05
1.13021e-08
-3.3781e-10
4.21326e-05
9.35666e-09
-4.71545e-10
3.99667e-05
7.17364e-09
-6.23059e-10
3.69821e-05
4.96945e-09
-7.75691e-10
3.30899e-05
2.96821e-09
-8.96555e-10
2.81711e-05
1.37543e-09
-9.32125e-10
2.20709e-05
3.52739e-10
-8.04442e-10
1.45931e-05
-4.02276e-10
5.49695e-06
4.54639e-10
2.81895e-10
6.01355e-06
1.6913e-09
5.45781e-10
1.61022e-05
3.53884e-09
6.09706e-10
2.44914e-05
5.79278e-09
5.59985e-10
3.13968e-05
8.23034e-09
4.55347e-10
3.70026e-05
1.06257e-08
3.33969e-10
4.14608e-05
1.27644e-08
2.1734e-10
4.48921e-05
1.44572e-08
1.14286e-10
4.7389e-05
1.55524e-08
2.47131e-11
4.90178e-05
1.59481e-08
-5.72844e-11
4.98216e-05
1.56005e-08
-1.4068e-10
4.9821e-05
1.45309e-08
-2.34944e-10
4.90155e-05
1.28278e-08
-3.4744e-10
4.73833e-05
1.06433e-08
-4.80553e-10
4.48812e-05
8.18298e-09
-6.28466e-10
4.14427e-05
5.68793e-09
-7.73662e-10
3.69766e-05
3.41082e-09
-8.83209e-10
3.13638e-05
1.58751e-09
-9.05567e-10
2.44554e-05
4.09184e-10
-7.68688e-10
1.60705e-05
-3.76301e-10
5.99786e-06
4.96523e-10
2.30298e-10
6.39244e-06
1.84888e-09
4.53683e-10
1.72216e-05
3.86758e-09
5.13809e-10
2.63046e-05
6.32623e-09
4.77353e-10
3.3835e-05
8.98035e-09
3.92044e-10
3.99834e-05
1.15843e-08
2.90019e-10
4.48948e-05
1.39065e-08
1.90012e-10
4.86874e-05
1.57433e-08
1.00159e-10
5.14537e-05
1.69325e-08
2.08946e-11
5.32612e-05
1.73644e-08
-5.24597e-11
5.41539e-05
1.69919e-08
-1.27307e-10
5.41534e-05
1.58372e-08
-2.11487e-10
5.32589e-05
1.3994e-08
-3.10933e-10
5.14481e-05
1.16248e-08
-4.27131e-10
4.86763e-05
8.9503e-09
-5.54352e-10
4.4876e-05
6.23104e-09
-6.76747e-10
3.99559e-05
3.74234e-09
-7.65528e-10
3.37999e-05
1.74401e-09
-7.76901e-10
2.62661e-05
4.49728e-10
-6.51549e-10
1.71877e-05
-3.14026e-10
6.37556e-06
5.25042e-10
1.62089e-10
6.6646e-06
1.95862e-09
3.23112e-10
1.80269e-05
4.09941e-09
3.69363e-10
2.76123e-05
6.70543e-09
3.45865e-10
3.55988e-05
9.51629e-09
2.86006e-10
4.21464e-05
1.22716e-08
2.1282e-10
4.73935e-05
1.4727e-08
1.40059e-10
5.14555e-05
1.66685e-08
7.39153e-11
5.44235e-05
1.79257e-08
1.49617e-11
5.63652e-05
1.83838e-08
-4.00031e-11
5.73249e-05
1.7993e-08
-9.62108e-11
5.73244e-05
1.6776e-08
-1.59214e-10
5.6363e-05
1.48307e-08
-2.33126e-10
5.44178e-05
1.23272e-08
-3.18736e-10
5.1444e-05
9.49717e-09
-4.11492e-10
4.73739e-05
6.6157e-09
-4.99452e-10
4.21176e-05
3.97492e-09
-5.61414e-10
3.55619e-05
1.85218e-09
-5.65753e-10
2.75717e-05
4.76975e-10
-4.70571e-10
1.79911e-05
-2.244e-10
6.64673e-06
5.42609e-10
8.35187e-11
6.84073e-06
2.02745e-09
1.67637e-10
1.85485e-05
4.24627e-09
1.92678e-10
2.84605e-05
6.94724e-09
1.81253e-10
3.6745e-05
9.85955e-09
1.50485e-10
4.35547e-05
1.27131e-08
1.12362e-10
4.90235e-05
1.52551e-08
7.41369e-11
5.32639e-05
1.72645e-08
3.91451e-11
5.63661e-05
1.8566e-08
7.7679e-12
5.83972e-05
1.90409e-08
-2.16137e-11
5.94016e-05
1.8638e-08
-5.16984e-11
5.94011e-05
1.73803e-08
-8.5354e-11
5.8395e-05
1.53684e-08
-1.24677e-10
5.63603e-05
1.27774e-08
-1.69988e-10
5.32521e-05
9.84634e-09
-2.18777e-10
4.90033e-05
6.85995e-09
-2.64643e-10
4.3525e-05
4.12139e-09
-2.96373e-10
3.67068e-05
1.91944e-09
-2.97433e-10
2.84185e-05
4.93519e-10
-2.46206e-10
1.85113e-05
-1.16684e-10
6.82214e-06
5.5095e-10
3.92928e-15
6.92727e-06
2.06051e-09
9.08482e-15
1.88049e-05
4.31727e-09
1.29239e-14
2.88778e-05
7.06465e-09
1.40147e-14
3.73095e-05
1.00267e-08
1.3257e-14
4.4249e-05
1.29285e-08
1.16249e-14
4.98279e-05
1.55131e-08
9.81109e-15
5.41572e-05
1.7556e-08
8.13911e-15
5.73262e-05
1.88791e-08
6.68531e-15
5.9402e-05
1.93622e-08
5.40275e-15
6.04288e-05
1.89533e-08
4.20922e-15
6.04283e-05
1.76756e-08
3.04253e-15
5.93998e-05
1.56308e-08
1.88729e-15
5.73204e-05
1.29966e-08
8.08586e-16
5.41452e-05
1.0016e-08
-1.32312e-16
4.98073e-05
6.97814e-09
-9.83103e-16
4.42187e-05
4.19188e-09
-1.7901e-15
3.72706e-05
1.95153e-09
-2.44956e-15
2.88349e-05
5.01287e-10
-2.28453e-15
1.8767e-05
-1.01476e-15
6.90831e-06
5.5095e-10
-8.35104e-11
6.92727e-06
2.06051e-09
-1.67617e-10
1.88049e-05
4.31727e-09
-1.92651e-10
2.88778e-05
7.06465e-09
-1.81225e-10
3.73095e-05
1.00267e-08
-1.50459e-10
4.4249e-05
1.29285e-08
-1.12339e-10
4.98279e-05
1.55131e-08
-7.41179e-11
5.41572e-05
1.7556e-08
-3.91293e-11
5.73262e-05
1.88791e-08
-7.75495e-12
5.9402e-05
1.93622e-08
2.16242e-11
6.04288e-05
1.89533e-08
5.17067e-11
6.04283e-05
1.76756e-08
8.53601e-11
5.93998e-05
1.56308e-08
1.24681e-10
5.73204e-05
1.29966e-08
1.6999e-10
5.41452e-05
1.0016e-08
2.18777e-10
4.98073e-05
6.97814e-09
2.64641e-10
4.42187e-05
4.19188e-09
2.96369e-10
3.72706e-05
1.95153e-09
2.97427e-10
2.88349e-05
5.01287e-10
2.46201e-10
1.8767e-05
1.16681e-10
6.90831e-06
5.42608e-10
-1.62079e-10
6.84073e-06
2.02745e-09
-3.23088e-10
1.85485e-05
4.24627e-09
-3.69333e-10
2.84605e-05
6.94724e-09
-3.45837e-10
3.6745e-05
9.85955e-09
-2.85981e-10
4.35547e-05
1.27131e-08
-2.128e-10
4.90235e-05
1.52551e-08
-1.40042e-10
5.32639e-05
1.72645e-08
-7.3901e-11
5.63661e-05
1.8566e-08
-1.49499e-11
5.83972e-05
1.90409e-08
4.00129e-11
5.94016e-05
1.8638e-08
9.62187e-11
5.94011e-05
1.73803e-08
1.5922e-10
5.8395e-05
1.53684e-08
2.3313e-10
5.63603e-05
1.27774e-08
3.18738e-10
5.32521e-05
9.84634e-09
4.11493e-10
4.90033e-05
6.85995e-09
4.99451e-10
4.3525e-05
4.12139e-09
5.61409e-10
3.67068e-05
1.91944e-09
5.65744e-10
2.84185e-05
4.93518e-10
4.70562e-10
1.85113e-05
2.24396e-10
6.82214e-06
5.25041e-10
-2.30287e-10
6.6646e-06
1.95861e-09
-4.53656e-10
1.80269e-05
4.09941e-09
-5.1378e-10
2.76123e-05
6.70543e-09
-4.77328e-10
3.55988e-05
9.51629e-09
-3.92022e-10
4.21464e-05
1.22716e-08
-2.90001e-10
4.73935e-05
1.4727e-08
-1.89997e-10
5.14555e-05
1.66685e-08
-1.00147e-10
5.44235e-05
1.79257e-08
-2.08843e-11
5.63652e-05
1.83838e-08
5.24684e-11
5.73249e-05
1.7993e-08
1.27314e-10
5.73244e-05
1.6776e-08
2.11492e-10
5.6363e-05
1.48308e-08
3.10937e-10
5.44178e-05
1.23272e-08
4.27134e-10
5.1444e-05
9.49717e-09
5.54354e-10
4.73739e-05
6.6157e-09
6.76747e-10
4.21176e-05
3.97491e-09
7.65524e-10
3.55619e-05
1.85217e-09
7.76891e-10
2.75717e-05
4.76974e-10
6.51537e-10
1.79911e-05
3.14021e-10
6.64673e-06
4.96523e-10
-2.81885e-10
6.39244e-06
1.84887e-09
-5.45762e-10
1.72216e-05
3.86758e-09
-6.09689e-10
2.63046e-05
6.32623e-09
-5.59969e-10
3.3835e-05
8.98035e-09
-4.55331e-10
3.99834e-05
1.15843e-08
-3.33956e-10
4.48948e-05
1.39065e-08
-2.17328e-10
4.86874e-05
1.57433e-08
-1.14276e-10
5.14537e-05
1.69325e-08
-2.47046e-11
5.32612e-05
1.73644e-08
5.72918e-11
5.41539e-05
1.69919e-08
1.40686e-10
5.41534e-05
1.58372e-08
2.34949e-10
5.32589e-05
1.3994e-08
3.47444e-10
5.14481e-05
1.16248e-08
4.80556e-10
4.86763e-05
8.9503e-09
6.28469e-10
4.4876e-05
6.23104e-09
7.73664e-10
3.99559e-05
3.74233e-09
8.83211e-10
3.37999e-05
1.744e-09
9.05566e-10
2.62661e-05
4.49727e-10
7.68684e-10
1.71877e-05
3.76301e-10
6.37556e-06
4.54638e-10
-3.09714e-10
6.01355e-06
1.69129e-09
-5.85575e-10
1.61022e-05
3.53883e-09
-6.41958e-10
2.44914e-05
5.79277e-09
-5.80467e-10
3.13968e-05
8.23034e-09
-4.65639e-10
3.70026e-05
1.06257e-08
-3.37528e-10
4.14608e-05
1.27645e-08
-2.17579e-10
4.48921e-05
1.44572e-08
-1.13887e-10
4.7389e-05
1.55525e-08
-2.55351e-11
4.90178e-05
1.59481e-08
5.41525e-11
4.98216e-05
1.56005e-08
1.3484e-10
4.9821e-05
1.45309e-08
2.2668e-10
4.90155e-05
1.28278e-08
3.37814e-10
4.73834e-05
1.06433e-08
4.71548e-10
4.48812e-05
8.18299e-09
6.23062e-10
4.14427e-05
5.68793e-09
7.75696e-10
3.69766e-05
3.41081e-09
8.96566e-10
3.13638e-05
1.5875e-09
9.3214e-10
2.44554e-05
4.09184e-10
8.04454e-10
1.60705e-05
4.02282e-10
5.99786e-06
3.96757e-10
-3.06308e-10
5.51132e-06
1.47853e-09
-5.60845e-10
1.46222e-05
3.10081e-09
-5.99552e-10
2.21042e-05
5.08795e-09
-5.31127e-10
2.82018e-05
7.24451e-09
-4.18528e-10
3.31144e-05
9.36964e-09
-2.98685e-10
3.69994e-05
1.12707e-08
-1.90046e-10
3.99774e-05
1.27765e-08
-9.86832e-11
4.21383e-05
1.375e-08
-2.28231e-11
4.35454e-05
1.40985e-08
4.42558e-11
4.4239e-05
1.3783e-08
1.11777e-10
4.42383e-05
1.28238e-08
1.89364e-10
4.35429e-05
1.13021e-08
2.85001e-10
4.21326e-05
9.35668e-09
4.02629e-10
3.99667e-05
7.17365e-09
5.39183e-10
3.69821e-05
4.96945e-09
6.81206e-10
3.30899e-05
2.9682e-09
8.00202e-10
2.81711e-05
1.37542e-09
8.47239e-10
2.20709e-05
3.52737e-10
7.47467e-10
1.45931e-05
3.84609e-10
5.49695e-06
3.20612e-10
-2.65461e-10
4.8597e-06
1.20526e-09
-4.65346e-10
1.27114e-05
2.54523e-09
-4.80914e-10
1.90437e-05
4.20016e-09
-4.14858e-10
2.41355e-05
6.00746e-09
-3.19411e-10
2.81987e-05
7.79638e-09
-2.23312e-10
3.13904e-05
9.4012e-09
-1.39572e-10
3.38258e-05
1.06738e-08
-7.14996e-11
3.55874e-05
1.14951e-08
-1.68346e-11
3.67322e-05
1.17851e-08
3.02299e-11
3.72958e-05
1.15107e-08
7.72313e-11
3.7295e-05
1.06902e-08
1.31956e-10
3.67295e-05
9.39572e-09
2.01115e-10
3.55816e-05
7.74854e-09
2.88609e-10
3.38154e-05
5.91035e-09
3.93273e-10
3.13741e-05
4.06717e-09
5.06416e-10
2.8176e-05
2.40865e-09
6.07491e-10
2.41075e-05
1.10395e-09
6.58561e-10
1.90135e-05
2.78649e-10
5.98312e-10
1.26852e-05
3.19871e-10
4.84678e-06
2.25836e-10
-1.85942e-10
4.01519e-06
8.72593e-10
-3.07102e-10
1.0261e-05
1.87479e-09
-3.02683e-10
1.51659e-05
3.13206e-09
-2.52129e-10
1.90413e-05
4.51944e-09
-1.88203e-10
2.20989e-05
5.90199e-09
-1.27949e-10
2.4483e-05
7.14716e-09
-7.79814e-11
2.62935e-05
8.13583e-09
-3.90314e-11
2.7599e-05
8.77234e-09
-9.11296e-12
2.84457e-05
8.99264e-09
1.56836e-11
2.88619e-05
8.77067e-09
4.01699e-11
2.88611e-05
8.12248e-09
6.92449e-11
2.84428e-05
7.10712e-09
1.07318e-10
2.75933e-05
5.82347e-09
1.57324e-10
2.62838e-05
4.40214e-09
2.19412e-10
2.44683e-05
2.99178e-09
2.89835e-10
2.20789e-05
1.74119e-09
3.57561e-10
1.90169e-05
7.78131e-10
3.99919e-10
1.51398e-05
1.8799e-10
3.78469e-10
1.02383e-05
2.12999e-10
4.00392e-06
1.19397e-10
-8.19489e-11
2.89517e-06
4.97245e-10
-1.2174e-10
7.09251e-06
1.11465e-09
-1.11154e-10
1.02598e-05
1.91265e-09
-8.86332e-11
1.27082e-05
2.80812e-09
-6.32198e-11
1.46165e-05
3.70911e-09
-4.1136e-11
1.6094e-05
4.52474e-09
-2.41398e-11
1.72112e-05
5.17322e-09
-1.15432e-11
1.80146e-05
5.58913e-09
-2.5073e-12
1.85348e-05
5.72898e-09
4.49656e-12
1.87902e-05
5.57554e-09
1.12866e-11
1.87894e-05
5.14067e-09
1.96339e-11
1.85323e-05
4.46583e-09
3.12593e-11
1.80098e-05
3.61979e-09
4.74285e-11
1.72033e-05
2.69288e-09
6.84423e-11
1.60824e-05
1.78698e-09
9.404e-11
1.4601e-05
1.00244e-09
1.20954e-10
1.26896e-05
4.21885e-10
1.40939e-10
1.02399e-05
9.05807e-11
1.42522e-10
7.07502e-06
8.78219e-11
2.88619e-06
1.86669e-11
1.30832e-06
1.27092e-10
2.89492e-06
3.34768e-10
4.0143e-06
6.18291e-10
4.8578e-06
9.45978e-10
5.50822e-06
1.28066e-09
6.00923e-06
1.5855e-09
6.387e-06
1.82817e-09
6.65823e-06
1.98281e-09
6.83363e-06
2.03241e-09
6.91963e-06
1.97051e-09
6.91921e-06
1.80222e-09
6.8323e-06
1.54448e-09
6.65577e-06
1.22514e-09
6.38314e-06
8.80409e-10
6.00373e-06
5.51637e-10
5.50101e-06
2.78853e-10
4.84915e-06
9.21976e-11
4.00497e-06
6.80117e-12
2.88645e-06
1.30351e-06
-1.18211e-11
1.94459e-10
1.30814e-06
1.22346e-10
3.18151e-10
2.89447e-06
4.61783e-10
3.17556e-10
4.01364e-06
9.81447e-10
2.7299e-10
4.85701e-06
1.61986e-09
2.13394e-10
5.50737e-06
2.29572e-09
1.54774e-10
6.0084e-06
2.92367e-09
1.03058e-10
6.38627e-06
3.42588e-09
5.85849e-11
6.65767e-06
3.7397e-09
1.9926e-11
6.8333e-06
3.82435e-09
-1.58185e-11
6.91956e-06
3.66582e-09
-5.21328e-11
6.91942e-06
3.27954e-09
-9.24031e-11
6.83277e-06
2.71075e-09
-1.39578e-10
6.65648e-06
2.0311e-09
-1.95322e-10
6.38401e-06
1.33088e-09
-2.58836e-10
6.00469e-06
7.07153e-10
-3.26199e-10
5.50196e-06
2.45158e-10
-3.86273e-10
4.85e-06
-5.27581e-12
-4.16508e-10
4.00564e-06
-5.22296e-11
-3.81244e-10
2.88688e-06
-2.06584e-10
1.30367e-06
1.43721e-10
4.7932e-10
2.89474e-06
7.63752e-10
8.49421e-10
7.09136e-06
1.90486e-09
8.96819e-10
1.02581e-05
3.48094e-09
8.00698e-10
1.27061e-05
5.3256e-09
6.47114e-10
1.46142e-05
7.23239e-09
4.8226e-10
1.60918e-05
8.98569e-09
3.26856e-10
1.72092e-05
1.03861e-08
1.86611e-10
1.80131e-05
1.1272e-08
5.93217e-11
1.85339e-05
1.15367e-08
-6.18628e-11
1.879e-05
1.11409e-08
-1.8579e-10
1.879e-05
1.01204e-08
-3.21229e-10
1.85335e-05
8.58689e-09
-4.75052e-10
1.80116e-05
6.71925e-09
-6.49761e-10
1.72056e-05
4.74489e-09
-8.40154e-10
1.6085e-05
2.90879e-09
-1.02937e-09
1.46036e-05
1.43263e-09
-1.18159e-09
1.26918e-05
4.66267e-10
-1.23299e-09
1.02417e-05
3.64183e-11
-1.08246e-09
7.07615e-06
-5.58252e-10
2.88658e-06
3.52952e-10
7.26658e-10
4.01459e-06
1.53507e-09
1.34779e-09
1.02593e-05
3.51427e-09
1.47496e-09
1.51634e-05
6.12124e-09
1.35367e-09
1.90382e-05
9.0946e-09
1.11923e-09
2.20954e-05
1.21241e-08
8.49217e-10
2.44796e-05
1.48895e-08
5.82362e-10
2.62905e-05
1.70952e-08
3.32631e-10
2.75967e-05
1.85006e-08
9.92887e-11
2.84443e-05
1.89451e-08
-1.26999e-10
2.88616e-05
1.83672e-08
-3.59403e-10
2.88618e-05
1.68159e-08
-6.11023e-10
2.84447e-05
1.44518e-08
-8.9119e-10
2.75961e-05
1.15353e-08
-1.20098e-09
2.62872e-05
8.40055e-09
-1.52752e-09
2.44721e-05
5.41186e-09
-1.83714e-09
2.20827e-05
2.90828e-09
-2.06553e-09
1.90203e-05
1.13964e-09
-2.10639e-09
1.51425e-05
2.04751e-10
-1.80006e-09
1.024e-05
-8.99956e-10
4.00447e-06
5.64447e-10
8.80406e-10
4.85898e-06
2.29458e-09
1.68914e-09
1.27094e-05
5.07143e-09
1.89744e-09
1.90405e-05
8.6373e-09
1.77793e-09
2.41315e-05
1.26403e-08
1.49539e-09
2.81943e-05
1.66794e-08
1.14989e-09
3.13861e-05
2.03466e-08
7.95167e-10
3.38219e-05
2.32676e-08
4.53469e-10
3.55844e-05
2.51376e-08
1.27007e-10
3.67303e-05
2.57519e-08
-1.93956e-10
3.72952e-05
2.50297e-08
-5.24631e-10
3.72959e-05
2.30282e-08
-8.80157e-10
3.67317e-05
1.99452e-08
-1.27016e-09
3.5585e-05
1.61055e-08
-1.69255e-09
3.38197e-05
1.19292e-08
-2.12606e-09
3.13789e-05
7.881e-09
-2.52151e-09
2.81807e-05
4.4046e-09
-2.79111e-09
2.41117e-05
1.84819e-09
-2.79721e-09
1.90168e-05
3.93663e-10
-2.34218e-09
1.26872e-05
-1.14145e-09
4.84741e-06
7.51184e-10
9.26717e-10
5.51052e-06
2.97156e-09
1.82358e-09
1.46198e-05
6.46143e-09
2.08919e-09
2.21005e-05
1.08794e-08
1.9891e-09
2.81972e-05
1.57906e-08
1.69518e-09
3.31093e-05
2.07137e-08
1.31685e-09
3.69943e-05
2.51666e-08
9.16148e-10
3.99729e-05
2.87095e-08
5.21072e-10
4.21347e-05
3.09847e-08
1.36962e-10
4.35432e-05
3.17513e-08
-2.44676e-10
4.42383e-05
3.09116e-08
-6.38796e-10
4.42393e-05
2.85288e-08
-1.06024e-09
4.35455e-05
2.48298e-08
-1.51721e-09
4.21365e-05
2.01909e-08
-2.00403e-09
3.99717e-05
1.51034e-08
-2.49291e-09
3.69876e-05
1.01174e-08
-2.92462e-09
3.30953e-05
5.76912e-09
-3.19832e-09
2.81759e-05
2.49785e-09
-3.16209e-09
2.20745e-05
5.66958e-10
-2.60601e-09
1.45953e-05
-1.2446e-09
5.49762e-06
9.04685e-10
8.71541e-10
6.0127e-06
3.53647e-09
1.74771e-09
1.60996e-05
7.62969e-09
2.03212e-09
2.44874e-05
1.27702e-08
1.95842e-09
3.13917e-05
1.84508e-08
1.68585e-09
3.69969e-05
2.41213e-08
1.31972e-09
4.14551e-05
2.92367e-08
9.2212e-10
4.4887e-05
3.33031e-08
5.22845e-10
4.73849e-05
3.59197e-08
1.29356e-10
4.90152e-05
3.68157e-08
-2.64762e-10
4.98208e-05
3.58799e-08
-6.72493e-10
4.9822e-05
3.31796e-08
-1.10666e-09
4.90182e-05
2.89647e-08
-1.57317e-09
4.73876e-05
2.36536e-08
-2.06374e-09
4.48866e-05
1.77962e-08
-2.54785e-09
4.14487e-05
1.20147e-08
-2.96404e-09
3.69824e-05
6.92472e-09
-3.21124e-09
3.13689e-05
3.04515e-09
-3.14174e-09
2.44592e-05
7.10999e-10
-2.55778e-09
1.60728e-05
-1.20264e-09
5.99853e-06
1.02359e-09
7.30542e-10
6.39155e-06
3.98092e-09
1.48528e-09
1.72189e-05
8.55678e-09
1.74573e-09
2.63003e-05
1.42785e-08
1.69752e-09
3.38295e-05
2.05791e-08
1.47209e-09
3.99774e-05
2.68519e-08
1.15887e-09
4.48887e-05
3.2501e-08
8.12166e-10
4.86819e-05
3.69886e-08
4.5912e-10
5.14493e-05
3.98796e-08
1.07646e-10
5.32583e-05
4.08796e-08
-2.46496e-10
5.41529e-05
3.98666e-08
-6.13339e-10
5.41543e-05
3.69109e-08
-1.00273e-09
5.32618e-05
3.2281e-08
-1.41828e-09
5.14526e-05
2.64285e-08
-1.85097e-09
4.86819e-05
1.99506e-08
-2.27224e-09
4.48822e-05
1.35281e-08
-2.62682e-09
3.9962e-05
7.84157e-09
-2.82609e-09
3.38052e-05
3.47535e-09
-2.7434e-09
2.62701e-05
8.22207e-10
-2.21331e-09
1.719e-05
-1.02865e-09
6.37621e-06
1.10951e-09
5.23788e-10
6.6637e-06
4.30672e-09
1.07497e-09
1.80241e-05
9.24186e-09
1.2728e-09
2.76078e-05
1.53987e-08
1.24525e-09
3.55931e-05
2.2165e-08
1.08537e-09
4.214e-05
2.88908e-08
8.57715e-10
4.73871e-05
3.49412e-08
6.02286e-10
5.14496e-05
3.97454e-08
3.39635e-10
5.44188e-05
4.28423e-08
7.63048e-11
5.63621e-05
4.392e-08
-1.90115e-10
5.73238e-05
4.28481e-08
-4.66328e-10
5.73253e-05
3.96997e-08
-7.58864e-10
5.63659e-05
3.47569e-08
-1.06957e-09
5.44224e-05
2.84967e-08
-1.39085e-09
5.14498e-05
2.15522e-08
-1.70066e-09
4.73803e-05
1.46486e-08
-1.95746e-09
4.21238e-05
8.51623e-09
-2.09576e-09
3.55673e-05
3.7888e-09
-2.02345e-09
2.75757e-05
9.0172e-10
-1.62229e-09
1.79934e-05
-7.47933e-10
6.64735e-06
1.16497e-09
2.72929e-10
6.83981e-06
4.51934e-09
5.63193e-10
1.85457e-05
9.69177e-09
6.69704e-10
2.8456e-05
1.61374e-08
6.57561e-10
3.67391e-05
2.32137e-08
5.74836e-10
4.35481e-05
3.02415e-08
4.55281e-10
4.90169e-05
3.65596e-08
3.2005e-10
5.32579e-05
4.15749e-08
1.8019e-10
5.63612e-05
4.48088e-08
3.93866e-11
5.8394e-05
4.59378e-08
-1.03412e-10
5.94004e-05
4.48261e-08
-2.51534e-10
5.9402e-05
4.15485e-08
-4.08202e-10
5.83979e-05
3.63964e-08
-5.74131e-10
5.6365e-05
2.98638e-08
-7.45001e-10
5.3258e-05
2.26081e-08
-9.08825e-10
4.90098e-05
1.53846e-08
-1.04336e-09
4.35313e-05
8.95699e-09
-1.11388e-09
3.67123e-05
3.99184e-09
-1.07203e-09
2.84225e-05
9.5242e-10
-8.56343e-10
1.85136e-05
-3.92952e-10
6.82274e-06
1.1921e-09
4.56258e-15
6.92635e-06
4.62409e-09
1.07884e-14
1.8802e-05
9.91432e-09
1.55983e-14
2.88732e-05
1.65038e-08
1.75967e-14
3.73035e-05
2.37349e-08
1.77808e-14
4.42424e-05
3.09135e-08
1.72083e-14
4.98211e-05
3.73653e-08
1.66002e-14
5.4151e-05
4.24861e-08
1.62667e-14
5.73213e-05
4.57884e-08
1.6229e-14
5.93987e-05
4.69429e-08
1.63492e-14
6.04275e-05
4.58111e-08
1.64299e-14
6.04291e-05
4.24686e-08
1.62788e-14
5.94027e-05
3.72116e-08
1.57549e-14
5.73251e-05
3.05427e-08
1.48141e-14
5.41511e-05
2.31316e-08
1.34386e-14
4.98138e-05
1.57486e-08
1.15726e-14
4.42251e-05
9.17412e-09
9.10499e-15
3.7276e-05
4.0913e-09
6.1933e-15
2.8839e-05
9.76999e-10
3.47091e-15
1.87692e-05
1.1326e-15
6.90889e-06
1.1921e-09
-2.72919e-10
6.92635e-06
4.62409e-09
-5.6317e-10
1.8802e-05
9.91432e-09
-6.69672e-10
2.88732e-05
1.65038e-08
-6.57526e-10
3.73035e-05
2.37349e-08
-5.74801e-10
4.42424e-05
3.09135e-08
-4.55248e-10
4.98211e-05
3.73653e-08
-3.20018e-10
5.4151e-05
4.24861e-08
-1.80159e-10
5.73213e-05
4.57884e-08
-3.93551e-11
5.93987e-05
4.69429e-08
1.03444e-10
6.04275e-05
4.58111e-08
2.51566e-10
6.04291e-05
4.24686e-08
4.08234e-10
5.94027e-05
3.72116e-08
5.74162e-10
5.73251e-05
3.05427e-08
7.4503e-10
5.41511e-05
2.31316e-08
9.08852e-10
4.98138e-05
1.57486e-08
1.04338e-09
4.42251e-05
9.17412e-09
1.1139e-09
3.7276e-05
4.0913e-09
1.07205e-09
2.8839e-05
9.76999e-10
8.56349e-10
1.87692e-05
3.92953e-10
6.90889e-06
1.16497e-09
-5.23777e-10
6.83981e-06
4.51934e-09
-1.07494e-09
1.85457e-05
9.69177e-09
-1.27276e-09
2.8456e-05
1.61374e-08
-1.24522e-09
3.67392e-05
2.32138e-08
-1.08534e-09
4.35481e-05
3.02416e-08
-8.57685e-10
4.90169e-05
3.65596e-08
-6.02257e-10
5.32579e-05
4.15749e-08
-3.39606e-10
5.63612e-05
4.48089e-08
-7.62761e-11
5.8394e-05
4.59378e-08
1.90144e-10
5.94004e-05
4.48261e-08
4.66358e-10
5.9402e-05
4.15485e-08
7.58894e-10
5.83979e-05
3.63964e-08
1.0696e-09
5.6365e-05
2.98638e-08
1.39088e-09
5.3258e-05
2.26081e-08
1.70069e-09
4.90098e-05
1.53847e-08
1.95748e-09
4.35313e-05
8.95699e-09
2.09577e-09
3.67123e-05
3.99184e-09
2.02346e-09
2.84225e-05
9.5242e-10
1.62229e-09
1.85136e-05
7.47933e-10
6.82274e-06
1.10952e-09
-7.3053e-10
6.6637e-06
4.30672e-09
-1.48526e-09
1.80241e-05
9.24186e-09
-1.7457e-09
2.76078e-05
1.53987e-08
-1.69749e-09
3.55931e-05
2.2165e-08
-1.47206e-09
4.214e-05
2.88908e-08
-1.15884e-09
4.73871e-05
3.49412e-08
-8.12142e-10
5.14496e-05
3.97455e-08
-4.59096e-10
5.44188e-05
4.28424e-08
-1.07621e-10
5.63621e-05
4.392e-08
2.46521e-10
5.73238e-05
4.28482e-08
6.13365e-10
5.73253e-05
3.96998e-08
1.00275e-09
5.63659e-05
3.4757e-08
1.4183e-09
5.44224e-05
2.84967e-08
1.851e-09
5.14498e-05
2.15522e-08
2.27226e-09
4.73803e-05
1.46486e-08
2.62684e-09
4.21238e-05
8.51624e-09
2.8261e-09
3.55673e-05
3.7888e-09
2.74341e-09
2.75757e-05
9.01719e-10
2.21331e-09
1.79934e-05
1.02865e-09
6.64735e-06
1.0236e-09
-8.71532e-10
6.39155e-06
3.98092e-09
-1.7477e-09
1.72189e-05
8.55678e-09
-2.0321e-09
2.63003e-05
1.42785e-08
-1.95841e-09
3.38295e-05
2.05791e-08
-1.68583e-09
3.99774e-05
2.6852e-08
-1.3197e-09
4.48887e-05
3.2501e-08
-9.22102e-10
4.86819e-05
3.69887e-08
-5.22827e-10
5.14493e-05
3.98796e-08
-1.29337e-10
5.32583e-05
4.08797e-08
2.64783e-10
5.41529e-05
3.98666e-08
6.72515e-10
5.41543e-05
3.6911e-08
1.10668e-09
5.32618e-05
3.2281e-08
1.57319e-09
5.14526e-05
2.64285e-08
2.06377e-09
4.86819e-05
1.99506e-08
2.54787e-09
4.48822e-05
1.35281e-08
2.96406e-09
3.9962e-05
7.84157e-09
3.21125e-09
3.38052e-05
3.47535e-09
3.14175e-09
2.62701e-05
8.22207e-10
2.55779e-09
1.719e-05
1.20265e-09
6.37621e-06
9.04685e-10
-9.26716e-10
6.0127e-06
3.53646e-09
-1.82358e-09
1.60996e-05
7.62969e-09
-2.08919e-09
2.44874e-05
1.27702e-08
-1.98909e-09
3.13917e-05
1.84508e-08
-1.69517e-09
3.6997e-05
2.41213e-08
-1.31684e-09
4.14551e-05
2.92368e-08
-9.16136e-10
4.4887e-05
3.33032e-08
-5.21059e-10
4.73849e-05
3.59198e-08
-1.36948e-10
4.90152e-05
3.68158e-08
2.44691e-10
4.98208e-05
3.58799e-08
6.38813e-10
4.9822e-05
3.31796e-08
1.06026e-09
4.90182e-05
2.89648e-08
1.51723e-09
4.73876e-05
2.36537e-08
2.00405e-09
4.48866e-05
1.77963e-08
2.49292e-09
4.14487e-05
1.20147e-08
2.92464e-09
3.69824e-05
6.92472e-09
3.19834e-09
3.13689e-05
3.04514e-09
3.16212e-09
2.44592e-05
7.11001e-10
2.60603e-09
1.60728e-05
1.24461e-09
5.99853e-06
7.51181e-10
-8.8041e-10
5.51052e-06
2.97155e-09
-1.68915e-09
1.46198e-05
6.46143e-09
-1.89744e-09
2.21005e-05
1.08794e-08
-1.77792e-09
2.81972e-05
1.57906e-08
-1.49538e-09
3.31093e-05
2.07138e-08
-1.14989e-09
3.69943e-05
2.51667e-08
-7.95162e-10
3.99729e-05
2.87096e-08
-4.53463e-10
4.21347e-05
3.09848e-08
-1.26998e-10
4.35432e-05
3.17513e-08
1.93966e-10
4.42383e-05
3.09116e-08
5.24643e-10
4.42393e-05
2.85289e-08
8.80171e-10
4.35455e-05
2.48298e-08
1.27018e-09
4.21366e-05
2.0191e-08
1.69257e-09
3.99717e-05
1.51034e-08
2.12608e-09
3.69876e-05
1.01174e-08
2.52153e-09
3.30953e-05
5.76912e-09
2.79113e-09
2.81759e-05
2.49785e-09
2.79724e-09
2.20745e-05
5.66957e-10
2.34221e-09
1.45953e-05
1.14145e-09
5.49762e-06
5.64439e-10
-7.26652e-10
4.85898e-06
2.29457e-09
-1.34777e-09
1.27094e-05
5.07142e-09
-1.47494e-09
1.90405e-05
8.6373e-09
-1.35365e-09
2.41315e-05
1.26404e-08
-1.11922e-09
2.81943e-05
1.66794e-08
-8.49221e-10
3.13861e-05
2.03466e-08
-5.82366e-10
3.38219e-05
2.32676e-08
-3.32631e-10
3.55844e-05
2.51376e-08
-9.92865e-11
3.67303e-05
2.5752e-08
1.27004e-10
3.72952e-05
2.50297e-08
3.5941e-10
3.72959e-05
2.30282e-08
6.11033e-10
3.67317e-05
1.99453e-08
8.91205e-10
3.5585e-05
1.61056e-08
1.201e-09
3.38197e-05
1.19292e-08
1.52755e-09
3.13789e-05
7.881e-09
1.83716e-09
2.81807e-05
4.4046e-09
2.06554e-09
2.41117e-05
1.84818e-09
2.1064e-09
1.90168e-05
3.93659e-10
1.80006e-09
1.26872e-05
8.99955e-10
4.84741e-06
3.52937e-10
-4.79289e-10
4.01459e-06
1.53504e-09
-8.4935e-10
1.02593e-05
3.51424e-09
-8.96767e-10
1.51634e-05
6.12122e-09
-8.00673e-10
1.90382e-05
9.09461e-09
-6.47112e-10
2.20954e-05
1.21242e-08
-4.82272e-10
2.44796e-05
1.48896e-08
-3.26869e-10
2.62905e-05
1.70953e-08
-1.8662e-10
2.75967e-05
1.85007e-08
-5.93255e-11
2.84443e-05
1.89452e-08
6.18628e-11
2.88616e-05
1.83673e-08
1.85794e-10
2.88618e-05
1.6816e-08
3.21237e-10
2.84447e-05
1.44518e-08
4.75069e-10
2.75961e-05
1.15354e-08
6.49792e-10
2.62872e-05
8.40057e-09
8.40191e-10
2.44721e-05
5.41185e-09
1.02939e-09
2.20827e-05
2.90826e-09
1.18158e-09
1.90203e-05
1.13962e-09
1.23295e-09
1.51425e-05
2.04742e-10
1.0824e-09
1.024e-05
5.58227e-10
4.00447e-06
1.43707e-10
-1.94421e-10
2.89474e-06
7.63698e-10
-3.18081e-10
7.09136e-06
1.90482e-09
-3.17511e-10
1.02581e-05
3.48091e-09
-2.72971e-10
1.27061e-05
5.3256e-09
-2.13394e-10
1.46142e-05
7.23242e-09
-1.54785e-10
1.60918e-05
8.98574e-09
-1.03069e-10
1.72092e-05
1.03862e-08
-5.85931e-11
1.80131e-05
1.12721e-08
-1.99312e-11
1.85339e-05
1.15367e-08
1.58166e-11
1.879e-05
1.11409e-08
5.21344e-11
1.879e-05
1.01205e-08
9.24093e-11
1.85335e-05
8.58695e-09
1.39591e-10
1.80116e-05
6.7193e-09
1.95344e-10
1.72056e-05
4.74489e-09
2.58862e-10
1.6085e-05
2.90876e-09
3.26212e-10
1.46036e-05
1.43259e-09
3.86262e-10
1.26918e-05
4.66221e-10
4.1647e-10
1.02417e-05
3.6408e-11
3.81182e-10
7.07615e-06
2.06551e-10
2.88658e-06
-1.18281e-11
1.30814e-06
1.22303e-10
2.89447e-06
4.61746e-10
4.01364e-06
9.81421e-10
4.85701e-06
1.61985e-09
5.50737e-06
2.29573e-09
6.0084e-06
2.92369e-09
6.38627e-06
3.4259e-09
6.65767e-06
3.73972e-09
6.8333e-06
3.82437e-09
6.91956e-06
3.66584e-09
6.91942e-06
3.27957e-09
6.83277e-06
2.71078e-09
6.65648e-06
2.03112e-09
6.38401e-06
1.33088e-09
6.00469e-06
7.07123e-10
5.50196e-06
2.45116e-10
4.85e-06
-5.31822e-12
4.00564e-06
-5.22338e-11
2.88688e-06
1.30367e-06
-3.54329e-11
3.21359e-10
1.30785e-06
1.50187e-10
5.34587e-10
2.89375e-06
6.64813e-10
5.41551e-10
4.01258e-06
1.47671e-09
4.70869e-10
4.85573e-06
2.48896e-09
3.73058e-10
5.50599e-06
3.57043e-09
2.7449e-10
6.00704e-06
4.58171e-09
1.85326e-10
6.38507e-06
5.39426e-09
1.06797e-10
6.65675e-06
5.9039e-09
3.6648e-11
6.83275e-06
6.04205e-09
-2.9666e-11
6.91945e-06
5.78424e-09
-9.75927e-11
6.91978e-06
5.15505e-09
-1.72442e-10
6.83358e-06
4.22907e-09
-2.58685e-10
6.65766e-06
3.12563e-09
-3.58617e-10
6.38547e-06
1.99592e-09
-4.70417e-10
6.00629e-06
1.00202e-09
-5.86251e-10
5.50354e-06
2.8492e-10
-6.86272e-10
4.8514e-06
-7.64878e-11
-7.31705e-10
4.00673e-06
-1.08198e-10
-6.58917e-10
2.88757e-06
-3.489e-10
1.30391e-06
1.97261e-10
8.03639e-10
2.89406e-06
1.14025e-09
1.44042e-09
7.08951e-06
2.92864e-09
1.53725e-09
1.02553e-05
5.43673e-09
1.38678e-09
1.27027e-05
8.40111e-09
1.1335e-09
1.46105e-05
1.14868e-08
8.54809e-10
1.60881e-05
1.43397e-08
5.86103e-10
1.72059e-05
1.66293e-08
3.37897e-10
1.80106e-05
1.80858e-08
1.07236e-10
1.85324e-05
1.85283e-08
-1.16401e-10
1.87896e-05
1.7888e-08
-3.46721e-10
1.87909e-05
1.62211e-08
-5.97204e-10
1.85356e-05
1.37115e-08
-8.77935e-10
1.80148e-05
1.06574e-08
-1.19145e-09
1.72095e-05
7.43978e-09
-1.52708e-09
1.60892e-05
4.46957e-09
-1.85363e-09
1.46078e-05
2.11587e-09
-2.1075e-09
1.26956e-05
6.20048e-10
-2.17776e-09
1.02446e-05