/*--------------------------------*- C++ -*----------------------------------*\
  =========                 |
  \\      /  F ield         | OpenFOAM: The Open Source CFD Toolbox
   \\    /   O peration     | Website:  https://openfoam.org
    \\  /    A nd           | Version:  6
     \\/     M anipulation  |
\*---------------------------------------------------------------------------*/
FoamFile
{
    version     2.0;
    format      ascii;
    class       surfaceScalarField;
    location    "0.09";
    object      phi;
}
// * * * * * * * * * * * * * * * * * * * * * * * * * * * * * * * * * * * * * //

dimensions      [0 3 -1 0 0 0 0];

internalField   nonuniform List<scalar> 
162000
(
-1.41868e-11
5.96269e-11
1.30837e-06
6.43736e-12
1.03004e-10
2.89502e-06
7.99989e-11
1.0679e-10
4.01442e-06
2.05356e-10
9.53654e-11
4.85795e-06
3.67508e-10
7.71415e-11
5.50836e-06
5.44131e-10
5.79327e-11
6.00935e-06
7.10298e-10
4.00745e-11
6.38711e-06
8.43171e-10
2.37181e-11
6.65832e-06
9.244e-10
8.69457e-12
6.83369e-06
9.42162e-10
-5.72551e-12
6.91966e-06
8.92854e-10
-2.04924e-11
6.91921e-06
7.81862e-10
-3.64715e-11
6.83226e-06
6.23517e-10
-5.43862e-11
6.6557e-06
4.3967e-10
-7.44647e-11
6.38304e-06
2.57133e-10
-9.60204e-11
6.0036e-06
1.03896e-10
-1.176e-10
5.50086e-06
2.25388e-12
-1.35073e-10
4.849e-06
-3.87086e-11
-1.40512e-10
4.00482e-06
-2.94441e-11
-1.23761e-10
2.88633e-06
-6.35987e-11
1.30345e-06
2.02812e-11
1.45788e-10
2.89527e-06
1.53604e-10
2.68517e-10
7.09274e-06
4.3233e-10
2.9234e-10
1.02601e-05
8.38294e-10
2.68666e-10
1.27086e-05
1.32841e-09
2.23237e-10
1.46168e-05
1.84456e-09
1.71225e-10
1.60943e-05
2.32319e-09
1.19623e-10
1.72115e-05
2.70529e-09
7.05602e-11
1.80149e-05
2.94296e-09
2.39804e-11
1.8535e-05
3.00487e-09
-2.17011e-11
1.87903e-05
2.88056e-09
-6.86697e-11
1.87894e-05
2.58264e-09
-1.18975e-10
1.85322e-05
2.14664e-09
-1.74046e-10
1.80096e-05
1.62757e-09
-2.33849e-10
1.7203e-05
1.09353e-09
-2.95794e-10
1.60821e-05
6.16111e-10
-3.53926e-10
1.46007e-05
2.55515e-10
-3.96303e-10
1.26892e-05
4.49819e-11
-4.02277e-10
1.02395e-05
-1.99227e-11
-3.42132e-10
7.07475e-06
-1.68942e-10
2.88608e-06
7.77209e-11
2.26939e-10
4.01534e-06
3.58766e-10
4.33405e-10
1.02613e-05
8.69085e-10
4.85871e-10
1.51664e-05
1.56614e-09
4.56735e-10
1.90418e-05
2.37883e-09
3.86863e-10
2.20994e-05
3.21869e-09
3.01027e-10
2.44835e-05
3.99023e-09
2.11884e-10
2.62939e-05
4.60516e-09
1.24418e-10
2.75994e-05
4.99155e-09
3.93474e-11
2.84459e-05
5.10174e-09
-4.52975e-11
2.88621e-05
4.91891e-09
-1.32582e-10
2.8861e-05
4.46041e-09
-2.25385e-10
2.84427e-05
3.7777e-09
-3.25333e-10
2.7593e-05
2.9515e-09
-4.31385e-10
2.62835e-05
2.08266e-09
-5.38022e-10
2.44679e-05
1.27905e-09
-6.33559e-10
2.20784e-05
6.347e-10
-6.97003e-10
1.90164e-05
2.10689e-10
-6.94715e-10
1.51394e-05
2.14092e-11
-5.79183e-10
1.0238e-05
-2.80362e-10
4.00378e-06
1.40943e-10
2.81861e-10
4.85988e-06
5.75723e-10
5.5283e-10
1.27118e-05
1.31748e-09
6.33432e-10
1.90442e-05
2.29703e-09
6.05795e-10
2.41361e-05
3.41559e-09
5.20585e-10
2.81993e-05
4.55705e-09
4.09405e-10
3.1391e-05
5.59873e-09
2.89681e-10
3.38264e-05
6.42785e-09
1.69245e-10
3.55879e-05
6.95235e-09
4.9922e-11
3.67325e-05
7.11083e-09
-7.00891e-11
3.72959e-05
6.88075e-09
-1.94113e-10
3.7295e-05
6.28264e-09
-3.2525e-10
3.67292e-05
5.38028e-09
-4.64755e-10
3.55813e-05
4.27504e-09
-6.10146e-10
3.3815e-05
3.0949e-09
-7.52904e-10
3.13736e-05
1.97883e-09
-8.76059e-10
2.81754e-05
1.05222e-09
-9.51078e-10
2.41069e-05
4.05012e-10
-9.34711e-10
1.9013e-05
7.51087e-11
-7.67059e-10
1.26848e-05
-3.6491e-10
4.84659e-06
1.99792e-10
3.0204e-10
5.5115e-06
7.78374e-10
6.04949e-10
1.46226e-05
1.73474e-09
7.04781e-10
2.21048e-05
2.97374e-09
6.8323e-10
2.82025e-05
4.37033e-09
5.93658e-10
3.31151e-05
5.78365e-09
4.70631e-10
3.7e-05
7.06753e-09
3.3426e-10
3.9978e-05
8.08829e-09
1.94262e-10
4.21387e-05
8.73693e-09
5.35149e-11
4.35456e-05
8.94048e-09
-8.9223e-11
4.42391e-05
8.67136e-09
-2.36978e-10
4.42382e-05
7.95234e-09
-3.92524e-10
4.35427e-05
6.85701e-09
-5.564e-10
4.21323e-05
5.50376e-09
-7.24746e-10
3.99663e-05
4.04346e-09
-8.86816e-10
3.69815e-05
2.642e-09
-1.02232e-09
3.30893e-05
1.45302e-09
-1.09846e-09
2.81704e-05
5.94367e-10
-1.06743e-09
2.20703e-05
1.28059e-10
-8.64898e-10
1.45926e-05
-4.05194e-10
5.49675e-06
2.50169e-10
2.87949e-10
6.01374e-06
9.53556e-10
5.85994e-10
1.61026e-05
2.09682e-09
6.91409e-10
2.44921e-05
3.56165e-09
6.77238e-10
3.13975e-05
5.19961e-09
5.934e-10
3.70034e-05
6.84824e-09
4.73287e-10
4.14614e-05
8.34115e-09
3.37036e-10
4.48928e-05
9.52705e-09
1.9488e-10
4.73894e-05
1.02828e-08
5.03336e-11
4.90182e-05
1.05259e-08
-9.719e-11
4.98218e-05
1.02244e-08
-2.50089e-10
4.9821e-05
9.40271e-09
-4.10494e-10
4.90152e-05
8.14246e-09
-5.78214e-10
4.7383e-05
6.576e-09
-7.48558e-10
4.48808e-05
4.87346e-09
-9.09945e-10
4.14421e-05
3.22377e-09
-1.04141e-09
3.69759e-05
1.80528e-09
-1.11007e-09
3.13631e-05
7.60775e-10
-1.06924e-09
2.44547e-05
1.74329e-10
-8.57671e-10
1.607e-05
-3.96845e-10
5.99764e-06
2.9047e-10
2.4382e-10
6.39264e-06
1.09524e-09
5.02059e-10
1.72221e-05
2.3915e-09
5.9791e-10
2.63053e-05
4.04179e-09
5.90145e-10
3.38358e-05
5.87815e-09
5.20302e-10
3.99843e-05
7.72005e-09
4.16837e-10
4.48955e-05
9.38448e-09
2.97364e-10
4.8688e-05
1.07057e-08
1.71172e-10
5.14543e-05
1.15493e-08
4.177e-11
5.32615e-05
1.18249e-08
-9.09201e-11
5.4154e-05
1.1497e-08
-2.28569e-10
5.41534e-05
1.05916e-08
-3.72595e-10
5.32586e-05
9.19639e-09
-5.22328e-10
5.14476e-05
7.45518e-09
-6.73091e-10
4.86756e-05
5.55373e-09
-8.14166e-10
4.48752e-05
3.69995e-09
-9.26726e-10
3.99551e-05
2.09277e-09
-9.81908e-10
3.37991e-05
8.95794e-10
-9.39527e-10
2.62654e-05
2.11436e-10
-7.47911e-10
1.71871e-05
-3.42779e-10
6.37531e-06
3.20319e-10
1.76046e-10
6.66481e-06
1.20133e-09
3.65445e-10
1.80274e-05
2.61355e-09
4.37995e-10
2.7613e-05
4.40499e-09
4.34591e-10
3.55995e-05
6.39265e-09
3.84795e-10
4.21471e-05
8.38204e-09
3.09211e-10
4.73942e-05
1.01773e-08
2.20829e-10
5.14561e-05
1.16018e-08
1.26674e-10
5.44239e-05
1.25122e-08
2.95558e-11
5.63654e-05
1.28124e-08
-7.03539e-11
5.7325e-05
1.24644e-08
-1.74061e-10
5.73244e-05
1.14949e-08
-2.82369e-10
5.63626e-05
9.99674e-09
-3.94516e-10
5.44174e-05
8.12214e-09
-5.06749e-10
5.14434e-05
6.06892e-09
-6.10845e-10
4.73732e-05
4.05962e-09
-6.9266e-10
4.21168e-05
2.30897e-09
-7.30831e-10
3.5561e-05
9.96576e-10
-6.96044e-10
2.7571e-05
2.38751e-10
-5.5115e-10
1.79905e-05
-2.50914e-10
6.64648e-06
3.39936e-10
9.21144e-11
6.84095e-06
1.27164e-09
1.9212e-10
1.8549e-05
2.76146e-09
2.3112e-10
2.84612e-05
4.6477e-09
2.30033e-10
3.67459e-05
6.73719e-09
2.04183e-10
4.35554e-05
8.82591e-09
1.64364e-10
4.90241e-05
1.07093e-08
1.17453e-10
5.32645e-05
1.22033e-08
6.72273e-11
5.63666e-05
1.31587e-08
1.52412e-11
5.83975e-05
1.34754e-08
-3.83415e-11
5.94018e-05
1.31137e-08
-9.39799e-11
5.9401e-05
1.21009e-08
-1.52022e-10
5.83946e-05
1.05332e-08
-2.11978e-10
5.63599e-05
8.56864e-09
-2.71762e-10
5.32515e-05
6.4132e-09
-3.2692e-10
4.90025e-05
4.2993e-09
-3.69878e-10
4.3524e-05
2.45244e-09
-3.89296e-10
3.6706e-05
1.06302e-09
-3.69749e-10
2.84177e-05
2.56547e-10
-2.91861e-10
1.85107e-05
-1.32345e-10
6.82188e-06
3.49643e-10
3.625e-15
6.92749e-06
1.30662e-09
8.375e-15
1.88054e-05
2.83525e-09
1.2e-14
2.88785e-05
4.76904e-09
1.2875e-14
3.73103e-05
6.90969e-09
1.225e-14
4.42499e-05
9.04838e-09
1.0875e-14
4.98286e-05
1.09762e-08
9.625e-15
5.41578e-05
1.25051e-08
8.625e-15
5.73268e-05
1.34831e-08
7.8875e-15
5.94023e-05
1.3808e-08
7.3875e-15
6.04289e-05
1.34393e-08
6.875e-15
6.04283e-05
1.24047e-08
6.375e-15
5.93995e-05
1.08019e-08
5.625e-15
5.73199e-05
8.79209e-09
4.75e-15
5.41445e-05
6.58525e-09
3.75e-15
4.98065e-05
4.41885e-09
2.5e-15
4.42178e-05
2.5238e-09
1.25e-15
3.72698e-05
1.09592e-09
-2.5e-16
2.88341e-05
2.65291e-10
-1e-15
1.87663e-05
-6.25e-16
6.90805e-06
3.49642e-10
-9.21066e-11
6.92749e-06
1.30661e-09
-1.92101e-10
1.88054e-05
2.83525e-09
-2.31094e-10
2.88785e-05
4.76904e-09
-2.30006e-10
3.73102e-05
6.90969e-09
-2.04158e-10
4.42499e-05
9.04837e-09
-1.64343e-10
4.98286e-05
1.09761e-08
-1.17435e-10
5.41578e-05
1.25051e-08
-6.72106e-11
5.73267e-05
1.34831e-08
-1.52259e-11
5.94022e-05
1.3808e-08
3.83558e-11
6.04289e-05
1.34393e-08
9.39934e-11
6.04282e-05
1.24047e-08
1.52035e-10
5.93995e-05
1.08019e-08
2.11989e-10
5.73199e-05
8.79209e-09
2.71772e-10
5.41445e-05
6.58525e-09
3.26929e-10
4.98065e-05
4.41885e-09
3.69883e-10
4.42178e-05
2.5238e-09
3.89297e-10
3.72698e-05
1.09591e-09
3.69747e-10
2.88341e-05
2.65291e-10
2.91858e-10
1.87663e-05
1.32343e-10
6.90805e-06
3.39936e-10
-1.76037e-10
6.84095e-06
1.27164e-09
-3.65422e-10
1.8549e-05
2.76146e-09
-4.37967e-10
2.84612e-05
4.6477e-09
-4.34565e-10
3.67459e-05
6.7372e-09
-3.84772e-10
4.35554e-05
8.82594e-09
-3.09192e-10
4.90241e-05
1.07094e-08
-2.20812e-10
5.32645e-05
1.22033e-08
-1.26659e-10
5.63666e-05
1.31588e-08
-2.95419e-11
5.83975e-05
1.34755e-08
7.03673e-11
5.94018e-05
1.31137e-08
1.74073e-10
5.9401e-05
1.21009e-08
2.8238e-10
5.83946e-05
1.05332e-08
3.94526e-10
5.63599e-05
8.56864e-09
5.06759e-10
5.32515e-05
6.4132e-09
6.10855e-10
4.90025e-05
4.2993e-09
6.92665e-10
4.3524e-05
2.45244e-09
7.30831e-10
3.6706e-05
1.06302e-09
6.9604e-10
2.84177e-05
2.56546e-10
5.51143e-10
1.85107e-05
2.5091e-10
6.82188e-06
3.20319e-10
-2.4381e-10
6.66481e-06
1.20133e-09
-5.02035e-10
1.80274e-05
2.61355e-09
-5.97885e-10
2.7613e-05
4.40499e-09
-5.90124e-10
3.55995e-05
6.39265e-09
-5.20284e-10
4.21471e-05
8.38204e-09
-4.16822e-10
4.73943e-05
1.01773e-08
-2.9735e-10
5.14561e-05
1.16018e-08
-1.7116e-10
5.44239e-05
1.25122e-08
-4.17579e-11
5.63654e-05
1.28124e-08
9.09321e-11
5.7325e-05
1.24644e-08
2.28581e-10
5.73244e-05
1.14949e-08
3.72605e-10
5.63626e-05
9.99676e-09
5.22338e-10
5.44174e-05
8.12216e-09
6.73101e-10
5.14434e-05
6.06895e-09
8.14175e-10
4.73732e-05
4.05964e-09
9.26733e-10
4.21168e-05
2.30897e-09
9.81909e-10
3.5561e-05
9.96575e-10
9.39524e-10
2.7571e-05
2.38751e-10
7.47904e-10
1.79905e-05
3.42776e-10
6.64648e-06
2.90467e-10
-2.87941e-10
6.39264e-06
1.09523e-09
-5.8598e-10
1.72221e-05
2.39149e-09
-6.91395e-10
2.63053e-05
4.04179e-09
-6.77225e-10
3.38358e-05
5.87816e-09
-5.93386e-10
3.99843e-05
7.72006e-09
-4.73276e-10
4.48955e-05
9.38449e-09
-3.37026e-10
4.8688e-05
1.07058e-08
-1.94871e-10
5.14543e-05
1.15493e-08
-5.03237e-11
5.32615e-05
1.18249e-08
9.72001e-11
5.4154e-05
1.1497e-08
2.501e-10
5.41534e-05
1.05916e-08
4.10504e-10
5.32586e-05
9.19641e-09
5.78224e-10
5.14478e-05
7.45519e-09
7.48568e-10
4.86756e-05
5.55373e-09
9.09954e-10
4.48752e-05
3.69995e-09
1.04142e-09
3.99551e-05
2.09277e-09
1.11008e-09
3.37991e-05
8.9579e-10
1.06924e-09
2.62654e-05
2.11434e-10
8.57673e-10
1.71871e-05
3.96846e-10
6.37531e-06
2.50165e-10
-3.02039e-10
6.01374e-06
9.53549e-10
-6.04951e-10
1.61026e-05
2.09682e-09
-7.04782e-10
2.44921e-05
3.56166e-09
-6.83225e-10
3.13975e-05
5.19964e-09
-5.9365e-10
3.70034e-05
6.84826e-09
-4.70624e-10
4.14614e-05
8.34117e-09
-3.34254e-10
4.48927e-05
9.52707e-09
-1.94256e-10
4.73894e-05
1.02828e-08
-5.35081e-11
4.90182e-05
1.05259e-08
8.92305e-11
4.98217e-05
1.02244e-08
2.36987e-10
4.9821e-05
9.40274e-09
3.92532e-10
4.90152e-05
8.1425e-09
5.56409e-10
4.7383e-05
6.57604e-09
7.24755e-10
4.48807e-05
4.87347e-09
8.86826e-10
4.14421e-05
3.22377e-09
1.02233e-09
3.69759e-05
1.80527e-09
1.09847e-09
3.13631e-05
7.6077e-10
1.06745e-09
2.44547e-05
1.74326e-10
8.64911e-10
1.607e-05
4.052e-10
5.99764e-06
1.99787e-10
-2.81864e-10
5.5115e-06
7.78363e-10
-5.52836e-10
1.46226e-05
1.73472e-09
-6.33435e-10
2.21048e-05
2.97373e-09
-6.05791e-10
2.82025e-05
4.37033e-09
-5.20581e-10
3.31151e-05
5.78366e-09
-4.09405e-10
3.7e-05
7.06755e-09
-2.8968e-10
3.9978e-05
8.08833e-09
-1.69244e-10
4.21388e-05
8.73696e-09
-4.99194e-11
4.35456e-05
8.94051e-09
7.00931e-11
4.42391e-05
8.6714e-09
1.94118e-10
4.42383e-05
7.95236e-09
3.25256e-10
4.35428e-05
6.85705e-09
4.64763e-10
4.21323e-05
5.5038e-09
6.10156e-10
3.99663e-05
4.04349e-09
7.52916e-10
3.69815e-05
2.64201e-09
8.76071e-10
3.30893e-05
1.45301e-09
9.51093e-10
2.81704e-05
5.94361e-10
9.34732e-10
2.20703e-05
1.28056e-10
7.67076e-10
1.45926e-05
3.64918e-10
5.49675e-06
1.40935e-10
-2.26931e-10
4.85988e-06
5.75704e-10
-4.33385e-10
1.27118e-05
1.31746e-09
-4.85854e-10
1.90442e-05
2.29703e-09
-4.56724e-10
2.41361e-05
3.41559e-09
-3.86861e-10
2.81993e-05
4.55706e-09
-3.01036e-10
3.1391e-05
5.59875e-09
-2.11892e-10
3.38264e-05
6.42788e-09
-1.24423e-10
3.55879e-05
6.95238e-09
-3.935e-11
3.67325e-05
7.11086e-09
4.52974e-11
3.72959e-05
6.88079e-09
1.32584e-10
3.7295e-05
6.28266e-09
2.25389e-10
3.67293e-05
5.38031e-09
3.25342e-10
3.55813e-05
4.27509e-09
4.31403e-10
3.3815e-05
3.09494e-09
5.38042e-10
3.13736e-05
1.97884e-09
6.33571e-10
2.81754e-05
1.0522e-09
6.97006e-10
2.41069e-05
4.05e-10
6.94714e-10
1.9013e-05
7.51039e-11
5.79175e-10
1.26848e-05
2.80357e-10
4.84659e-06
7.77062e-11
-1.45756e-10
4.01534e-06
3.58737e-10
-2.68454e-10
1.02613e-05
8.69055e-10
-2.92295e-10
1.51664e-05
1.56612e-09
-2.68645e-10
1.90418e-05
2.37883e-09
-2.23236e-10
2.20994e-05
3.21871e-09
-1.71238e-10
2.44835e-05
3.99025e-09
-1.19637e-10
2.62939e-05
4.6052e-09
-7.05713e-11
2.75994e-05
4.99159e-09
-2.39877e-11
2.84459e-05
5.10176e-09
2.16971e-11
2.88621e-05
4.91894e-09
6.86689e-11
2.8861e-05
4.46045e-09
1.18978e-10
2.84427e-05
3.77775e-09
1.74056e-10
2.7593e-05
2.95154e-09
2.33871e-10
2.62835e-05
2.08267e-09
2.9582e-10
2.44679e-05
1.27903e-09
3.53937e-10
2.20784e-05
6.34674e-10
3.9629e-10
1.90164e-05
2.10666e-10
4.02244e-10
1.51394e-05
2.14e-11
3.42079e-10
1.0238e-05
1.68918e-10
4.00377e-06
2.02573e-11
-5.95888e-11
2.89528e-06
1.53558e-10
-1.02941e-10
7.09274e-06
4.32283e-10
-1.06749e-10
1.02601e-05
8.38263e-10
-9.53485e-11
1.27086e-05
1.3284e-09
-7.71432e-11
1.46168e-05
1.84458e-09
-5.79443e-11
1.60943e-05
2.32322e-09
-4.00863e-11
1.72115e-05
2.70531e-09
-2.37272e-11
1.80149e-05
2.94298e-09
-8.70078e-12
1.8535e-05
3.00489e-09
5.72165e-12
1.87903e-05
2.88059e-09
2.04909e-11
1.87895e-05
2.58267e-09
3.64731e-11
1.85322e-05
2.14668e-09
5.43936e-11
1.80096e-05
1.6276e-09
7.44818e-11
1.7203e-05
1.09353e-09
9.60428e-11
1.60821e-05
6.16077e-10
1.17611e-10
1.46007e-05
2.55465e-10
1.3506e-10
1.26892e-05
4.49406e-11
1.40475e-10
1.02395e-05
-1.99395e-11
1.23703e-10
7.07475e-06
6.35706e-11
2.88608e-06
-1.4209e-11
1.30837e-06
6.399e-12
2.89503e-06
7.99586e-11
4.01443e-06
2.05328e-10
4.85795e-06
3.67496e-10
5.50836e-06
5.44136e-10
6.00935e-06
7.10311e-10
6.38711e-06
8.43185e-10
6.65833e-06
9.24413e-10
6.83369e-06
9.42175e-10
6.91966e-06
8.92869e-10
6.91921e-06
7.81883e-10
6.83226e-06
6.2354e-10
6.6557e-06
4.39684e-10
6.38304e-06
2.57125e-10
6.0036e-06
1.03865e-10
5.50086e-06
2.20987e-12
4.849e-06
-3.8744e-11
4.00482e-06
-2.94569e-11
2.88633e-06
1.30345e-06
-4.81505e-11
1.78657e-10
1.30825e-06
2.01312e-12
3.10496e-10
2.89469e-06
2.06442e-10
3.25494e-10
4.01391e-06
5.65576e-10
2.91468e-10
4.85731e-06
1.0361e-09
2.37519e-10
5.50766e-06
1.55167e-09
1.79735e-10
6.00866e-06
2.03888e-09
1.24895e-10
6.38651e-06
2.42946e-09
7.43102e-11
6.65786e-06
2.66834e-09
2.72494e-11
6.83342e-06
2.72003e-09
-1.84119e-11
6.91963e-06
2.5735e-09
-6.53272e-11
6.91941e-06
2.24465e-09
-1.16002e-10
6.8327e-06
1.77621e-09
-1.72374e-10
6.65633e-06
1.2339e-09
-2.34985e-10
6.3838e-06
6.9853e-10
-3.0186e-10
6.00442e-06
2.53593e-10
-3.67542e-10
5.50166e-06
-3.38594e-11
-4.19529e-10
4.84969e-06
-1.38213e-10
-4.3496e-10
4.00534e-06
-9.5796e-11
-3.7894e-10
2.88664e-06
-1.92942e-10
1.30354e-06
4.62475e-11
4.39561e-10
2.89496e-06
4.19131e-10
8.14281e-10
7.09185e-06
1.21913e-09
8.91796e-10
1.02587e-05
2.40043e-09
8.23231e-10
1.27068e-05
3.837e-09
6.8801e-10
1.46149e-05
5.3564e-09
5.30672e-10
1.60924e-05
6.77021e-09
3.72428e-10
1.72098e-05
7.9018e-09
2.20463e-10
1.80136e-05
8.60711e-09
7.45676e-11
1.85342e-05
8.79164e-09
-6.97193e-11
1.87902e-05
8.42316e-09
-2.18534e-10
1.879e-05
7.53865e-09
-3.77677e-10
1.85333e-05
6.24409e-09
-5.50893e-10
1.80113e-05
4.70495e-09
-7.37518e-10
1.72051e-05
3.12654e-09
-9.29361e-10
1.60843e-05
1.7235e-09
-1.10706e-09
1.46029e-05
6.76854e-10
-1.23359e-09
1.26911e-05
8.40012e-11
-1.2468e-09
1.0241e-05
-7.84859e-11
-1.05395e-09
7.07561e-06
-5.16635e-10
2.88634e-06
2.13999e-10
6.8761e-10
4.01489e-06
1.02099e-09
1.3188e-09
1.026e-05
2.50547e-09
1.48529e-09
1.51643e-05
4.55116e-09
1.40207e-09
1.90392e-05
6.94876e-09
1.19339e-09
2.20964e-05
9.43469e-09
9.32995e-10
2.44806e-05
1.17255e-08
6.59325e-10
2.62913e-05
1.35561e-08
3.88099e-10
2.75974e-05
1.47094e-08
1.21653e-10
2.84447e-05
1.50414e-08
-1.45383e-10
2.88618e-05
1.45001e-08
-4.21532e-10
2.88617e-05
1.3136e-08
-7.1476e-10
2.84444e-05
1.11027e-08
-1.02903e-09
2.75955e-05
8.6432e-09
-1.36015e-09
2.62865e-05
6.06219e-09
-1.69053e-09
2.44712e-05
3.68351e-09
-1.98311e-09
2.20816e-05
1.79107e-09
-2.1728e-09
1.90193e-05
5.66227e-10
-2.15724e-09
1.51415e-05
3.98648e-11
-1.79012e-09
1.02393e-05
-8.62008e-10
4.00415e-06
4.01717e-10
8.57356e-10
4.85933e-06
1.66725e-09
1.68732e-09
1.27102e-05
3.84363e-09
1.94036e-09
1.90416e-05
6.73596e-09
1.86274e-09
2.41327e-05
1.00521e-08
1.6074e-09
2.81955e-05
1.34456e-08
1.26929e-09
3.13872e-05
1.65513e-08
9.0126e-10
3.3823e-05
1.90296e-08
5.27391e-10
3.55852e-05
2.06023e-08
1.53604e-10
3.67309e-05
2.1083e-08
-2.24763e-10
3.72955e-05
2.04019e-08
-6.16809e-10
3.72959e-05
1.86185e-08
-1.03086e-09
3.67314e-05
1.59235e-08
-1.46944e-09
3.55844e-05
1.26224e-08
-1.92361e-09
3.38189e-05
9.1023e-09
-2.36617e-09
3.13779e-05
5.78163e-09
-2.7439e-09
2.81795e-05
3.03951e-09
-2.96845e-09
2.41104e-05
1.14497e-09
-2.90729e-09
1.90156e-05
1.98637e-10
-2.37705e-09
1.26864e-05
-1.12619e-09
4.84704e-06
5.78704e-10
9.21619e-10
5.51089e-06
2.27701e-09
1.85089e-09
1.46207e-05
5.0999e-09
2.16289e-09
2.21018e-05
8.77513e-09
2.10376e-09
2.81986e-05
1.29317e-08
1.83468e-09
3.31108e-05
1.71486e-08
1.45983e-09
3.69955e-05
2.09892e-08
1.04002e-09
3.9974e-05
2.40505e-08
6.04989e-10
4.21356e-05
2.60021e-08
1.63976e-10
4.35437e-05
2.66224e-08
-2.85909e-10
4.42386e-05
2.58253e-08
-7.52741e-10
4.42391e-05
2.36769e-08
-1.24366e-09
4.35451e-05
2.03974e-08
-1.75884e-09
4.21359e-05
1.63438e-08
-2.28496e-09
3.99708e-05
1.19735e-08
-2.78775e-09
3.69862e-05
7.7869e-09
-3.20378e-09
3.30939e-05
4.24972e-09
-3.43166e-09
2.81744e-05
1.71563e-09
-3.32457e-09
2.20732e-05
3.57778e-10
-2.68545e-09
1.45943e-05
-1.25395e-09
5.49721e-06
7.31493e-10
8.80672e-10
6.0131e-06
2.80797e-09
1.79628e-09
1.61006e-05
6.19745e-09
2.12495e-09
2.44887e-05
1.0558e-08
2.0877e-09
3.13931e-05
1.54481e-08
1.83541e-09
3.69985e-05
2.0381e-08
1.46882e-09
4.14565e-05
2.48589e-08
1.04883e-09
4.48883e-05
2.84247e-08
6.06722e-10
4.73859e-05
3.0705e-08
1.53672e-10
4.90159e-05
3.14479e-08
-3.11245e-10
4.9821e-05
3.0554e-08
-7.942e-10
4.98219e-05
2.80942e-08
-1.30034e-09
4.90177e-05
2.43127e-08
-1.82763e-09
4.73869e-05
1.96094e-08
-2.3602e-09
4.48855e-05
1.45004e-08
-2.8612e-09
4.14472e-05
9.55695e-09
-3.26516e-09
3.69809e-05
5.3205e-09
-3.47045e-09
3.13674e-05
2.22089e-09
-3.33356e-09
2.44578e-05
4.98098e-10
-2.66676e-09
1.60718e-05
-1.23045e-09
5.99808e-06
8.54488e-10
7.47025e-10
6.39198e-06
3.23993e-09
1.54121e-09
1.72199e-05
7.09551e-09
1.83973e-09
2.63016e-05
1.20214e-08
1.82093e-09
3.38311e-05
1.75168e-08
1.61044e-09
3.99789e-05
2.30401e-08
1.29422e-09
4.48901e-05
2.80429e-08
9.25553e-10
4.86831e-05
3.20238e-08
5.32831e-10
5.14503e-05
3.45741e-08
1.27134e-10
5.3259e-05
3.54181e-08
-2.91028e-10
5.41531e-05
3.44453e-08
-7.2575e-10
5.41543e-05
3.17303e-08
-1.18016e-09
5.32613e-05
2.75365e-08
-1.65092e-09
5.14518e-05
2.22985e-08
-2.12242e-09
4.86806e-05
1.65806e-08
-2.56059e-09
4.48806e-05
1.10126e-08
-2.9067e-09
3.99604e-05
6.19886e-09
-3.0715e-09
3.38035e-05
2.63316e-09
-2.93137e-09
2.62686e-05
6.11314e-10
-2.32785e-09
1.71889e-05
-1.06426e-09
6.37573e-06
9.46087e-10
5.40048e-10
6.66414e-06
3.56489e-09
1.12298e-09
1.80252e-05
7.7751e-09
1.34882e-09
2.76092e-05
1.31327e-08
1.34187e-09
3.55946e-05
1.90912e-08
1.19163e-09
4.21415e-05
2.50666e-08
9.60385e-10
4.73886e-05
3.04709e-08
6.87455e-10
5.1451e-05
3.4769e-08
3.94291e-10
5.44197e-05
3.75255e-08
8.97415e-11
5.63627e-05
3.84464e-08
-2.25123e-10
5.73241e-05
3.74127e-08
-5.52624e-10
5.73252e-05
3.4502e-08
-8.94331e-10
5.63652e-05
2.99925e-08
-1.24695e-09
5.44215e-05
2.43452e-08
-1.59801e-09
5.14485e-05
1.81614e-08
-1.92145e-09
4.73787e-05
1.21159e-08
-2.17313e-09
4.21221e-05
6.8619e-09
-2.287e-09
3.55655e-05
2.94218e-09
-2.17283e-09
2.75741e-05
6.95076e-10
-1.71663e-09
1.79922e-05
-7.79749e-10
6.64684e-06
1.00652e-09
2.82776e-10
6.84026e-06
3.78099e-09
5.90716e-10
1.85467e-05
8.22914e-09
7.12085e-10
2.84574e-05
1.38774e-08
7.10538e-10
3.67409e-05
2.01483e-08
6.32498e-10
4.35497e-05
2.64287e-08
5.10605e-10
4.90184e-05
3.21041e-08
3.65681e-10
5.32591e-05
3.66164e-08
2.09248e-10
5.63622e-05
3.95119e-08
4.6203e-11
5.83946e-05
4.04842e-08
-1.22666e-10
5.94008e-05
3.94089e-08
-2.98362e-10
5.94019e-05
3.63655e-08
-4.8148e-10
5.83972e-05
3.16424e-08
-6.70003e-10
5.6364e-05
2.57184e-08
-8.5703e-10
5.32568e-05
1.92203e-08
-1.02845e-09
4.90081e-05
1.28531e-08
-1.16062e-09
4.35294e-05
7.3031e-09
-1.2185e-09
3.67105e-05
3.14651e-09
-1.15459e-09
2.84209e-05
7.49837e-10
-9.09396e-10
1.85123e-05
-4.11494e-10
6.8222e-06
1.03648e-09
4.25e-15
6.9268e-06
3.88868e-09
1.125e-14
1.88031e-05
8.45609e-09
1.5e-14
2.88746e-05
1.42504e-08
1.625e-14
3.73051e-05
2.06785e-08
1.75e-14
4.4244e-05
2.71125e-08
1.75e-14
4.98228e-05
3.29244e-08
1.6625e-14
5.41524e-05
3.75444e-08
1.7125e-14
5.73223e-05
4.05098e-08
1.77625e-14
5.93994e-05
4.15078e-08
1.875e-14
6.04278e-05
4.04113e-08
1.95e-14
6.0429e-05
3.73009e-08
1.9875e-14
5.94021e-05
3.247e-08
1.875e-14
5.73241e-05
2.64067e-08
1.875e-14
5.41498e-05
1.97503e-08
1.75e-14
4.98121e-05
1.32213e-08
1.5e-14
4.42231e-05
7.52291e-09
1.25e-14
3.72743e-05
3.24787e-09
8.75e-15
2.88372e-05
7.76797e-10
5e-15
1.87679e-05
1.5e-15
6.90836e-06
1.03648e-09
-2.82767e-10
6.9268e-06
3.88868e-09
-5.90692e-10
1.88031e-05
8.45609e-09
-7.12055e-10
2.88746e-05
1.42504e-08
-7.10504e-10
3.73051e-05
2.06785e-08
-6.32464e-10
4.4244e-05
2.71125e-08
-5.10573e-10
4.98227e-05
3.29244e-08
-3.6565e-10
5.41524e-05
3.75444e-08
-2.09215e-10
5.73222e-05
4.05097e-08
-4.61686e-11
5.93994e-05
4.15077e-08
1.22702e-10
6.04278e-05
4.04112e-08
2.984e-10
6.0429e-05
3.73009e-08
4.81519e-10
5.94021e-05
3.247e-08
6.7004e-10
5.73241e-05
2.64067e-08
8.57068e-10
5.41498e-05
1.97503e-08
1.02848e-09
4.98121e-05
1.32213e-08
1.16065e-09
4.42231e-05
7.52291e-09
1.21852e-09
3.72743e-05
3.24787e-09
1.1546e-09
2.88372e-05
7.76797e-10
9.09404e-10
1.87679e-05
4.11496e-10
6.90836e-06
1.00652e-09
-5.40036e-10
6.84026e-06
3.78099e-09
-1.12295e-09
1.85467e-05
8.22915e-09
-1.34879e-09
2.84574e-05
1.38774e-08
-1.34183e-09
3.67409e-05
2.01484e-08
-1.1916e-09
4.35497e-05
2.64287e-08
-9.60358e-10
4.90184e-05
3.21041e-08
-6.87428e-10
5.32591e-05
3.66165e-08
-3.94261e-10
5.63622e-05
3.9512e-08
-8.97101e-11
5.83946e-05
4.04842e-08
2.25157e-10
5.94008e-05
3.94089e-08
5.52659e-10
5.94019e-05
3.63655e-08
8.94367e-10
5.83972e-05
3.16424e-08
1.24698e-09
5.6364e-05
2.57185e-08
1.59805e-09
5.32568e-05
1.92203e-08
1.92148e-09
4.90081e-05
1.28531e-08
2.17316e-09
4.35294e-05
7.30311e-09
2.28702e-09
3.67105e-05
3.14651e-09
2.17284e-09
2.84209e-05
7.49837e-10
1.71663e-09
1.85123e-05
7.79749e-10
6.8222e-06
9.46087e-10
-7.47012e-10
6.66414e-06
3.56489e-09
-1.54118e-09
1.80252e-05
7.7751e-09
-1.8397e-09
2.76093e-05
1.31327e-08
-1.8209e-09
3.55946e-05
1.90912e-08
-1.61042e-09
4.21415e-05
2.50666e-08
-1.29419e-09
4.73886e-05
3.04709e-08
-9.2553e-10
5.1451e-05
3.4769e-08
-5.32806e-10
5.44198e-05
3.75255e-08
-1.27108e-10
5.63628e-05
3.84464e-08
2.91058e-10
5.73241e-05
3.74128e-08
7.25781e-10
5.73253e-05
3.4502e-08
1.18019e-09
5.63653e-05
2.99925e-08
1.65096e-09
5.44215e-05
2.43452e-08
2.12245e-09
5.14485e-05
1.81615e-08
2.56062e-09
4.73787e-05
1.2116e-08
2.90673e-09
4.21221e-05
6.86191e-09
3.07151e-09
3.55655e-05
2.94218e-09
2.93137e-09
2.75741e-05
6.95075e-10
2.32785e-09
1.79922e-05
1.06426e-09
6.64684e-06
8.54487e-10
-8.80664e-10
6.39198e-06
3.23993e-09
-1.79626e-09
1.72199e-05
7.09551e-09
-2.12494e-09
2.63016e-05
1.20214e-08
-2.08769e-09
3.38311e-05
1.75168e-08
-1.83539e-09
3.99789e-05
2.30403e-08
-1.46881e-09
4.48901e-05
2.8043e-08
-1.04882e-09
4.86831e-05
3.20239e-08
-6.06702e-10
5.14503e-05
3.45743e-08
-1.53651e-10
5.3259e-05
3.54181e-08
3.11269e-10
5.41531e-05
3.44453e-08
7.94226e-10
5.41543e-05
3.17303e-08
1.30037e-09
5.32613e-05
2.75365e-08
1.82766e-09
5.14518e-05
2.22985e-08
2.36022e-09
4.86806e-05
1.65806e-08
2.86122e-09
4.48806e-05
1.10126e-08
3.26519e-09
3.99604e-05
6.19886e-09
3.47048e-09
3.38035e-05
2.63316e-09
3.33357e-09
2.62686e-05
6.11313e-10
2.66678e-09
1.71889e-05
1.23045e-09
6.37573e-06
7.3149e-10
-9.21617e-10
6.0131e-06
2.80797e-09
-1.85089e-09
1.61006e-05
6.19745e-09
-2.16289e-09
2.44887e-05
1.0558e-08
-2.10376e-09
3.13931e-05
1.54481e-08
-1.83467e-09
3.69985e-05
2.0381e-08
-1.45982e-09
4.14565e-05
2.48589e-08
-1.04001e-09
4.48882e-05
2.84247e-08
-6.04975e-10
4.73859e-05
3.0705e-08
-1.6396e-10
4.90159e-05
3.14479e-08
2.85926e-10
4.9821e-05
3.0554e-08
7.52761e-10
4.98219e-05
2.80942e-08
1.24368e-09
4.90177e-05
2.43128e-08
1.75886e-09
4.73869e-05
1.96094e-08
2.28499e-09
4.48855e-05
1.45004e-08
2.78777e-09
4.14472e-05
9.55696e-09
3.2038e-09
3.69809e-05
5.3205e-09
3.43169e-09
3.13674e-05
2.22089e-09
3.32461e-09
2.44578e-05
4.98097e-10
2.68548e-09
1.60717e-05
1.25396e-09
5.99807e-06
5.787e-10
-8.57359e-10
5.51089e-06
2.27699e-09
-1.68733e-09
1.46207e-05
5.09989e-09
-1.94036e-09
2.21018e-05
8.77514e-09
-1.86273e-09
2.81986e-05
1.29317e-08
-1.60739e-09
3.31108e-05
1.71486e-08
-1.26929e-09
3.69955e-05
2.09893e-08
-9.01256e-10
3.9974e-05
2.40505e-08
-5.27385e-10
4.21356e-05
2.60021e-08
-1.53595e-10
4.35438e-05
2.66224e-08
2.24775e-10
4.42386e-05
2.58253e-08
6.16824e-10
4.42391e-05
2.36769e-08
1.03088e-09
4.35451e-05
2.03974e-08
1.46946e-09
4.21359e-05
1.63439e-08
1.92363e-09
3.99708e-05
1.19735e-08
2.36619e-09
3.69862e-05
7.78693e-09
2.74393e-09
3.30939e-05
4.24974e-09
2.96847e-09
2.81744e-05
1.71563e-09
2.90732e-09
2.20732e-05
3.57776e-10
2.37708e-09
1.45943e-05
1.1262e-09
5.49721e-06
4.01709e-10
-6.87602e-10
4.85933e-06
1.66724e-09
-1.31878e-09
1.27102e-05
3.84361e-09
-1.48527e-09
1.90416e-05
6.73596e-09
-1.40205e-09
2.41327e-05
1.00521e-08
-1.19338e-09
2.81955e-05
1.34457e-08
-9.32999e-10
3.13873e-05
1.65514e-08
-6.59329e-10
3.3823e-05
1.90297e-08
-3.881e-10
3.55853e-05
2.06023e-08
-1.21651e-10
3.67309e-05
2.10831e-08
1.45389e-10
3.72955e-05
2.04019e-08
4.21541e-10
3.72959e-05
1.86186e-08
7.14774e-10
3.67314e-05
1.59236e-08
1.02905e-09
3.55844e-05
1.26224e-08
1.36018e-09
3.38189e-05
9.10234e-09
1.69056e-09
3.13779e-05
5.78164e-09
1.98313e-09
2.81795e-05
3.03951e-09
2.17281e-09
2.41104e-05
1.14496e-09
2.15725e-09
1.90156e-05
1.98635e-10
1.79012e-09
1.26864e-05
8.62006e-10
4.84704e-06
2.13985e-10
-4.39531e-10
4.01489e-06
1.02096e-09
-8.14218e-10
1.026e-05
2.50545e-09
-8.91749e-10
1.51643e-05
4.55116e-09
-8.23206e-10
1.90392e-05
6.94879e-09
-6.88007e-10
2.20965e-05
9.43474e-09
-5.30681e-10
2.44806e-05
1.17255e-08
-3.72438e-10
2.62912e-05
1.35561e-08
-2.2047e-10
2.75974e-05
1.47095e-08
-7.45701e-11
2.84447e-05
1.50415e-08
6.97206e-11
2.88617e-05
1.45001e-08
2.18539e-10
2.88617e-05
1.3136e-08
3.77688e-10
2.84444e-05
1.11027e-08
5.50911e-10
2.75955e-05
8.64324e-09
7.37547e-10
2.62865e-05
6.0622e-09
9.29396e-10
2.44712e-05
3.68351e-09
1.10708e-09
2.20816e-05
1.79106e-09
1.23359e-09
1.90192e-05
5.66208e-10
1.24677e-09
1.51415e-05
3.98566e-11
1.0539e-09
1.02393e-05
5.16612e-10
4.00415e-06
4.62253e-11
-1.78622e-10
2.89496e-06
4.19088e-10
-3.10432e-10
7.09185e-06
1.21909e-09
-3.25452e-10
1.02587e-05
2.40041e-09
-2.9145e-10
1.27068e-05
3.837e-09
-2.37519e-10
1.46149e-05
5.35641e-09
-1.79744e-10
1.60924e-05
6.77025e-09
-1.24905e-10
1.72098e-05
7.90185e-09
-7.43174e-11
1.80136e-05
8.60716e-09
-2.72532e-11
1.85342e-05
8.79169e-09
1.84107e-11
1.87902e-05
8.42321e-09
6.53289e-11
1.879e-05
7.53871e-09
1.16007e-10
1.85334e-05
6.24416e-09
1.72385e-10
1.80113e-05
4.70501e-09
2.35007e-10
1.72051e-05
3.12656e-09
3.01887e-10
1.60843e-05
1.72347e-09
3.67557e-10
1.46029e-05
6.7681e-10
4.19519e-10
1.26911e-05
8.39625e-11
4.34924e-10
1.0241e-05
-7.85021e-11
3.78885e-10
7.07561e-06
1.92915e-10
2.88634e-06
-4.81675e-11
1.30825e-06
1.97825e-12
2.89469e-06
2.06405e-10
4.01391e-06
5.65551e-10
4.85731e-06
1.03609e-09
5.50766e-06
1.55169e-09
6.00866e-06
2.03891e-09
6.38651e-06
2.42949e-09
6.65786e-06
2.66836e-09
6.83343e-06
2.72005e-09
6.91963e-06
2.57352e-09
6.91941e-06
2.24468e-09
6.8327e-06
1.77624e-09
6.65633e-06
1.23392e-09
6.3838e-06
6.98526e-10
6.00442e-06
2.53565e-10
5.50166e-06
-3.39014e-11
4.84969e-06
-1.38247e-10
4.00534e-06
-9.58084e-11
2.88664e-06
1.30354e-06
-7.5411e-11
3.12664e-10
1.30802e-06
2.87835e-11
5.40116e-10
2.89407e-06
4.05617e-10
5.64482e-10
4.013e-06
1.05291e-09
5.03813e-10
4.85618e-06
1.89329e-09
4.09866e-10
5.50644e-06
2.81069e-09
3.0969e-10
6.00745e-06
3.67766e-09
2.14621e-10
6.38544e-06
4.37529e-09
1.26991e-10
6.65704e-06
4.80706e-09
4.52763e-11
6.83295e-06
4.90992e-09
-3.43107e-11
6.91955e-06
4.66265e-09
-1.16407e-10
6.91977e-06
4.0906e-09
-2.05437e-10
6.83347e-06
3.26615e-09
-3.048e-10
6.65744e-06
2.30292e-09
-4.15529e-10
6.38516e-06
1.34263e-09
-5.34349e-10
6.00589e-06
5.33501e-10
-6.51447e-10
5.50309e-06
-2.42587e-12
-7.44938e-10
4.85093e-06
-2.1414e-10
-7.74864e-10
4.00627e-06
-1.60069e-10
-6.77424e-10
2.88721e-06
-3.47381e-10
1.30372e-06
1.01856e-10
7.6592e-10
2.8944e-06
7.91646e-10
1.41288e-09
7.09026e-06
2.23367e-09
1.54299e-09
1.02563e-05
4.34209e-09
1.42114e-09
1.27038e-05
6.89368e-09
1.18585e-09
1.46116e-05
9.58759e-09
9.13217e-10
1.60891e-05
1.20966e-08
6.3932e-10
1.72068e-05
1.4113e-08
3.76256e-10
1.80113e-05
1.53843e-08
1.23155e-10
1.85329e-05
1.57422e-08
-1.27989e-10
1.87899e-05
1.51253e-08
-3.87994e-10
1.87909e-05
1.35917e-08
-6.67125e-10
1.85354e-05
1.13204e-08
-9.72014e-10
1.80143e-05
8.59691e-09
-1.30164e-09
1.72087e-05
5.78059e-09
-1.64188e-09
1.60883e-05
3.25192e-09
-1.95849e-09
1.46067e-05
1.33847e-09
-2.18606e-09
1.26945e-05
2.25665e-10
-2.21463e-09
1.02435e-05
-1.13548e-10
-1.87748e-09
7.07719e-06
-9.24395e-10
2.88684e-06
4.02557e-10
1.19378e-09
4.01408e-06