/*--------------------------------*- C++ -*----------------------------------*\
  =========                 |
  \\      /  F ield         | OpenFOAM: The Open Source CFD Toolbox
   \\    /   O peration     | Website:  https://openfoam.org
    \\  /    A nd           | Version:  6
     \\/     M anipulation  |
\*---------------------------------------------------------------------------*/
FoamFile
{
    version     2.0;
    format      ascii;
    class       volScalarField;
    location    "0.09";
    object      X;
}
// * * * * * * * * * * * * * * * * * * * * * * * * * * * * * * * * * * * * * //

dimensions      [0 1 0 0 0 0 0];

internalField   nonuniform List<scalar> 
56000
(
2.00301
2.00274
2.00241
2.00208
2.0018
2.00157
2.00139
2.00126
2.00117
2.00113
2.00113
2.00117
2.00125
2.00138
2.00156
2.00179
2.00207
2.0024
2.00273
2.00299
2.00274
2.00236
2.00192
2.00153
2.0012
2.00095
2.00076
2.00063
2.00055
2.00051
2.00051
2.00055
2.00063
2.00076
2.00095
2.0012
2.00152
2.00191
2.00234
2.00273
2.00241
2.00192
2.00139
2.00094
2.00058
2.00032
2.00013
2
1.99992
1.99988
1.99988
1.99992
2
2.00013
2.00032
2.00058
2.00093
2.00138
2.00191
2.0024
2.00208
2.00153
2.00094
2.00045
2.00009
1.99983
1.99964
1.99952
1.99945
1.99941
1.99941
1.99945
1.99952
1.99964
1.99983
2.00009
2.00045
2.00093
2.00152
2.00207
2.0018
2.0012
2.00058
2.00009
1.99973
1.99947
1.9993
1.99919
1.99912
1.99909
1.99909
1.99912
1.99919
1.9993
1.99947
1.99973
2.00009
2.00058
2.0012
2.00179
2.00157
2.00095
2.00032
1.99983
1.99947
1.99923
1.99907
1.99896
1.9989
1.99887
1.99887
1.9989
1.99897
1.99907
1.99923
1.99947
1.99983
2.00032
2.00095
2.00156
2.00139
2.00076
2.00013
1.99964
1.9993
1.99907
1.99892
1.99882
1.99876
1.99874
1.99874
1.99876
1.99882
1.99892
1.99907
1.9993
1.99964
2.00013
2.00076
2.00138
2.00126
2.00063
2
1.99952
1.99919
1.99896
1.99882
1.99873
1.99868
1.99865
1.99865
1.99868
1.99873
1.99882
1.99897
1.99919
1.99952
2
2.00063
2.00126
2.00117
2.00055
1.99992
1.99945
1.99912
1.9989
1.99876
1.99868
1.99862
1.9986
1.9986
1.99862
1.99868
1.99876
1.9989
1.99912
1.99945
1.99992
2.00055
2.00117
2.00113
2.00051
1.99988
1.99941
1.99909
1.99887
1.99874
1.99865
1.9986
1.99858
1.99858
1.9986
1.99865
1.99874
1.99888
1.99909
1.99941
1.99988
2.00051
2.00113
2.00113
2.00051
1.99988
1.99941
1.99909
1.99887
1.99874
1.99865
1.9986
1.99858
1.99858
1.9986
1.99865
1.99874
1.99888
1.99909
1.99941
1.99988
2.00051
2.00113
2.00117
2.00055
1.99992
1.99945
1.99912
1.9989
1.99876
1.99868
1.99862
1.9986
1.9986
1.99862
1.99868
1.99876
1.9989
1.99912
1.99945
1.99992
2.00055
2.00117
2.00126
2.00063
2
1.99952
1.99919
1.99896
1.99882
1.99873
1.99868
1.99865
1.99865
1.99868
1.99873
1.99882
1.99897
1.99919
1.99952
2
2.00063
2.00126
2.00139
2.00076
2.00013
1.99964
1.9993
1.99907
1.99892
1.99882
1.99876
1.99874
1.99874
1.99876
1.99882
1.99892
1.99907
1.9993
1.99964
2.00013
2.00076
2.00138
2.00157
2.00095
2.00032
1.99983
1.99947
1.99923
1.99907
1.99896
1.9989
1.99887
1.99887
1.9989
1.99897
1.99907
1.99923
1.99947
1.99983
2.00032
2.00095
2.00156
2.0018
2.0012
2.00058
2.00009
1.99973
1.99947
1.9993
1.99919
1.99912
1.99909
1.99909
1.99912
1.99919
1.9993
1.99947
1.99973
2.00009
2.00058
2.0012
2.00179
2.00208
2.00153
2.00094
2.00045
2.00009
1.99983
1.99964
1.99952
1.99945
1.99941
1.99941
1.99945
1.99952
1.99964
1.99983
2.00009
2.00045
2.00093
2.00152
2.00207
2.00241
2.00192
2.00139
2.00094
2.00058
2.00032
2.00013
2
1.99992
1.99988
1.99988
1.99992
2
2.00013
2.00032
2.00058
2.00093
2.00138
2.00191
2.0024
2.00274
2.00236
2.00192
2.00153
2.0012
2.00095
2.00076
2.00063
2.00055
2.00051
2.00051
2.00055
2.00063
2.00076
2.00095
2.0012
2.00152
2.00191
2.00234
2.00273
2.00301
2.00274
2.00241
2.00208
2.0018
2.00157
2.00139
2.00126
2.00117
2.00113
2.00113
2.00117
2.00125
2.00138
2.00156
2.00179
2.00207
2.0024
2.00273
2.00299
2.00733
2.00676
2.00596
2.00512
2.00436
2.00371
2.0032
2.00282
2.00258
2.00245
2.00245
2.00257
2.00281
2.00318
2.00369
2.00433
2.00509
2.00592
2.00672
2.00728
2.00676
2.00601
2.00503
2.00405
2.0032
2.0025
2.00197
2.00158
2.00134
2.00121
2.00121
2.00133
2.00157
2.00195
2.00248
2.00317
2.00402
2.00499
2.00597
2.00672
2.00596
2.00503
2.00384
2.00272
2.00177
2.00103
2.00048
2.00009
1.99985
1.99973
1.99973
1.99984
2.00008
2.00047
2.00102
2.00175
2.00269
2.00381
2.00499
2.00592
2.00512
2.00405
2.00272
2.00149
2.00048
1.99972
1.99917
1.99879
1.99856
1.99844
1.99844
1.99855
1.99879
1.99916
1.99971
2.00047
2.00147
2.00269
2.00402
2.00509
2.00436
2.0032
2.00177
2.00048
1.99946
1.9987
1.99816
1.9978
1.99758
1.99748
1.99748
1.99758
1.9978
1.99816
1.99869
1.99945
2.00047
2.00175
2.00317
2.00433
2.00371
2.0025
2.00103
1.99972
1.9987
1.99796
1.99744
1.9971
1.9969
1.9968
1.9968
1.9969
1.9971
1.99744
1.99795
1.99869
1.99971
2.00102
2.00248
2.00369
2.0032
2.00197
2.00048
1.99917
1.99816
1.99744
1.99695
1.99663
1.99644
1.99635
1.99635
1.99644
1.99663
1.99695
1.99744
1.99816
1.99916
2.00047
2.00195
2.00318
2.00282
2.00159
2.00009
1.99879
1.9978
1.9971
1.99663
1.99633
1.99615
1.99606
1.99606
1.99615
1.99633
1.99663
1.9971
1.9978
1.99879
2.00009
2.00157
2.00281
2.00258
2.00134
1.99985
1.99856
1.99758
1.9969
1.99644
1.99615
1.99598
1.9959
1.9959
1.99598
1.99615
1.99644
1.9969
1.99758
1.99855
1.99984
2.00133
2.00257
2.00246
2.00122
1.99973
1.99845
1.99748
1.9968
1.99635
1.99607
1.9959
1.99582
1.99582
1.9959
1.99606
1.99635
1.9968
1.99748
1.99844
1.99973
2.00121
2.00245
2.00246
2.00122
1.99973
1.99845
1.99748
1.9968
1.99635
1.99607
1.9959
1.99582
1.99582
1.9959
1.99606
1.99635
1.9968
1.99748
1.99844
1.99973
2.00121
2.00245
2.00258
2.00134
1.99985
1.99856
1.99758
1.9969
1.99644
1.99615
1.99598
1.9959
1.9959
1.99598
1.99615
1.99644
1.9969
1.99758
1.99855
1.99984
2.00133
2.00257
2.00282
2.00159
2.00009
1.99879
1.9978
1.9971
1.99663
1.99633
1.99615
1.99606
1.99606
1.99615
1.99633
1.99663
1.9971
1.9978
1.99879
2.00009
2.00157
2.00281
2.0032
2.00197
2.00048
1.99917
1.99816
1.99744
1.99695
1.99663
1.99644
1.99635
1.99635
1.99644
1.99663
1.99695
1.99744
1.99816
1.99916
2.00047
2.00195
2.00318
2.00371
2.0025
2.00103
1.99972
1.9987
1.99796
1.99744
1.9971
1.9969
1.9968
1.9968
1.9969
1.9971
1.99744
1.99795
1.99869
1.99971
2.00102
2.00248
2.00369
2.00436
2.0032
2.00177
2.00048
1.99946
1.9987
1.99816
1.9978
1.99758
1.99748
1.99748
1.99758
1.9978
1.99816
1.99869
1.99945
2.00047
2.00175
2.00317
2.00433
2.00512
2.00405
2.00272
2.00149
2.00048
1.99972
1.99917
1.99879
1.99856
1.99844
1.99844
1.99855
1.99879
1.99916
1.99971
2.00047
2.00147
2.00269
2.00402
2.00509
2.00596
2.00503
2.00384
2.00272
2.00177
2.00103
2.00048
2.00009
1.99985
1.99973
1.99973
1.99984
2.00008
2.00047
2.00102
2.00175
2.00269
2.00381
2.00499
2.00592
2.00676
2.00601
2.00503
2.00405
2.0032
2.0025
2.00197
2.00158
2.00134
2.00121
2.00121
2.00133
2.00157
2.00195
2.00248
2.00317
2.00402
2.00499
2.00597
2.00672
2.00733
2.00676
2.00596
2.00512
2.00436
2.00371
2.0032
2.00282
2.00258
2.00245
2.00245
2.00257
2.00281
2.00318
2.00369
2.00433
2.00509
2.00592
2.00672
2.00728
2.0105
2.00975
2.00863
2.00741
2.00624
2.00524
2.00442
2.00382
2.00342
2.00322
2.00321
2.0034
2.00379
2.00439
2.00519
2.00619
2.00734
2.00855
2.00967
2.0104
2.00975
2.00881
2.00747
2.00607
2.00479
2.00371
2.00286
2.00224
2.00183
2.00163
2.00163
2.00182
2.00222
2.00283
2.00367
2.00473
2.006
2.00739
2.00872
2.00966
2.00863
2.00747
2.00587
2.00426
2.00284
2.00168
2.0008
2.00017
1.99976
1.99956
1.99956
1.99975
2.00015
2.00077
2.00165
2.0028
2.00421
2.00581
2.00739
2.00855
2.00741
2.00607
2.00426
2.00248
2.00096
1.99975
1.99884
1.99821
1.99781
1.99762
1.99762
1.9978
1.9982
1.99882
1.99972
2.00092
2.00244
2.00421
2.006
2.00734
2.00624
2.00479
2.00284
2.00096
1.99937
1.99814
1.99724
1.99663
1.99624
1.99606
1.99606
1.99624
1.99662
1.99723
1.99812
1.99934
2.00092
2.0028
2.00473
2.00619
2.00524
2.00371
2.00169
1.99975
1.99814
1.99692
1.99604
1.99545
1.99509
1.99492
1.99492
1.99509
1.99544
1.99603
1.9969
1.99812
1.99972
2.00165
2.00367
2.00519
2.00443
2.00286
2.0008
1.99884
1.99724
1.99604
1.9952
1.99463
1.99429
1.99413
1.99413
1.99429
1.99463
1.99519
1.99603
1.99723
1.99882
2.00077
2.00283
2.00439
2.00382
2.00225
2.00017
1.99821
1.99663
1.99545
1.99463
1.99409
1.99377
1.99361
1.99361
1.99376
1.99409
1.99463
1.99544
1.99662
1.9982
2.00014
2.00221
2.00379
2.00343
2.00184
1.99977
1.99782
1.99625
1.99509
1.99429
1.99377
1.99345
1.99331
1.99331
1.99345
1.99376
1.99429
1.99508
1.99624
1.9978
1.99974
2.00182
2.0034
2.00323
2.00165
1.99957
1.99763
1.99607
1.99492
1.99413
1.99362
1.99331
1.99317
1.99317
1.99331
1.99361
1.99413
1.99491
1.99606
1.99761
1.99955
2.00162
2.00321
2.00323
2.00165
1.99957
1.99763
1.99607
1.99492
1.99413
1.99362
1.99331
1.99317
1.99317
1.99331
1.99361
1.99413
1.99491
1.99606
1.99761
1.99955
2.00162
2.00321
2.00343
2.00184
1.99977
1.99782
1.99625
1.99509
1.99429
1.99377
1.99345
1.99331
1.99331
1.99345
1.99376
1.99429
1.99508
1.99624
1.9978
1.99974
2.00182
2.0034
2.00382
2.00225
2.00017
1.99821
1.99663
1.99545
1.99463
1.99409
1.99377
1.99362
1.99361
1.99376
1.99409
1.99463
1.99544
1.99662
1.9982
2.00014
2.00221
2.00379
2.00443
2.00286
2.0008
1.99884
1.99724
1.99604
1.9952
1.99463
1.99429
1.99413
1.99413
1.99429
1.99463
1.99519
1.99603
1.99723
1.99882
2.00077
2.00283
2.00439
2.00524
2.00371
2.00169
1.99975
1.99814
1.99692
1.99604
1.99545
1.99509
1.99492
1.99492
1.99509
1.99544
1.99603
1.9969
1.99812
1.99972
2.00165
2.00367
2.00519
2.00624
2.00479
2.00284
2.00096
1.99937
1.99814
1.99724
1.99663
1.99624
1.99606
1.99606
1.99624
1.99662
1.99723
1.99812
1.99934
2.00092
2.0028
2.00473
2.00619
2.00741
2.00607
2.00426
2.00248
2.00096
1.99975
1.99884
1.99821
1.99781
1.99762
1.99762
1.9978
1.9982
1.99882
1.99972
2.00092
2.00244
2.00421
2.006
2.00734
2.00863
2.00747
2.00587
2.00426
2.00284
2.00168
2.0008
2.00017
1.99976
1.99956
1.99956
1.99975
2.00015
2.00077
2.00165
2.0028
2.00421
2.00581
2.00739
2.00855
2.00975
2.00881
2.00747
2.00607
2.00479
2.00371
2.00286
2.00224
2.00183
2.00163
2.00163
2.00182
2.00222
2.00283
2.00367
2.00473
2.006
2.00739
2.00872
2.00966
2.0105
2.00975
2.00863
2.00741
2.00624
2.00524
2.00442
2.00382
2.00342
2.00322
2.00321
2.0034
2.00379
2.00439
2.00519
2.00619
2.00734
2.00855
2.00967
2.0104
2.01287
2.012
2.01066
2.00914
2.00766
2.00635
2.00527
2.00446
2.00392
2.00364
2.00363
2.00389
2.00441
2.00521
2.00627
2.00756
2.00902
2.01053
2.01186
2.01271
2.01201
2.01094
2.00936
2.00765
2.00603
2.00463
2.0035
2.00266
2.00211
2.00184
2.00183
2.00209
2.00262
2.00344
2.00455
2.00594
2.00754
2.00924
2.0108
2.01186
2.01066
2.00936
2.0075
2.00554
2.00374
2.00223
2.00104
2.00018
1.99962
1.99934
1.99933
1.9996
2.00015
2.00099
2.00216
2.00366
2.00544
2.00739
2.00924
2.01053
2.00914
2.00765
2.00554
2.00336
2.00141
1.99981
1.99858
1.99771
1.99715
1.99688
1.99687
1.99713
1.99768
1.99855
1.99976
2.00135
2.00328
2.00544
2.00754
2.00902
2.00766
2.00603
2.00374
2.00141
1.99936
1.99771
1.99647
1.99561
1.99506
1.9948
1.99479
1.99505
1.99559
1.99644
1.99767
1.99931
2.00134
2.00366
2.00593
2.00756
2.00635
2.00463
2.00223
1.99981
1.99771
1.99605
1.99483
1.99398
1.99346
1.9932
1.9932
1.99345
1.99397
1.9948
1.99602
1.99767
1.99976
2.00216
2.00455
2.00627
2.00528
2.00351
2.00105
1.99859
1.99648
1.99483
1.99363
1.99281
1.99231
1.99207
1.99206
1.9923
1.9928
1.99361
1.9948
1.99644
1.99854
2.00099
2.00344
2.00521
2.00447
2.00268
2.00019
1.99772
1.99561
1.99399
1.99281
1.99202
1.99154
1.99131
1.99131
1.99153
1.99201
1.9928
1.99396
1.99558
1.99768
2.00014
2.00261
2.00441
2.00393
2.00213
1.99963
1.99716
1.99507
1.99346
1.99231
1.99154
1.99107
1.99085
1.99085
1.99106
1.99153
1.9923
1.99344
1.99504
1.99713
1.99959
2.00207
2.00388
2.00367
2.00186
1.99936
1.99689
1.99481
1.99321
1.99207
1.99131
1.99085
1.99063
1.99063
1.99085
1.9913
1.99206
1.99319
1.99478
1.99686
1.99932
2.00181
2.00361
2.00367
2.00186
1.99936
1.99689
1.99481
1.99321
1.99207
1.99131
1.99085
1.99063
1.99063
1.99085
1.9913
1.99206
1.99319
1.99478
1.99686
1.99932
2.00181
2.00361
2.00393
2.00213
1.99963
1.99716
1.99507
1.99346
1.99231
1.99154
1.99107
1.99085
1.99085
1.99106
1.99153
1.9923
1.99344
1.99504
1.99713
1.99959
2.00207
2.00388
2.00447
2.00268
2.00019
1.99772
1.99561
1.99399
1.99281
1.99202
1.99154
1.99131
1.99131
1.99153
1.99201
1.9928
1.99396
1.99558
1.99768
2.00014
2.00261
2.00441
2.00528
2.00351
2.00105
1.99859
1.99648
1.99483
1.99363
1.99281
1.99231
1.99207
1.99206
1.9923
1.9928
1.99361
1.9948
1.99644
1.99854
2.00099
2.00344
2.00521
2.00635
2.00463
2.00223
1.99981
1.99771
1.99605
1.99483
1.99398
1.99346
1.9932
1.9932
1.99345
1.99397
1.9948
1.99602
1.99767
1.99976
2.00216
2.00455
2.00627
2.00766
2.00603
2.00374
2.00141
1.99936
1.99771
1.99647
1.99561
1.99506
1.9948
1.99479
1.99505
1.99559
1.99644
1.99767
1.99931
2.00134
2.00366
2.00593
2.00756
2.00914
2.00765
2.00554
2.00336
2.00141
1.99981
1.99858
1.99771
1.99715
1.99688
1.99687
1.99713
1.99768
1.99855
1.99976
2.00135
2.00328
2.00544
2.00754
2.00902
2.01066
2.00936
2.0075
2.00554
2.00374
2.00223
2.00104
2.00018
1.99962
1.99934
1.99933
1.9996
2.00015
2.00099
2.00216
2.00366
2.00544
2.00739
2.00924
2.01053
2.01201
2.01094
2.00936
2.00765
2.00603
2.00463
2.0035
2.00266
2.00211
2.00184
2.00183
2.00209
2.00262
2.00344
2.00455
2.00594
2.00754
2.00924
2.0108
2.01186
2.01287
2.012
2.01066
2.00914
2.00766
2.00635
2.00527
2.00446
2.00392
2.00364
2.00363
2.00389
2.00441
2.00521
2.00627
2.00756
2.00902
2.01053
2.01186
2.01271
2.01465
2.0137
2.0122
2.01045
2.00872
2.00715
2.00585
2.00485
2.00418
2.00384
2.00382
2.00414
2.00478
2.00575
2.00703
2.00857
2.01028
2.012
2.01348
2.01441
2.01371
2.01256
2.01082
2.00887
2.00698
2.00531
2.00394
2.00291
2.00222
2.00187
2.00186
2.00218
2.00285
2.00385
2.00519
2.00683
2.0087
2.01062
2.01235
2.01348
2.0122
2.01082
2.00877
2.00655
2.00445
2.00264
2.0012
2.00012
1.99942
1.99907
1.99905
1.99939
2.00007
2.00112
2.00254
2.00433
2.0064
2.0086
2.01062
2.01199
2.01046
2.00887
2.00655
2.00408
2.00179
1.99986
1.99834
1.99724
1.99653
1.99618
1.99617
1.9965
1.9972
1.99828
1.99977
2.00168
2.00395
2.0064
2.0087
2.01027
2.00872
2.00698
2.00446
2.00179
1.99937
1.99736
1.99581
1.9947
1.99399
1.99365
1.99364
1.99397
1.99466
1.99575
1.99728
1.99927
2.00168
2.00432
2.00683
2.00857
2.00716
2.00532
2.00265
1.99986
1.99736
1.99531
1.99376
1.99266
1.99197
1.99164
1.99163
1.99195
1.99263
1.99371
1.99525
1.99728
1.99977
2.00254
2.00518
2.00702
2.00586
2.00396
2.00121
1.99836
1.99581
1.99376
1.99222
1.99115
1.99048
1.99016
1.99015
1.99046
1.99112
1.99218
1.99371
1.99575
1.99827
2.00111
2.00384
2.00574
2.00487
2.00293
2.00014
1.99726
1.99471
1.99267
1.99116
1.99011
1.98946
1.98915
1.98914
1.98944
1.99008
1.99112
1.99262
1.99465
1.99719
2.00005
2.00283
2.00477
2.00421
2.00226
1.99945
1.99655
1.99401
1.99198
1.99049
1.98946
1.98883
1.98853
1.98852
1.98882
1.98944
1.99046
1.99194
1.99395
1.99649
1.99936
2.00216
2.00411
2.00388
2.00192
1.9991
1.99621
1.99367
1.99165
1.99017
1.98916
1.98853
1.98823
1.98823
1.98852
1.98913
1.99014
1.99161
1.99362
1.99614
1.99902
2.00182
2.00379
2.00388
2.00192
1.9991
1.99621
1.99367
1.99165
1.99017
1.98916
1.98853
1.98823
1.98823
1.98852
1.98913
1.99014
1.99161
1.99362
1.99614
1.99902
2.00182
2.00379
2.00421
2.00226
1.99945
1.99655
1.99401
1.99198
1.99049
1.98946
1.98883
1.98853
1.98852
1.98882
1.98944
1.99046
1.99194
1.99395
1.99649
1.99936
2.00216
2.00411
2.00487
2.00293
2.00014
1.99726
1.99471
1.99267
1.99116
1.99011
1.98946
1.98915
1.98914
1.98944
1.99008
1.99112
1.99262
1.99465
1.99719
2.00005
2.00283
2.00477
2.00586
2.00396
2.00121
1.99836
1.99581
1.99376
1.99222
1.99115
1.99048
1.99016
1.99015
1.99046
1.99112
1.99218
1.99371
1.99575
1.99827
2.00111
2.00384
2.00574
2.00716
2.00532
2.00265
1.99986
1.99736
1.99531
1.99376
1.99266
1.99197
1.99164
1.99163
1.99195
1.99263
1.99371
1.99525
1.99728
1.99977
2.00254
2.00518
2.00702
2.00872
2.00698
2.00446
2.00179
1.99937
1.99736
1.99581
1.9947
1.99399
1.99365
1.99364
1.99397
1.99466
1.99575
1.99728
1.99927
2.00168
2.00432
2.00683
2.00857
2.01046
2.00887
2.00655
2.00408
2.00179
1.99986
1.99834
1.99724
1.99653
1.99618
1.99617
1.9965
1.9972
1.99828
1.99977
2.00168
2.00395
2.0064
2.0087
2.01027
2.0122
2.01082
2.00877
2.00655
2.00445
2.00264
2.0012
2.00012
1.99942
1.99907
1.99905
1.99939
2.00007
2.00112
2.00254
2.00433
2.0064
2.0086
2.01062
2.01199
2.01371
2.01256
2.01082
2.00887
2.00698
2.00531
2.00394
2.00291
2.00222
2.00187
2.00186
2.00218
2.00285
2.00385
2.00519
2.00683
2.0087
2.01062
2.01235
2.01348
2.01465
2.0137
2.0122
2.01045
2.00872
2.00715
2.00585
2.00485
2.00418
2.00384
2.00382
2.00414
2.00478
2.00575
2.00703
2.00857
2.01028
2.012
2.01348
2.01441
2.01599
2.01499
2.01336
2.01145
2.00951
2.00773
2.00623
2.00507
2.00428
2.00387
2.00385
2.00422
2.00496
2.00608
2.00754
2.00928
2.01118
2.01306
2.01466
2.01564
2.01499
2.01379
2.01193
2.0098
2.00769
2.0058
2.00422
2.00302
2.00221
2.00179
2.00177
2.00215
2.00292
2.00408
2.00562
2.00747
2.00954
2.01164
2.01348
2.01466
2.01336
2.01193
2.00975
2.00733
2.00499
2.00294
2.00126
2
1.99916
1.99874
1.99872
1.99911
1.99991
2.00114
2.00278
2.0048
2.0071
2.00949
2.01164
2.01306
2.01145
2.0098
2.00733
2.00463
2.00207
1.99987
1.9981
1.99679
1.99594
1.99551
1.99549
1.99589
1.99672
1.99799
1.99973
2.00191
2.00443
2.0071
2.00954
2.01118
2.00951
2.0077
2.005
2.00208
1.99935
1.99703
1.9952
1.99387
1.99301
1.99258
1.99257
1.99297
1.99381
1.99511
1.99691
1.9992
2.0019
2.00479
2.00747
2.00927
2.00774
2.00581
2.00295
1.99988
1.99704
1.99465
1.9928
1.99147
1.99061
1.99019
1.99018
1.99058
1.99141
1.99272
1.99455
1.99691
1.99972
2.00277
2.0056
2.00753
2.00625
2.00425
2.00128
1.99812
1.99521
1.9928
1.99095
1.98963
1.9888
1.98839
1.98838
1.98877
1.98959
1.99088
1.99271
1.9951
1.99798
2.00112
2.00406
2.00606
2.0051
2.00306
2.00003
1.99682
1.99389
1.99148
1.98964
1.98835
1.98753
1.98713
1.98712
1.9875
1.9883
1.98958
1.9914
1.99379
1.99669
1.99988
2.00288
2.00493
2.00433
2.00226
1.99921
1.99597
1.99304
1.99064
1.98881
1.98754
1.98673
1.98634
1.98634
1.98671
1.98749
1.98875
1.99056
1.99294
1.99586
1.99907
2.0021
2.00417
2.00394
2.00186
1.9988
1.99556
1.99262
1.99023
1.98841
1.98715
1.98635
1.98597
1.98596
1.98633
1.98711
1.98836
1.99015
1.99253
1.99544
1.99866
2.0017
2.00379
2.00394
2.00186
1.9988
1.99556
1.99262
1.99023
1.98841
1.98715
1.98635
1.98597
1.98596
1.98633
1.98711
1.98836
1.99015
1.99253
1.99544
1.99866
2.0017
2.00379
2.00433
2.00226
1.99921
1.99597
1.99304
1.99064
1.98881
1.98754
1.98673
1.98634
1.98634
1.98671
1.98749
1.98875
1.99056
1.99294
1.99586
1.99907
2.0021
2.00417
2.0051
2.00306
2.00003
1.99682
1.99389
1.99148
1.98964
1.98835
1.98753
1.98713
1.98712
1.9875
1.9883
1.98958
1.9914
1.99379
1.99669
1.99988
2.00288
2.00493
2.00625
2.00425
2.00128
1.99812
1.99521
1.9928
1.99095
1.98963
1.9888
1.98839
1.98838
1.98877
1.98959
1.99088
1.99271
1.9951
1.99798
2.00112
2.00406
2.00606
2.00774
2.00581
2.00295
1.99988
1.99704
1.99465
1.9928
1.99147
1.99061
1.99019
1.99018
1.99058
1.99141
1.99272
1.99455
1.99691
1.99972
2.00277
2.0056
2.00753
2.00951
2.0077
2.005
2.00208
1.99935
1.99703
1.9952
1.99387
1.99301
1.99258
1.99257
1.99297
1.99381
1.99511
1.99691
1.9992
2.0019
2.00479
2.00747
2.00927
2.01145
2.0098
2.00733
2.00463
2.00207
1.99987
1.9981
1.99679
1.99594
1.99551
1.99549
1.99589
1.99672
1.99799
1.99973
2.00191
2.00443
2.0071
2.00954
2.01118
2.01336
2.01193
2.00975
2.00733
2.00499
2.00294
2.00126
2
1.99916
1.99874
1.99872
1.99911
1.99991
2.00114
2.00278
2.0048
2.0071
2.00949
2.01164
2.01306
2.01499
2.01379
2.01193
2.0098
2.00769
2.0058
2.00422
2.00302
2.00221
2.00179
2.00177
2.00215
2.00292
2.00408
2.00562
2.00748
2.00954
2.01164
2.01348
2.01466
2.01599
2.01499
2.01336
2.01145
2.00951
2.00773
2.00623
2.00507
2.00428
2.00387
2.00385
2.00422
2.00496
2.00608
2.00754
2.00928
2.01118
2.01306
2.01466
2.01564
2.01699
2.01595
2.01423
2.01218
2.01008
2.00812
2.00645
2.00515
2.00425
2.00379
2.00375
2.00416
2.00499
2.00624
2.00785
2.00975
2.0118
2.0138
2.01548
2.0165
2.01595
2.01472
2.01276
2.01049
2.00821
2.00613
2.00437
2.00302
2.00209
2.00161
2.00158
2.002
2.00287
2.00417
2.00587
2.00789
2.01012
2.01234
2.01426
2.01548
2.01423
2.01276
2.01049
2.00791
2.00538
2.00312
2.00124
1.99982
1.99886
1.99837
1.99834
1.99878
1.99968
2.00106
2.00288
2.0051
2.00758
2.01011
2.01234
2.0138
2.01219
2.0105
2.00792
2.00504
2.00226
1.99982
1.99783
1.99634
1.99535
1.99485
1.99483
1.99528
1.99623
1.99767
1.99961
2.00201
2.00474
2.00757
2.01011
2.01179
2.01009
2.00823
2.0054
2.00227
1.99929
1.99671
1.99463
1.9931
1.99209
1.99159
1.99157
1.99203
1.993
1.99449
1.99652
1.99907
2.002
2.00509
2.00788
2.00974
2.00814
2.00615
2.00314
1.99984
1.99672
1.99404
1.99192
1.99037
1.98936
1.98886
1.98884
1.9893
1.99028
1.99179
1.99388
1.99652
1.9996
2.00286
2.00584
2.00783
2.00649
2.00441
2.00128
1.99786
1.99465
1.99193
1.98979
1.98824
1.98724
1.98675
1.98673
1.98719
1.98816
1.98968
1.99178
1.99447
1.99764
2.00103
2.00413
2.00621
2.0052
2.00307
1.99987
1.99638
1.99313
1.99039
1.98825
1.98672
1.98573
1.98525
1.98523
1.98569
1.98664
1.98815
1.99026
1.99297
1.99618
1.99963
2.00281
2.00494
2.00432
2.00217
1.99893
1.99541
1.99214
1.9894
1.98727
1.98574
1.98477
1.9843
1.98429
1.98473
1.98568
1.98717
1.98927
1.99198
1.99522
1.99871
2.00192
2.00408
2.00388
2.00172
1.99846
1.99493
1.99165
1.98891
1.98679
1.98527
1.98431
1.98384
1.98383
1.98427
1.98521
1.98669
1.98879
1.9915
1.99475
1.99824
2.00148
2.00365
2.00388
2.00172
1.99846
1.99493
1.99165
1.98891
1.98679
1.98527
1.98431
1.98384
1.98383
1.98427
1.98521
1.98669
1.98879
1.9915
1.99475
1.99824
2.00148
2.00365
2.00432
2.00217
1.99893
1.99541
1.99214
1.9894
1.98727
1.98574
1.98477
1.9843
1.98429
1.98473
1.98568
1.98717
1.98927
1.99198
1.99522
1.99871
2.00192
2.00408
2.0052
2.00307
1.99987
1.99638
1.99313
1.99039
1.98825
1.98672
1.98573
1.98525
1.98523
1.98569
1.98664
1.98815
1.99026
1.99297
1.99619
1.99963
2.00281
2.00494
2.00649
2.00441
2.00128
1.99786
1.99465
1.99193
1.98979
1.98824
1.98724
1.98675
1.98673
1.98719
1.98816
1.98968
1.99178
1.99447
1.99765
2.00103
2.00413
2.00621
2.00814
2.00615
2.00314
1.99984
1.99672
1.99404
1.99192
1.99037
1.98936
1.98886
1.98884
1.9893
1.99028
1.99179
1.99388
1.99652
1.9996
2.00286
2.00584
2.00783
2.01009
2.00823
2.0054
2.00227
1.99929
1.99671
1.99463
1.9931
1.99209
1.99159
1.99157
1.99203
1.993
1.99449
1.99652
1.99907
2.002
2.00509
2.00788
2.00974
2.01219
2.0105
2.00792
2.00504
2.00226
1.99982
1.99783
1.99634
1.99535
1.99485
1.99483
1.99528
1.99623
1.99767
1.99961
2.00201
2.00474
2.00757
2.01011
2.01179
2.01423
2.01276
2.01049
2.00791
2.00538
2.00312
2.00124
1.99982
1.99886
1.99837
1.99834
1.99878
1.99968
2.00106
2.00288
2.0051
2.00758
2.01011
2.01234
2.0138
2.01595
2.01472
2.01276
2.01049
2.00821
2.00613
2.00437
2.00302
2.00209
2.00161
2.00158
2.002
2.00287
2.00417
2.00587
2.00789
2.01012
2.01234
2.01426
2.01548
2.01699
2.01595
2.01423
2.01218
2.01008
2.00812
2.00645
2.00515
2.00425
2.00379
2.00375
2.00416
2.00499
2.00624
2.00785
2.00975
2.0118
2.0138
2.01548
2.0165
2.01772
2.01665
2.01487
2.01271
2.01047
2.00837
2.00655
2.00512
2.00413
2.00361
2.00356
2.004
2.0049
2.00625
2.00798
2.01001
2.01217
2.01427
2.016
2.01704
2.01665
2.01539
2.01337
2.01099
2.00856
2.00632
2.00441
2.00292
2.0019
2.00136
2.00132
2.00177
2.00271
2.00412
2.00595
2.00812
2.01047
2.01278
2.01476
2.01599
2.01487
2.01337
2.01103
2.00833
2.00564
2.0032
2.00115
1.99958
1.99851
1.99795
1.99791
1.99839
1.99939
2.00089
2.00286
2.00523
2.00785
2.01048
2.01278
2.01426
2.01272
2.011
2.00834
2.00532
2.00236
1.99972
1.99754
1.99588
1.99477
1.9942
1.99416
1.99467
1.99571
1.9973
1.99942
2.00199
2.00489
2.00784
2.01045
2.01216
2.01049
2.00859
2.00566
2.00237
1.99919
1.99638
1.99409
1.99237
1.99123
1.99065
1.99062
1.99113
1.99222
1.99387
1.99611
1.99886
2.00198
2.00521
2.00809
2.00999
2.0084
2.00636
2.00323
1.99975
1.99639
1.99346
1.9911
1.98935
1.98819
1.98761
1.98758
1.98811
1.98921
1.99091
1.99322
1.99609
1.99939
2.00282
2.00591
2.00795
2.0066
2.00447
2.00121
1.99758
1.99412
1.99112
1.98872
1.98695
1.9858
1.98522
1.9852
1.98572
1.98683
1.98854
1.99089
1.99384
1.99726
2.00083
2.00406
2.00619
2.00519
2.00301
1.99966
1.99595
1.99242
1.98938
1.98697
1.98521
1.98406
1.98349
1.98347
1.98399
1.98509
1.98681
1.98917
1.99216
1.99564
1.9993
2.00262
2.00482
2.00423
2.00202
1.99861
1.99486
1.9913
1.98825
1.98584
1.98408
1.98295
1.98238
1.98236
1.98288
1.98397
1.98568
1.98805
1.99106
1.99457
1.99828
2.00164
2.00388
2.00375
2.00152
1.99809
1.99432
1.99075
1.98769
1.98528
1.98353
1.9824
1.98185
1.98182
1.98234
1.98343
1.98513
1.9875
1.99051
1.99404
1.99777
2.00115
2.0034
2.00375
2.00152
1.99809
1.99432
1.99075
1.98769
1.98528
1.98353
1.9824
1.98185
1.98182
1.98234
1.98343
1.98513
1.9875
1.99051
1.99404
1.99777
2.00115
2.0034
2.00423
2.00202
1.99861
1.99486
1.9913
1.98825
1.98584
1.98408
1.98295
1.98238
1.98236
1.98288
1.98397
1.98568
1.98805
1.99106
1.99457
1.99828
2.00164
2.00388
2.00519
2.00301
1.99966
1.99595
1.99242
1.98938
1.98697
1.98521
1.98406
1.98349
1.98347
1.98399
1.98509
1.98681
1.98917
1.99216
1.99564
1.9993
2.00262
2.00482
2.0066
2.00447
2.00121
1.99758
1.99412
1.99112
1.98872
1.98695
1.9858
1.98522
1.9852
1.98572
1.98683
1.98854
1.99089
1.99384
1.99726
2.00083
2.00406
2.00619
2.0084
2.00636
2.00323
1.99975
1.99639
1.99346
1.9911
1.98935
1.98819
1.98761
1.98758
1.98811
1.98921
1.99091
1.99322
1.99609
1.99939
2.00282
2.00591
2.00795
2.01049
2.00859
2.00566
2.00237
1.99919
1.99638
1.99409
1.99237
1.99123
1.99065
1.99062
1.99113
1.99222
1.99387
1.99611
1.99886
2.00198
2.00521
2.00809
2.00999
2.01272
2.011
2.00834
2.00532
2.00236
1.99972
1.99754
1.99588
1.99477
1.9942
1.99416
1.99467
1.99571
1.9973
1.99942
2.00199
2.00489
2.00784
2.01045
2.01216
2.01487
2.01337
2.01103
2.00833
2.00564
2.0032
2.00115
1.99958
1.99851
1.99795
1.99791
1.99839
1.99939
2.00089
2.00286
2.00523
2.00785
2.01048
2.01278
2.01426
2.01665
2.01539
2.01337
2.01099
2.00856
2.00632
2.00441
2.00292
2.0019
2.00136
2.00132
2.00177
2.00271
2.00412
2.00595
2.00812
2.01047
2.01278
2.01476
2.01599
2.01772
2.01665
2.01487
2.01271
2.01047
2.00837
2.00655
2.00512
2.00413
2.00361
2.00356
2.004
2.0049
2.00625
2.00798
2.01001
2.01217
2.01427
2.016
2.01704
2.01825
2.01716
2.01531
2.01307
2.01072
2.00849
2.00655
2.00501
2.00393
2.00335
2.00329
2.00374
2.0047
2.00613
2.00796
2.01008
2.01233
2.01449
2.01626
2.01732
2.01716
2.01588
2.0138
2.01133
2.00879
2.00641
2.00437
2.00276
2.00164
2.00105
2.00099
2.00146
2.00246
2.00396
2.00589
2.00816
2.0106
2.01299
2.015
2.01625
2.01532
2.0138
2.0114
2.0086
2.00579
2.0032
2.001
1.9993
1.99812
1.99751
1.99745
1.99796
1.99902
2.00063
2.00272
2.00521
2.00793
2.01064
2.01298
2.01447
2.01308
2.01134
2.00861
2.00549
2.00238
1.99957
1.99722
1.99541
1.99419
1.99355
1.9935
1.99404
1.99517
1.99688
1.99914
2.00186
2.00488
2.00792
2.01058
2.01231
2.01074
2.00882
2.00581
2.0024
1.99904
1.99603
1.99355
1.99167
1.9904
1.98975
1.9897
1.99027
1.99145
1.99324
1.99564
1.99856
2.00184
2.00518
2.00812
2.01004
2.00853
2.00647
2.00325
1.9996
1.99605
1.99291
1.99033
1.98839
1.9871
1.98644
1.9864
1.98698
1.98819
1.99005
1.99255
1.99562
1.99909
2.00266
2.00582
2.0079
2.00662
2.00445
2.00108
1.99728
1.9936
1.99035
1.98772
1.98576
1.98446
1.98379
1.98376
1.98434
1.98557
1.98746
1.99002
1.99319
1.99681
2.00053
2.00385
2.00604
2.00511
2.00288
1.99941
1.99551
1.99174
1.98844
1.98578
1.98381
1.98251
1.98185
1.98182
1.9824
1.98363
1.98554
1.98813
1.99136
1.99506
1.99889
2.00232
2.00457
2.00408
2.00181
1.99827
1.99432
1.99051
1.98718
1.98451
1.98254
1.98124
1.98059
1.98056
1.98114
1.98237
1.98428
1.98688
1.99014
1.99389
1.99778
2.00127
2.00357
2.00355
2.00126
1.9977
1.99372
1.98989
1.98656
1.98389
1.98191
1.98062
1.97998
1.97994
1.98053
1.98175
1.98366
1.98627
1.98954
1.99331
1.99723
2.00074
2.00305
2.00355
2.00126
1.9977
1.99372
1.98989
1.98656
1.98389
1.98191
1.98062
1.97998
1.97994
1.98053
1.98175
1.98366
1.98627
1.98954
1.99331
1.99723
2.00074
2.00305
2.00408
2.00181
1.99827
1.99432
1.99051
1.98718
1.98451
1.98254
1.98124
1.98059
1.98056
1.98114
1.98237
1.98428
1.98688
1.99014
1.99389
1.99778
2.00127
2.00357
2.00511
2.00288
1.99941
1.99551
1.99174
1.98844
1.98578
1.98381
1.98251
1.98185
1.98182
1.9824
1.98363
1.98554
1.98813
1.99136
1.99506
1.99889
2.00232
2.00457
2.00662
2.00445
2.00108
1.99728
1.9936
1.99035
1.98772
1.98576
1.98446
1.98379
1.98376
1.98434
1.98557
1.98746
1.99002
1.99319
1.99681
2.00053
2.00385
2.00604
2.00853
2.00647
2.00325
1.9996
1.99605
1.99291
1.99033
1.98839
1.9871
1.98644
1.9864
1.98698
1.98819
1.99005
1.99255
1.99562
1.99909
2.00266
2.00582
2.0079
2.01074
2.00882
2.00581
2.0024
1.99904
1.99603
1.99355
1.99167
1.9904
1.98975
1.9897
1.99027
1.99145
1.99324
1.99564
1.99856
2.00184
2.00518
2.00812
2.01004
2.01308
2.01134
2.00861
2.00549
2.00238
1.99957
1.99722
1.99541
1.99419
1.99355
1.9935
1.99404
1.99517
1.99688
1.99914
2.00186
2.00488
2.00792
2.01058
2.01231
2.01532
2.0138
2.0114
2.0086
2.00579
2.0032
2.001
1.9993
1.99812
1.99751
1.99745
1.99796
1.99902
2.00063
2.00272
2.00521
2.00793
2.01064
2.01298
2.01447
2.01716
2.01588
2.0138
2.01133
2.00879
2.00641
2.00437
2.00276
2.00164
2.00105
2.00099
2.00146
2.00246
2.00396
2.00589
2.00816
2.0106
2.01299
2.015
2.01625
2.01825
2.01716
2.01531
2.01307
2.01072
2.00849
2.00655
2.00501
2.00393
2.00335
2.00329
2.00374
2.0047
2.00613
2.00796
2.01008
2.01233
2.01449
2.01626
2.01732
2.01862
2.0175
2.01561
2.0133
2.01085
2.00852
2.00647
2.00483
2.00366
2.00303
2.00295
2.00341
2.00441
2.00589
2.00779
2.00998
2.01229
2.01449
2.01629
2.01735
2.0175
2.01621
2.01408
2.01154
2.0089
2.00641
2.00425
2.00253
2.00133
2.00068
2.0006
2.00109
2.00213
2.00369
2.0057
2.00804
2.01055
2.01298
2.01501
2.01627
2.01562
2.01409
2.01164
2.00876
2.00584
2.00312
2.0008
1.99897
1.99771
1.99703
1.99695
1.99748
1.9986
2.00028
2.00246
2.00504
2.00784
2.0106
2.01297
2.01447
2.01331
2.01156
2.00878
2.00556
2.00233
1.99937
1.99687
1.99494
1.99361
1.9929
1.99283
1.9934
1.99459
1.9964
1.99877
2.0016
2.00472
2.00782
2.01052
2.01226
2.01089
2.00894
2.00587
2.00235
1.99885
1.99568
1.99303
1.99099
1.98961
1.98888
1.98882
1.98941
1.99067
1.99259
1.99512
1.99818
2.00157
2.00499
2.00798
2.00992
2.00858
2.00649
2.00319
1.99942
1.9957
1.99237
1.9896
1.98749
1.98607
1.98534
1.98528
1.9859
1.9872
1.9892
1.99185
1.99509
1.9987
2.00237
2.00559
2.0077