/*--------------------------------*- C++ -*----------------------------------*\
  =========                 |
  \\      /  F ield         | OpenFOAM: The Open Source CFD Toolbox
   \\    /   O peration     | Website:  https://openfoam.org
    \\  /    A nd           | Version:  6
     \\/     M anipulation  |
\*---------------------------------------------------------------------------*/
FoamFile
{
    version     2.0;
    format      ascii;
    class       volScalarField;
    location    "0.18";
    object      T;
}
// * * * * * * * * * * * * * * * * * * * * * * * * * * * * * * * * * * * * * //

dimensions      [0 0 0 1 0 0 0];

internalField   nonuniform List<scalar> 
7000
(
102.658
102.658
102.658
102.658
102.658
102.657
102.657
102.656
102.656
102.656
102.658
102.658
102.658
102.658
102.658
102.657
102.657
102.656
102.656
102.656
102.658
102.658
102.658
102.658
102.658
102.657
102.657
102.656
102.656
102.656
102.658
102.658
102.658
102.658
102.657
102.657
102.657
102.656
102.656
102.656
102.658
102.658
102.658
102.658
102.657
102.657
102.657
102.656
102.656
102.656
102.658
102.658
102.658
102.658
102.657
102.657
102.657
102.656
102.656
102.656
102.658
102.658
102.658
102.658
102.657
102.657
102.657
102.656
102.656
102.656
102.658
102.658
102.658
102.658
102.657
102.657
102.657
102.656
102.656
102.656
102.658
102.658
102.658
102.658
102.658
102.657
102.657
102.656
102.656
102.656
102.658
102.658
102.658
102.658
102.658
102.657
102.657
102.656
102.656
102.656
88.1809
88.1805
88.18
88.1791
88.178
88.1766
88.175
88.1735
88.1723
88.1716
88.1808
88.1804
88.1798
88.179
88.1779
88.1765
88.1749
88.1734
88.1722
88.1715
88.1807
88.1804
88.1798
88.1789
88.1778
88.1764
88.1749
88.1733
88.1721
88.1714
88.1807
88.1803
88.1797
88.1789
88.1777
88.1764
88.1748
88.1733
88.1721
88.1714
88.1806
88.1803
88.1797
88.1789
88.1777
88.1763
88.1748
88.1733
88.172
88.1714
88.1806
88.1803
88.1797
88.1788
88.1777
88.1763
88.1748
88.1733
88.1721
88.1714
88.1806
88.1803
88.1797
88.1789
88.1777
88.1764
88.1748
88.1733
88.1721
88.1714
88.1807
88.1803
88.1797
88.1789
88.1778
88.1764
88.1749
88.1733
88.1721
88.1715
88.1807
88.1804
88.1798
88.179
88.1778
88.1765
88.1749
88.1734
88.1722
88.1715
88.1808
88.1804
88.1799
88.179
88.1779
88.1765
88.175
88.1735
88.1722
88.1716
74.3025
74.3018
74.3007
74.299
74.2967
74.2939
74.2906
74.2873
74.2846
74.283
74.3023
74.3017
74.3005
74.2989
74.2966
74.2937
74.2904
74.2872
74.2844
74.2829
74.3022
74.3016
74.3004
74.2988
74.2965
74.2936
74.2903
74.2871
74.2843
74.2828
74.3021
74.3015
74.3004
74.2987
74.2964
74.2935
74.2903
74.287
74.2843
74.2828
74.3021
74.3014
74.3003
74.2987
74.2964
74.2935
74.2902
74.287
74.2843
74.2828
74.3021
74.3014
74.3003
74.2986
74.2964
74.2935
74.2902
74.287
74.2843
74.2828
74.3021
74.3015
74.3003
74.2987
74.2964
74.2935
74.2903
74.287
74.2843
74.2828
74.3021
74.3015
74.3004
74.2987
74.2965
74.2936
74.2904
74.2871
74.2844
74.2829
74.3022
74.3016
74.3005
74.2988
74.2966
74.2937
74.2904
74.2872
74.2845
74.283
74.3023
74.3017
74.3006
74.2989
74.2967
74.2938
74.2906
74.2873
74.2846
74.2831
61.3675
61.3665
61.3646
61.3616
61.3575
61.3522
61.346
61.3395
61.334
61.3308
61.3673
61.3663
61.3644
61.3614
61.3573
61.352
61.3458
61.3393
61.3338
61.3306
61.3672
61.3661
61.3642
61.3613
61.3572
61.3519
61.3457
61.3392
61.3337
61.3305
61.3671
61.366
61.3641
61.3612
61.3571
61.3518
61.3456
61.3391
61.3336
61.3305
61.367
61.366
61.3641
61.3612
61.3571
61.3518
61.3455
61.3391
61.3336
61.3304
61.367
61.366
61.3641
61.3612
61.3571
61.3518
61.3455
61.3391
61.3336
61.3305
61.367
61.366
61.3641
61.3612
61.3571
61.3518
61.3456
61.3391
61.3337
61.3305
61.3671
61.3661
61.3642
61.3613
61.3572
61.3519
61.3457
61.3392
61.3337
61.3306
61.3672
61.3662
61.3643
61.3614
61.3573
61.352
61.3458
61.3394
61.3339
61.3307
61.3673
61.3664
61.3645
61.3616
61.3575
61.3522
61.346
61.3395
61.334
61.3309
49.6455
49.644
49.641
49.6361
49.6291
49.6197
49.6083
49.5959
49.585
49.5784
49.6453
49.6438
49.6407
49.6359
49.6289
49.6195
49.6081
49.5957
49.5848
49.5783
49.6452
49.6436
49.6406
49.6358
49.6287
49.6194
49.6079
49.5956
49.5847
49.5782
49.6451
49.6435
49.6405
49.6357
49.6286
49.6193
49.6078
49.5955
49.5846
49.5781
49.645
49.6435
49.6404
49.6356
49.6286
49.6192
49.6078
49.5955
49.5846
49.5781
49.645
49.6435
49.6404
49.6356
49.6286
49.6192
49.6078
49.5955
49.5846
49.5781
49.6451
49.6435
49.6405
49.6357
49.6287
49.6193
49.6079
49.5956
49.5847
49.5781
49.6451
49.6436
49.6406
49.6358
49.6288
49.6194
49.608
49.5957
49.5848
49.5783
49.6453
49.6437
49.6407
49.6359
49.6289
49.6195
49.6081
49.5958
49.5849
49.5784
49.6454
49.6439
49.6409
49.6361
49.6291
49.6197
49.6083
49.596
49.5851
49.5786
39.316
39.3137
39.3091
39.3014
39.2899
39.2739
39.2536
39.2305
39.209
39.1954
39.3158
39.3135
39.3089
39.3012
39.2897
39.2737
39.2533
39.2303
39.2088
39.1953
39.3156
39.3133
39.3087
39.3011
39.2896
39.2736
39.2532
39.2302
39.2087
39.1951
39.3155
39.3132
39.3086
39.301
39.2895
39.2735
39.2531
39.2301
39.2086
39.1951
39.3155
39.3132
39.3086
39.3009
39.2894
39.2734
39.2531
39.23
39.2086
39.195
39.3155
39.3132
39.3086
39.3009
39.2894
39.2735
39.2531
39.2301
39.2086
39.1951
39.3155
39.3132
39.3086
39.301
39.2895
39.2735
39.2532
39.2301
39.2086
39.1951
39.3156
39.3133
39.3087
39.3011
39.2896
39.2736
39.2533
39.2302
39.2088
39.1953
39.3157
39.3135
39.3089
39.3012
39.2898
39.2738
39.2534
39.2304
39.2089
39.1954
39.3159
39.3137
39.3091
39.3015
39.29
39.274
39.2537
39.2306
39.2091
39.1956
30.4637
30.4605
30.4537
30.4421
30.4241
30.3979
30.3627
30.3204
30.278
30.2494
30.4635
30.4603
30.4535
30.4419
30.4239
30.3977
30.3625
30.3202
30.2778
30.2492
30.4634
30.4601
30.4533
30.4418
30.4238
30.3976
30.3624
30.3201
30.2777
30.2491
30.4633
30.46
30.4532
30.4417
30.4237
30.3975
30.3623
30.32
30.2777
30.249
30.4632
30.46
30.4532
30.4416
30.4236
30.3974
30.3623
30.3199
30.2776
30.249
30.4632
30.46
30.4532
30.4417
30.4236
30.3975
30.3623
30.32
30.2776
30.249
30.4633
30.46
30.4533
30.4417
30.4237
30.3975
30.3623
30.32
30.2777
30.2491
30.4634
30.4601
30.4534
30.4418
30.4238
30.3976
30.3625
30.3202
30.2778
30.2492
30.4635
30.4603
30.4535
30.442
30.424
30.3978
30.3626
30.3203
30.278
30.2494
30.4636
30.4605
30.4538
30.4422
30.4242
30.398
30.3629
30.3206
30.2782
30.2496
23.0851
23.0807
23.0713
23.0547
23.0279
22.987
22.9286
22.8527
22.7691
22.706
23.0849
23.0805
23.0711
23.0545
23.0278
22.9869
22.9284
22.8525
22.769
22.7059
23.0847
23.0804
23.071
23.0544
23.0276
22.9867
22.9283
22.8524
22.7689
22.7058
23.0846
23.0803
23.0709
23.0543
23.0275
22.9866
22.9282
22.8523
22.7688
22.7057
23.0846
23.0803
23.0708
23.0543
23.0275
22.9866
22.9282
22.8523
22.7688
22.7057
23.0846
23.0803
23.0708
23.0543
23.0275
22.9866
22.9282
22.8523
22.7688
22.7057
23.0846
23.0803
23.0709
23.0544
23.0276
22.9867
22.9283
22.8524
22.7689
22.7058
23.0847
23.0804
23.071
23.0545
23.0277
22.9868
22.9284
22.8525
22.769
22.7059
23.0849
23.0806
23.0712
23.0546
23.0279
22.987
22.9286
22.8527
22.7692
22.7061
23.085
23.0808
23.0714
23.0548
23.0281
22.9872
22.9288
22.8529
22.7694
22.7063
17.1023
17.0968
17.0845
17.0623
17.025
16.9651
16.8734
16.7425
16.5781
16.4295
17.1021
17.0966
17.0843
17.0621
17.0249
16.965
16.8733
16.7423
16.5779
16.4294
17.102
17.0965
17.0842
17.062
17.0247
16.9649
16.8732
16.7422
16.5778
16.4293
17.1019
17.0964
17.0841
17.0619
17.0247
16.9648
16.8731
16.7422
16.5778
16.4293
17.1019
17.0964
17.0841
17.0619
17.0246
16.9648
16.8731
16.7421
16.5778
16.4293
17.1019
17.0964
17.0841
17.0619
17.0246
16.9648
16.8731
16.7422
16.5778
16.4293
17.1019
17.0964
17.0842
17.062
17.0247
16.9648
16.8732
16.7422
16.5779
16.4294
17.102
17.0965
17.0843
17.0621
17.0248
16.965
16.8733
16.7423
16.578
16.4295
17.1021
17.0967
17.0844
17.0622
17.025
16.9651
16.8734
16.7425
16.5781
16.4296
17.1023
17.0968
17.0846
17.0624
17.0252
16.9653
16.8736
16.7427
16.5783
16.4298
12.3829
12.3763
12.3615
12.3341
12.2864
12.2061
12.0742
11.864
11.5492
11.166
12.3827
12.3762
12.3614
12.3339
12.2862
12.206
12.0741
11.8639
11.5491
11.1659
12.3826
12.3761
12.3613
12.3338
12.2861
12.2059
12.074
11.8638
11.549
11.1658
12.3825
12.376
12.3612
12.3338
12.2861
12.2058
12.0739
11.8637
11.549
11.1658
12.3825
12.376
12.3612
12.3337
12.2861
12.2058
12.0739
11.8637
11.5489
11.1658
12.3825
12.376
12.3612
12.3337
12.2861
12.2058
12.0739
11.8637
11.549
11.1658
12.3826
12.376
12.3612
12.3338
12.2861
12.2059
12.074
11.8638
11.549
11.1659
12.3826
12.3761
12.3613
12.3339
12.2862
12.206
12.0741
11.8639
11.5491
11.166
12.3828
12.3762
12.3614
12.334
12.2864
12.2061
12.0742
11.864
11.5492
11.1661
12.3829
12.3764
12.3616
12.3342
12.2865
12.2063
12.0744
11.8642
11.5494
11.1662
8.76052
8.75336
8.73691
8.70603
8.65124
8.55601
8.39103
8.10073
7.56425
6.45765
8.7604
8.75324
8.7368
8.70591
8.65112
8.5559
8.39093
8.10063
7.56416
6.45758
8.76032
8.75316
8.73671
8.70583
8.65104
8.55582
8.39086
8.10056
7.5641
6.45753
8.76026
8.7531
8.73666
8.70578
8.65099
8.55578
8.39081
8.10053
7.56407
6.4575
8.76024
8.75308
8.73664
8.70576
8.65098
8.55576
8.3908
8.10052
7.56406
6.4575
8.76025
8.75309
8.73665
8.70577
8.65099
8.55578
8.39082
8.10053
7.56408
6.45752
8.76029
8.75314
8.7367
8.70582
8.65104
8.55583
8.39087
8.10058
7.56413
6.45756
8.76036
8.75321
8.73678
8.7059
8.65112
8.55591
8.39095
8.10066
7.5642
6.45762
8.76046
8.75331
8.73689
8.70601
8.65124
8.55602
8.39106
8.10077
7.5643
6.45771
8.76057
8.75345
8.73703
8.70616
8.65139
8.55617
8.39121
8.10091
7.56444
6.45783
6.05494
6.04771
6.03106
5.99971
5.94403
5.84736
5.68109
5.39579
4.90607
4.07693
6.05484
6.04762
6.03097
5.99962
5.94394
5.84727
5.681
5.39571
4.90601
4.07688
6.05478
6.04755
6.0309
5.99955
5.94388
5.84721
5.68095
5.39566
4.90596
4.07684
6.05474
6.04751
6.03086
5.99952
5.94384
5.84718
5.68092
5.39563
4.90594
4.07682
6.05472
6.0475
6.03085
5.9995
5.94383
5.84717
5.68091
5.39563
4.90593
4.07682
6.05473
6.04751
6.03086
5.99952
5.94385
5.84718
5.68092
5.39564
4.90595
4.07683
6.05477
6.04754
6.0309
5.99956
5.94389
5.84722
5.68096
5.39568
4.90598
4.07686
6.05482
6.0476
6.03096
5.99962
5.94395
5.84729
5.68103
5.39574
4.90604
4.07691
6.0549
6.04769
6.03105
5.99971
5.94405
5.84738
5.68112
5.39583
4.90612
4.07698
6.05499
6.0478
6.03117
5.99984
5.94417
5.8475
5.68124
5.39594
4.90623
4.07707
4.08808
4.08136
4.06593
4.0371
3.98658
3.90067
3.75786
3.52618
3.16364
2.6339
4.088
4.08129
4.06586
4.03703
3.98651
3.9006
3.7578
3.52613
3.16359
2.63386
4.08795
4.08124
4.06581
4.03698
3.98646
3.90056
3.75776
3.52609
3.16356
2.63383
4.08792
4.08121
4.06578
4.03696
3.98644
3.90053
3.75774
3.52607
3.16354
2.63382
4.08791
4.0812
4.06577
4.03695
3.98643
3.90053
3.75773
3.52607
3.16354
2.63381
4.08792
4.08121
4.06578
4.03696
3.98644
3.90054
3.75775
3.52608
3.16355
2.63383
4.08795
4.08124
4.06581
4.03699
3.98647
3.90057
3.75778
3.52611
3.16358
2.63385
4.088
4.08128
4.06586
4.03704
3.98653
3.90063
3.75783
3.52616
3.16362
2.63389
4.08806
4.08135
4.06593
4.03712
3.9866
3.9007
3.7579
3.52623
3.16369
2.63394
4.08813
4.08144
4.06603
4.03721
3.9867
3.90079
3.75799
3.52631
3.16376
2.63401
2.69615
2.69037
2.67718
2.65289
2.61117
2.54229
2.43239
2.26394
2.01997
1.69678
2.6961
2.69032
2.67713
2.65284
2.61112
2.54225
2.43234
2.2639
2.01994
1.69675
2.69606
2.69028
2.67709
2.6528
2.61109
2.54221
2.43231
2.26388
2.01991
1.69673
2.69604
2.69026
2.67707
2.65278
2.61107
2.5422
2.4323
2.26386
2.0199
1.69672
2.69603
2.69025
2.67707
2.65278
2.61107
2.54219
2.43229
2.26386
2.0199
1.69672
2.69604
2.69026
2.67707
2.65278
2.61108
2.5422
2.4323
2.26387
2.01991
1.69673
2.69606
2.69028
2.6771
2.65281
2.6111
2.54223
2.43233
2.26389
2.01993
1.69675
2.6961
2.69032
2.67714
2.65285
2.61114
2.54227
2.43237
2.26393
2.01997
1.69678
2.69615
2.69037
2.67719
2.65291
2.6112
2.54232
2.43242
2.26398
2.02001
1.69682
2.69621
2.69044
2.67727
2.65298
2.61127
2.5424
2.43249
2.26405
2.02007
1.69687
1.737
1.73235
1.72186
1.70285
1.67097
1.61993
1.54167
1.42757
1.27199
1.07908
1.73696
1.73231
1.72182
1.70281
1.67093
1.6199
1.54164
1.42755
1.27196
1.07906
1.73693
1.73229
1.72179
1.70279
1.67091
1.61988
1.54162
1.42753
1.27195
1.07904
1.73692
1.73227
1.72178
1.70277
1.6709
1.61986
1.54161
1.42752
1.27194
1.07903
1.73691
1.73227
1.72177
1.70277
1.67089
1.61986
1.54161
1.42752
1.27194
1.07903
1.73692
1.73227
1.72178
1.70278
1.6709
1.61987
1.54161
1.42752
1.27194
1.07904
1.73693
1.73229
1.7218
1.70279
1.67092
1.61989
1.54163
1.42754
1.27196
1.07905
1.73696
1.73232
1.72183
1.70282
1.67095
1.61992
1.54166
1.42757
1.27199
1.07908
1.737
1.73236
1.72187
1.70287
1.67099
1.61996
1.5417
1.42761
1.27202
1.07911
1.73704
1.73241
1.72192
1.70292
1.67105
1.62001
1.54175
1.42765
1.27206
1.07915
1.09323
1.08973
1.08188
1.06792
1.04506
1.00953
0.956977
0.883515
0.787929
0.674859
1.09321
1.0897
1.08186
1.0679
1.04504
1.00951
0.956956
0.883496
0.787912
0.674844
1.09319
1.08968
1.08184
1.06788
1.04502
1.0095
0.956942
0.883483
0.7879
0.674834
1.09318
1.08967
1.08183
1.06787
1.04501
1.00949
0.956934
0.883476
0.787894
0.674829
1.09318
1.08967
1.08183
1.06787
1.04501
1.00949
0.956933
0.883475
0.787894
0.674829
1.09318
1.08967
1.08183
1.06788
1.04502
1.00949
0.956939
0.883481
0.787899
0.674833
1.09319
1.08969
1.08185
1.06789
1.04503
1.00951
0.956953
0.883494
0.787911
0.674844
1.09321
1.08971
1.08187
1.06791
1.04505
1.00953
0.956973
0.883513
0.787929
0.67486
1.09324
1.08973
1.0819
1.06794
1.04508
1.00956
0.957001
0.88354
0.787953
0.674881
1.09327
1.08977
1.08194
1.06798
1.04512
1.00959
0.957037
0.883573
0.787984
0.674908
0.67226
0.669751
0.664205
0.654503
0.638967
0.615478
0.581826
0.536448
0.479619
0.414841
0.672242
0.669734
0.664188
0.654486
0.638951
0.615463
0.581812
0.536435
0.479607
0.41483
0.67223
0.669722
0.664176
0.654475
0.63894
0.615453
0.581803
0.536427
0.4796
0.414823
0.672223
0.669715
0.66417
0.654468
0.638934
0.615447
0.581798
0.536422
0.479596
0.41482
0.672221
0.669713
0.664168
0.654467
0.638933
0.615447
0.581797
0.536422
0.479596
0.41482
0.672225
0.669717
0.664172
0.654471
0.638938
0.615451
0.581802
0.536426
0.4796
0.414823
0.672234
0.669726
0.664182
0.654481
0.638947
0.615461
0.581811
0.536435
0.479608
0.414831
0.672248
0.669741
0.664197
0.654496
0.638963
0.615476
0.581825
0.536449
0.47962
0.414842
0.672267
0.669761
0.664217
0.654517
0.638984
0.615496
0.581845
0.536467
0.479637
0.414857
0.672288
0.669787
0.664244
0.654545
0.63901
0.615522
0.58187
0.53649
0.479658
0.414876
0.403955
0.402248
0.398514
0.392089
0.382018
0.367178
0.346536
0.319615
0.287121
0.251513
0.403943
0.402236
0.398503
0.392078
0.382008
0.367168
0.346527
0.319607
0.287114
0.251506
0.403935
0.402228
0.398495
0.39207
0.382
0.367161
0.346521
0.319601
0.287109
0.251502
0.403931
0.402224
0.398491
0.392066
0.381997
0.367158
0.346518
0.319598
0.287106
0.2515
0.40393
0.402223
0.39849
0.392066
0.381996
0.367158
0.346518
0.319598
0.287106
0.2515
0.403932
0.402226
0.398493
0.392069
0.381999
0.367161
0.346521
0.319601
0.287109
0.251502
0.403938
0.402232
0.398499
0.392075
0.382006
0.367167
0.346527
0.319607
0.287115
0.251507
0.403948
0.402242
0.39851
0.392086
0.382016
0.367177
0.346537
0.319616
0.287123
0.251515
0.403961
0.402256
0.398524
0.3921
0.382031
0.367191
0.34655
0.319629
0.287134
0.251525
0.403975
0.402273
0.398542
0.392118
0.382049
0.367209
0.346567
0.319645
0.287149
0.251538
0.237231
0.236121
0.233717
0.229645
0.223392
0.214407
0.202281
0.187057
0.169628
0.152099
0.237224
0.236114
0.23371
0.229638
0.223386
0.2144
0.202275
0.187051
0.169623
0.152094
0.237219
0.236109
0.233705
0.229633
0.223381
0.214396
0.202271
0.187048
0.169619
0.152091
0.237216
0.236106
0.233702
0.229631
0.223379
0.214394
0.202269
0.187046
0.169618
0.152089
0.237216
0.236106
0.233702
0.22963
0.223379
0.214394
0.202269
0.187046
0.169618
0.15209
0.237217
0.236108
0.233704
0.229632
0.223381
0.214396
0.202271
0.187048
0.16962
0.152091
0.237222
0.236112
0.233708
0.229637
0.223385
0.214401
0.202276
0.187052
0.169624
0.152095
0.237228
0.236118
0.233715
0.229644
0.223392
0.214407
0.202282
0.187058
0.169629
0.1521
0.237236
0.236127
0.233724
0.229653
0.223402
0.214416
0.202291
0.187067
0.169637
0.152107
0.237246
0.236139
0.233737
0.229665
0.223413
0.214428
0.202302
0.187077
0.169646
0.152116
0.136187
0.135494
0.134009
0.131531
0.127803
0.122581
0.115771
0.107653
0.099284
0.0934256
0.136183
0.13549
0.134004
0.131526
0.127798
0.122577
0.115768
0.107649
0.0992808
0.0934225
0.136179
0.135487
0.134001
0.131524
0.127796
0.122575
0.115765
0.107647
0.0992788
0.0934206
0.136178
0.135485
0.134
0.131522
0.127794
0.122573
0.115764
0.107646
0.0992778
0.0934197
0.136178
0.135485
0.134
0.131522
0.127794
0.122574
0.115764
0.107646
0.099278
0.0934198
0.136179
0.135486
0.134001
0.131523
0.127796
0.122575
0.115766
0.107647
0.0992793
0.0934211
0.136182
0.135489
0.134004
0.131526
0.127799
0.122578
0.115768
0.10765
0.0992818
0.0934235
0.136186
0.135493
0.134008
0.131531
0.127803
0.122582
0.115772
0.107654
0.0992855
0.0934271
0.136191
0.135499
0.134014
0.131537
0.127809
0.122588
0.115778
0.107659
0.0992904
0.0934318
0.136197
0.135507
0.134022
0.131545
0.127817
0.122595
0.115785
0.107666
0.0992966
0.0934377
3.6845
2.246
1.5138
1.23673
1.33361
1.83396
2.87689
4.75316
8.01778
13.7795
3.68445
2.24596
1.51376
1.23669
1.33356
1.8339
2.8768
4.75303
8.01759
13.7793
3.68442
2.24593
1.51374
1.23667
1.33353
1.83385
2.87673
4.75294
8.01746
13.7791
3.6844
2.24592
1.51373
1.23665
1.33351
1.83382
2.8767
4.75288
8.01738
13.779
3.6844
2.24591
1.51372
1.23665
1.3335
1.83381
2.87668
4.75286
8.01734
13.7789
3.68441
2.24592
1.51373
1.23665
1.3335
1.83381
2.87668
4.75286
8.01735
13.7789
3.68444
2.24594
1.51374
1.23666
1.33351
1.83383
2.8767
4.75289
8.01739
13.779
3.68448
2.24598
1.51377
1.23668
1.33353
1.83385
2.87673
4.75294
8.01747
13.7791
3.68454
2.24602
1.5138
1.23671
1.33356
1.83388
2.87677
4.753
8.01756
13.7793
3.68461
2.24607
1.51383
1.23674
1.33359
1.83392
2.87682
4.75307
8.01767
13.7794
2.80583
1.87579
1.33179
1.12058
1.21997
1.66662
2.56973
4.1275
6.63783
10.436
2.80579
1.87575
1.33176
1.12055
1.21993
1.66657
2.56965
4.12739
6.63767
10.4357
2.80576
1.87573
1.33173
1.12053
1.2199
1.66653
2.56959
4.12731
6.63756
10.4356
2.80574
1.87571
1.33172
1.12051
1.21988
1.6665
2.56956
4.12726
6.63749
10.4355
2.80574
1.87571
1.33172
1.12051
1.21988
1.66649
2.56954
4.12724
6.63746
10.4355
2.80575
1.87572
1.33172
1.12051
1.21988
1.66649
2.56954
4.12724
6.63746
10.4355
2.80578
1.87574
1.33174
1.12052
1.21989
1.6665
2.56956
4.12726
6.6375
10.4355
2.80582
1.87577
1.33176
1.12054
1.21991
1.66653
2.56959
4.12731
6.63757
10.4356
2.80587
1.87581
1.33179
1.12057
1.21994
1.66656
2.56964
4.12738
6.63767
10.4358
2.80594
1.87586
1.33183
1.1206
1.21997
1.6666
2.5697
4.12746
6.63779
10.4359
1.97096
1.41929
1.06773
0.933989
1.03011
1.39237
2.09339
3.24178
4.95664
7.27646
1.97093
1.41926
1.06771
0.933959
1.03008
1.39232
2.09332
3.24169
4.95652
7.2763
1.9709
1.41924
1.06769
0.933939
1.03005
1.39228
2.09327
3.24162
4.95643
7.27618
1.97089
1.41923
1.06768
0.933927
1.03003
1.39226
2.09324
3.24158
4.95637
7.27611
1.97089
1.41923
1.06767
0.933922
1.03003
1.39225
2.09323
3.24156
4.95635
7.27608
1.9709
1.41924
1.06768
0.933926
1.03003
1.39225
2.09323
3.24156
4.95636
7.27609
1.97092
1.41925
1.06769
0.933936
1.03004
1.39227
2.09325
3.24158
4.95639
7.27614
1.97095
1.41928
1.06771
0.933954
1.03006
1.39229
2.09328
3.24163
4.95645
7.27622
1.97099
1.41931
1.06774
0.93398
1.03009
1.39232
2.09332
3.24169
4.95653
7.27634
1.97105
1.41936
1.06778
0.934013
1.03012
1.39236
2.09338
3.24177
4.95665
7.2765
1.32961
1.01114
0.800693
0.727313
0.812128
1.08434
1.58725
2.37258
3.4764
4.86655
1.32959
1.01111
0.800671
0.72729
0.812099
1.0843
1.58719
2.37251
3.47631
4.86643
1.32957
1.0111
0.800656
0.727273
0.812078
1.08427
1.58716
2.37245
3.47624
4.86635
1.32956
1.01109
0.800648
0.727263
0.812065
1.08425
1.58713
2.37242
3.4762
4.86629
1.32956
1.01109
0.800646
0.727259
0.81206
1.08425
1.58712
2.37241
3.47618
4.86627
1.32957
1.01109
0.80065
0.727262
0.812062
1.08425
1.58712
2.37241
3.47619
4.86628
1.32958
1.01111
0.800661
0.727272
0.812071
1.08426
1.58714
2.37243
3.47621
4.86632
1.32961
1.01113
0.800678
0.727287
0.812087
1.08428
1.58716
2.37247
3.47626
4.86638
1.32964
1.01116
0.800701
0.727309
0.812111
1.08431
1.5872
2.37252
3.47633
4.86648
1.32968
1.01119
0.800732
0.727338
0.812141
1.08434
1.58725
2.37259
3.47643
4.8666
0.87149
0.690495
0.570763
0.535817
0.604404
0.796984
1.13752
1.64807
2.3339
3.15967
0.871472
0.690478
0.570746
0.535798
0.604382
0.796955
1.13748
1.64802
2.33383
3.15958
0.871459
0.690467
0.570735
0.535785
0.604366
0.796933
1.13745
1.64798
2.33378
3.15952
0.871452
0.690461
0.570728
0.535777
0.604356
0.79692
1.13744
1.64796
2.33375
3.15949
0.871452
0.69046
0.570727
0.535775
0.604352
0.796914
1.13743
1.64795
2.33374
3.15947
0.871457
0.690464
0.57073
0.535778
0.604354
0.796916
1.13743
1.64795
2.33374
3.15948
0.871469
0.690474
0.570739
0.535785
0.604362
0.796925
1.13744
1.64797
2.33376
3.15951
0.871488
0.69049
0.570753
0.535798
0.604375
0.796942
1.13746
1.648
2.3338
3.15956
0.871514
0.690512
0.570772
0.535816
0.604394
0.796965
1.13749
1.64804
2.33386
3.15963
0.871547
0.69054
0.570796
0.535839
0.604419
0.796995
1.13753
1.64809
2.33393
3.15972
0.55754
0.456354
0.390995
0.377393
0.42903
0.55896
0.779734
1.09967
1.5151
2.00089
0.557527
0.456341
0.390983
0.377379
0.429013
0.558938
0.779705
1.09963
1.51505
2.00083
0.557518
0.456333
0.390974
0.37737
0.429001
0.558922
0.779684
1.09961
1.51502
2.00079
0.557513
0.456329
0.39097
0.377364
0.428994
0.558912
0.779672
1.09959
1.515
2.00077
0.557513
0.456328
0.390969
0.377362
0.428991
0.558909
0.779666
1.09958
1.51499
2.00076
0.557517
0.456332
0.390971
0.377365
0.428993
0.55891
0.779668
1.09958
1.515
2.00076
0.557526
0.456339
0.390978
0.377371
0.428999
0.558918
0.779678
1.0996
1.51501
2.00079
0.55754
0.456351
0.390988
0.377381
0.42901
0.55893
0.779694
1.09962
1.51504
2.00082
0.557559
0.456367
0.391003
0.377395
0.429025
0.558949
0.779718
1.09965
1.51508
2.00088
0.557582
0.456388
0.391021
0.377413
0.429045
0.558972
0.779749
1.09969
1.51514
2.00095
0.349598
0.294351
0.260206
0.257195
0.294109
0.378774
0.51744
0.712526
0.958951
1.2408
0.349589
0.294342
0.260197
0.257185
0.294096
0.378758
0.517419
0.7125
0.958919
1.24076
0.349583
0.294336
0.260191
0.257178
0.294088
0.378747
0.517405
0.712481
0.958895
1.24073
0.34958
0.294333
0.260187
0.257174
0.294082
0.37874
0.517396
0.71247
0.958881
1.24071
0.349579
0.294332
0.260187
0.257173
0.294081
0.378738
0.517392
0.712465
0.958876
1.24071
0.349583
0.294335
0.260189
0.257174
0.294082
0.378739
0.517394
0.712468
0.958879
1.24071
0.349589
0.294341
0.260194
0.257179
0.294087
0.378745
0.517401
0.712477
0.958892
1.24073
0.349599
0.294349
0.260202
0.257187
0.294095
0.378755
0.517414
0.712493
0.958913
1.24075
0.349612
0.294361
0.260212
0.257197
0.294107
0.378768
0.517431
0.712516
0.958943
1.24079
0.349629
0.294376
0.260226
0.257211
0.294121
0.378786
0.517454
0.712546
0.958982
1.24084
0.216962
0.188172
0.171491
0.17325
0.199048
0.253445
0.339334
0.456602
0.600422
0.760349
0.216955
0.188166
0.171484
0.173243
0.199039
0.253434
0.339319
0.456584
0.6004
0.760322
0.216951
0.188162
0.17148
0.173238
0.199033
0.253426
0.339309
0.456572
0.600384
0.760304
0.216949
0.18816
0.171478
0.173235
0.199029
0.253422
0.339303
0.456564
0.600375
0.760293
0.216949
0.18816
0.171477
0.173234
0.199028
0.25342
0.339301
0.456561
0.600371
0.760289
0.216951
0.188162
0.171479
0.173236
0.199029
0.253421
0.339302
0.456563
0.600374
0.760293
0.216956
0.188166
0.171483
0.173239
0.199033
0.253426
0.339308
0.45657
0.600383
0.760304
0.216963
0.188172
0.171488
0.173245
0.199039
0.253433
0.339317
0.456582
0.600398
0.760323
0.216972
0.18818
0.171496
0.173253
0.199047
0.253443
0.33933
0.456599
0.600419
0.760349
0.216984
0.188191
0.171506
0.173263
0.199058
0.253456
0.339347
0.45662
0.600447
0.760383
0.137399
0.124227
0.117154
0.120952
0.139545
0.175717
0.23061
0.302809
0.387161
0.474221
0.137394
0.124222
0.11715
0.120947
0.139539
0.175709
0.2306
0.302796
0.387146
0.474203
0.137392
0.124219
0.117146
0.120943
0.139534
0.175703
0.230593
0.302787
0.387135
0.474191
0.13739
0.124218
0.117145
0.120941
0.139532
0.1757
0.230589
0.302782
0.387129
0.474184
0.13739
0.124218
0.117145
0.12094
0.139531
0.175699
0.230587
0.30278
0.387127
0.474182
0.137392
0.124219
0.117146
0.120941
0.139532
0.1757
0.230589
0.302782
0.387129
0.474185
0.137395
0.124222
0.117149
0.120944
0.139535
0.175703
0.230593
0.302787
0.387136
0.474193
0.1374
0.124227
0.117153
0.120949
0.13954
0.175709
0.2306
0.302796
0.387147
0.474206
0.137406
0.124233
0.117159
0.120954
0.139546
0.175717
0.23061
0.302808
0.387162
0.474225
0.137415
0.12424
0.117166
0.120962
0.139554
0.175726
0.230622
0.302824
0.387182
0.474248
0.0975884
0.0937153
0.0913708
0.0960039
0.111119
0.138781
0.179345
0.230582
0.286021
0.33165
0.0975854
0.0937123
0.0913675
0.0960001
0.111115
0.138775
0.179338
0.230574
0.286011
0.331639
0.0975833
0.0937101
0.0913651
0.0959973
0.111111
0.138771
0.179332
0.230567
0.286003
0.331631
0.0975823
0.0937089
0.0913638
0.0959957
0.111109
0.138768
0.179329
0.230563
0.285998
0.331625
0.0975824
0.093709
0.0913636
0.0959954
0.111109
0.138767
0.179328
0.230562
0.285997
0.331624
0.0975837
0.0937102
0.0913647
0.0959964
0.11111
0.138768
0.179329
0.230563
0.285999
0.331626
0.0975862
0.0937126
0.0913671
0.0959987
0.111112
0.138771
0.179333
0.230568
0.286004
0.331632
0.09759
0.0937163
0.0913707
0.0960024
0.111116
0.138776
0.179338
0.230575
0.286013
0.331643
0.097595
0.0937212
0.0913755
0.0960074
0.111122
0.138782
0.179347
0.230585
0.286025
0.331657
0.097601
0.0937271
0.0913814
0.0960135
0.111129
0.138791
0.179357
0.230598
0.286041
0.331675
24.5329
28.824
30.9021
32.0247
32.6615
33.0285
33.2393
33.358
33.4211
33.4484
24.5325
28.8235
30.9016
32.0242
32.661
33.0279
33.2387
33.3575
33.4206
33.448
24.5322
28.8232
30.9013
32.0239
32.6607
33.0276
33.2384
33.3571
33.4203
33.4478
24.532
28.8231
30.9011
32.0237
32.6605
33.0274
33.2382
33.357
33.4201
33.4476
24.532
28.823
30.901
32.0236
32.6604
33.0273
33.2382
33.3569
33.4201
33.4476
24.532
28.823
30.9011
32.0237
32.6604
33.0274
33.2382
33.357
33.4202
33.4477
24.5321
28.8231
30.9012
32.0238
32.6606
33.0276
33.2384
33.3572
33.4204
33.4479
24.5323
28.8234
30.9015
32.0241
32.6609
33.0279
33.2387
33.3575
33.4207
33.4482
24.5325
28.8237
30.9018
32.0245
32.6613
33.0283
33.2391
33.3579
33.4211
33.4486
24.5328
28.824
30.9022
32.0249
32.6617
33.0287
33.2396
33.3584
33.4216
33.4491
15.4291
18.6652
20.5694
21.6754
22.3183
22.6913
22.9057
23.0263
23.0903
23.1179
15.4288
18.6649
20.569
21.675
22.3179
22.6909
22.9053
23.0259
23.0899
23.1177
15.4286
18.6647
20.5688
21.6747
22.3176
22.6906
22.9051
23.0257
23.0897
23.1175
15.4285
18.6645
20.5686
21.6746
22.3175
22.6905
22.9049
23.0255
23.0896
23.1174
15.4285
18.6645
20.5686
21.6745
22.3174
22.6904
22.9049
23.0255
23.0895
23.1173
15.4285
18.6645
20.5686
21.6746
22.3175
22.6905
22.9049
23.0255
23.0896
23.1174
15.4286
18.6646
20.5687
21.6747
22.3176
22.6906
22.9051
23.0257
23.0897
23.1176
15.4287
18.6648
20.5689
21.6749
22.3178
22.6909
22.9053
23.026
23.09
23.1178
15.4289
18.665
20.5692
21.6752
22.3182
22.6912
22.9057
23.0263
23.0904
23.1182
15.4292
18.6653
20.5696
21.6756
22.3186
22.6916
22.9061
23.0267
23.0908
23.1186
9.92742
12.0139
13.431
14.3321
14.8855
15.2175
15.4123
15.5232
15.5826
15.6083
9.92723
12.0137
13.4308
14.3319
14.8852
15.2172
15.412
15.523
15.5823
15.6082
9.92709
12.0135
13.4306
14.3317
14.885
15.217
15.4118
15.5228
15.5821
15.608
9.927
12.0134
13.4305
14.3316
14.8849
15.2169
15.4117
15.5227
15.582
15.6079
9.92696
12.0134
13.4305
14.3315
14.8849
15.2168
15.4117
15.5226
15.582
15.6079
9.92697
12.0134
13.4305
14.3315
14.8849
15.2169
15.4117
15.5227
15.5821
15.608
9.92704
12.0135
13.4306
14.3316
14.885
15.217
15.4118
15.5228
15.5822
15.6081
9.92715
12.0136
13.4307
14.3318
14.8852
15.2172
15.412
15.523
15.5824
15.6083
9.9273
12.0138
13.431
14.3321
14.8855
15.2175
15.4123
15.5233
15.5827
15.6086
9.92751
12.0141
13.4312
14.3324
14.8858
15.2178
15.4127
15.5237
15.5831
15.6089
6.36693
7.65477
8.6148
9.27262
9.69965
9.96629
10.1273
10.2209
10.2717
10.2939
6.36679
7.65461
8.61462
9.27243
9.69946
9.96609
10.1271
10.2207
10.2715
10.2938
6.36669
7.6545
8.61449
9.2723
9.69932
9.96596
10.127
10.2206
10.2714
10.2937
6.36663
7.65443
8.61442
9.27222
9.69924
9.96587
10.1269
10.2205
10.2713
10.2936
6.3666
7.6544
8.61439
9.27219
9.69921
9.96585
10.1269
10.2205
10.2713
10.2936
6.36662
7.65441
8.61441
9.27222
9.69924
9.96588
10.1269
10.2206
10.2714
10.2937
6.36666
7.65447
8.61448
9.27229
9.69933
9.96597
10.127
10.2207
10.2715
10.2938
6.36675
7.65458
8.6146
9.27242
9.69947
9.96612
10.1272
10.2208
10.2716
10.2939
6.36687
7.65472
8.61476
9.27261
9.69966
9.96633
10.1274
10.221
10.2718
10.2941
6.36703
7.65492
8.61498
9.27285
9.69992
9.96659
10.1277
10.2213
10.2721
10.2944
4.02944
4.80892
5.42613
5.87393
6.17897
6.37695
6.5002
6.57352
6.61394
6.63182
4.02934
4.8088
5.42601
5.8738
6.17883
6.37681
6.50006
6.57339
6.61381
6.63172
4.02927
4.80872
5.42592
5.8737
6.17873
6.37671
6.49997
6.57329
6.61373
6.63165
4.02923
4.80867
5.42587
5.87365
6.17868
6.37666
6.49991
6.57324
6.61368
6.63161
4.02921
4.80866
5.42585
5.87363
6.17866
6.37664
6.4999
6.57323
6.61367
6.6316
4.02922
4.80867
5.42586
5.87365
6.17868
6.37667
6.49993
6.57326
6.61371
6.63164
4.02926
4.80871
5.42592
5.87371
6.17875
6.37673
6.5
6.57334
6.61378
6.63171
4.02932
4.80879
5.426
5.8738
6.17885
6.37684
6.50011
6.57345
6.6139
6.63183
4.02941
4.8089
5.42613
5.87394
6.179
6.377
6.50027
6.57362
6.61407
6.632
4.02953
4.80904
5.42629
5.87412
6.17919
6.3772
6.50048
6.57383
6.61428
6.63221
2.50668
2.97106
3.35391
3.64394
3.84956
3.98773
4.07627
4.13017
4.16041
4.17392
2.50662
2.97098
3.35383
3.64385
3.84947
3.98763
4.07617
4.13008
4.16032
4.17386
2.50657
2.97092
3.35377
3.64379
3.8494
3.98756
4.0761
4.13001
4.16026
4.17381
2.50654
2.97089
3.35374
3.64375
3.84936
3.98753
4.07607
4.12998
4.16023
4.17378
2.50653
2.97088
3.35372
3.64374
3.84935
3.98752
4.07606
4.12997
4.16023
4.17378
2.50654
2.97089
3.35374
3.64375
3.84937
3.98754
4.07608
4.13
4.16025
4.1738
2.50656
2.97092
3.35377
3.6438
3.84942
3.98759
4.07613
4.13005
4.16031
4.17386
2.50661
2.97098
3.35384
3.64387
3.84949
3.98767
4.07622
4.13014
4.16039
4.17395
2.50667