/*--------------------------------*- C++ -*----------------------------------*\
  =========                 |
  \\      /  F ield         | OpenFOAM: The Open Source CFD Toolbox
   \\    /   O peration     | Website:  https://openfoam.org
    \\  /    A nd           | Version:  6
     \\/     M anipulation  |
\*---------------------------------------------------------------------------*/
FoamFile
{
    version     2.0;
    format      ascii;
    class       volScalarField;
    location    "0.425";
    object      T;
}
// * * * * * * * * * * * * * * * * * * * * * * * * * * * * * * * * * * * * * //

dimensions      [0 0 0 1 0 0 0];

internalField   nonuniform List<scalar> 
7000
(
105.2
105.199
105.195
105.19
105.184
105.178
105.171
105.165
105.161
105.158
105.2
105.199
105.195
105.19
105.184
105.178
105.171
105.165
105.161
105.158
105.2
105.199
105.195
105.19
105.184
105.178
105.171
105.165
105.161
105.158
105.2
105.199
105.195
105.19
105.184
105.178
105.171
105.165
105.161
105.158
105.2
105.199
105.195
105.19
105.184
105.178
105.171
105.165
105.161
105.158
105.2
105.199
105.195
105.19
105.184
105.178
105.171
105.165
105.161
105.158
105.2
105.199
105.195
105.19
105.184
105.178
105.171
105.165
105.161
105.158
105.2
105.199
105.195
105.19
105.184
105.178
105.171
105.165
105.161
105.158
105.2
105.199
105.195
105.19
105.184
105.178
105.171
105.165
105.161
105.158
105.2
105.199
105.195
105.19
105.184
105.178
105.171
105.165
105.161
105.158
95.6569
95.6515
95.641
95.6259
95.6074
95.5866
95.5657
95.5469
95.5325
95.5247
95.6569
95.6514
95.6409
95.6259
95.6073
95.5866
95.5657
95.5468
95.5325
95.5247
95.6568
95.6514
95.6409
95.6259
95.6073
95.5866
95.5657
95.5468
95.5325
95.5247
95.6568
95.6514
95.6409
95.6259
95.6073
95.5866
95.5657
95.5468
95.5325
95.5247
95.6568
95.6514
95.6409
95.6259
95.6073
95.5866
95.5656
95.5468
95.5325
95.5247
95.6568
95.6514
95.6409
95.6259
95.6073
95.5866
95.5656
95.5468
95.5325
95.5247
95.6568
95.6514
95.6409
95.6259
95.6073
95.5866
95.5657
95.5468
95.5325
95.5247
95.6568
95.6514
95.6409
95.6259
95.6073
95.5866
95.5657
95.5468
95.5325
95.5247
95.6568
95.6514
95.6409
95.6259
95.6073
95.5866
95.5657
95.5468
95.5325
95.5247
95.6568
95.6514
95.6409
95.6259
95.6073
95.5866
95.5657
95.5469
95.5325
95.5247
86.2781
86.2686
86.25
86.2233
86.1901
86.1528
86.1147
86.08
86.0534
86.0389
86.278
86.2685
86.25
86.2233
86.1901
86.1528
86.1147
86.08
86.0534
86.0388
86.278
86.2685
86.2499
86.2233
86.1901
86.1527
86.1146
86.08
86.0533
86.0388
86.278
86.2684
86.2499
86.2232
86.19
86.1527
86.1146
86.08
86.0533
86.0388
86.2779
86.2684
86.2499
86.2232
86.19
86.1527
86.1146
86.0799
86.0533
86.0388
86.2779
86.2684
86.2499
86.2232
86.19
86.1527
86.1146
86.0799
86.0533
86.0388
86.2779
86.2684
86.2499
86.2232
86.19
86.1527
86.1146
86.08
86.0533
86.0388
86.278
86.2685
86.2499
86.2232
86.19
86.1527
86.1146
86.08
86.0533
86.0388
86.278
86.2685
86.2499
86.2233
86.1901
86.1527
86.1146
86.08
86.0534
86.0388
86.278
86.2685
86.25
86.2233
86.1901
86.1528
86.1147
86.08
86.0534
86.0389
77.1678
77.1535
77.1254
77.0847
77.0334
76.975
76.9146
76.8586
76.8149
76.7908
77.1678
77.1534
77.1253
77.0846
77.0334
76.975
76.9145
76.8586
76.8149
76.7908
77.1677
77.1534
77.1253
77.0846
77.0333
76.9749
76.9145
76.8585
76.8149
76.7907
77.1677
77.1534
77.1253
77.0845
77.0333
76.9749
76.9144
76.8585
76.8148
76.7907
77.1677
77.1533
77.1252
77.0845
77.0333
76.9749
76.9144
76.8585
76.8148
76.7907
77.1677
77.1533
77.1252
77.0845
77.0333
76.9749
76.9144
76.8585
76.8148
76.7907
77.1677
77.1533
77.1253
77.0845
77.0333
76.9749
76.9144
76.8585
76.8148
76.7907
77.1677
77.1534
77.1253
77.0846
77.0333
76.9749
76.9144
76.8585
76.8149
76.7907
77.1677
77.1534
77.1253
77.0846
77.0334
76.975
76.9145
76.8585
76.8149
76.7908
77.1677
77.1534
77.1253
77.0846
77.0334
76.975
76.9145
76.8586
76.8149
76.7908
68.4214
68.4013
68.3617
68.3036
68.2295
68.1435
68.0525
67.9662
67.8973
67.8585
68.4213
68.4012
68.3616
68.3036
68.2294
68.1435
68.0524
67.9662
67.8972
67.8584
68.4213
68.4012
68.3615
68.3035
68.2294
68.1434
68.0524
67.9661
67.8972
67.8584
68.4212
68.4012
68.3615
68.3035
68.2294
68.1434
68.0523
67.9661
67.8972
67.8584
68.4212
68.4011
68.3615
68.3034
68.2293
68.1434
68.0523
67.9661
67.8971
67.8583
68.4212
68.4011
68.3615
68.3034
68.2293
68.1434
68.0523
67.9661
67.8971
67.8583
68.4212
68.4011
68.3615
68.3035
68.2293
68.1434
68.0523
67.9661
67.8972
67.8584
68.4213
68.4012
68.3615
68.3035
68.2294
68.1434
68.0524
67.9661
67.8972
67.8584
68.4213
68.4012
68.3616
68.3035
68.2294
68.1434
68.0524
67.9662
67.8972
67.8584
68.4213
68.4013
68.3616
68.3036
68.2295
68.1435
68.0525
67.9662
67.8973
67.8585
60.1227
60.0958
60.0424
59.9631
59.86
59.7376
59.6041
59.4734
59.3651
59.3021
60.1226
60.0957
60.0423
59.963
59.8599
59.7375
59.6041
59.4733
59.365
59.3021
60.1226
60.0957
60.0422
59.9629
59.8599
59.7375
59.604
59.4732
59.3649
59.302
60.1225
60.0956
60.0422
59.9629
59.8598
59.7374
59.604
59.4732
59.3649
59.302
60.1225
60.0956
60.0422
59.9629
59.8598
59.7374
59.6039
59.4732
59.3649
59.302
60.1225
60.0956
60.0422
59.9629
59.8598
59.7374
59.6039
59.4732
59.3649
59.302
60.1225
60.0956
60.0422
59.9629
59.8598
59.7374
59.604
59.4732
59.3649
59.302
60.1225
60.0957
60.0422
59.9629
59.8599
59.7375
59.604
59.4733
59.365
59.302
60.1226
60.0957
60.0422
59.963
59.8599
59.7375
59.604
59.4733
59.365
59.3021
60.1226
60.0958
60.0423
59.963
59.86
59.7376
59.6041
59.4734
59.3651
59.3022
52.3422
52.3076
52.2381
52.1337
51.9949
51.8251
51.633
51.4358
51.2636
51.1581
52.3421
52.3075
52.2381
52.1336
51.9948
51.8251
51.6329
51.4358
51.2635
51.158
52.3421
52.3074
52.238
52.1335
51.9947
51.825
51.6329
51.4357
51.2634
51.158
52.342
52.3074
52.238
52.1335
51.9947
51.825
51.6328
51.4357
51.2634
51.1579
52.342
52.3074
52.2379
52.1334
51.9947
51.8249
51.6328
51.4356
51.2634
51.1579
52.342
52.3074
52.2379
52.1334
51.9947
51.8249
51.6328
51.4356
51.2634
51.1579
52.342
52.3074
52.238
52.1335
51.9947
51.825
51.6328
51.4357
51.2634
51.158
52.342
52.3074
52.238
52.1335
51.9947
51.825
51.6329
51.4357
51.2635
51.158
52.3421
52.3075
52.238
52.1336
51.9948
51.8251
51.6329
51.4358
51.2635
51.158
52.3421
52.3075
52.2381
52.1336
51.9949
51.8251
51.633
51.4358
51.2636
51.1581
45.1355
45.0926
45.0057
44.8729
44.6922
44.4636
44.1924
43.8962
43.6162
43.4283
45.1354
45.0925
45.0056
44.8728
44.6921
44.4635
44.1923
43.8961
43.6161
43.4282
45.1354
45.0924
45.0056
44.8728
44.6921
44.4634
44.1922
43.8961
43.616
43.4282
45.1353
45.0924
45.0055
44.8727
44.692
44.4634
44.1922
43.8961
43.616
43.4282
45.1353
45.0924
45.0055
44.8727
44.692
44.4634
44.1922
43.896
43.616
43.4282
45.1353
45.0924
45.0055
44.8727
44.692
44.4634
44.1922
43.896
43.616
43.4282
45.1353
45.0924
45.0055
44.8727
44.692
44.4634
44.1922
43.8961
43.616
43.4282
45.1353
45.0924
45.0056
44.8728
44.6921
44.4634
44.1923
43.8961
43.6161
43.4282
45.1354
45.0925
45.0056
44.8728
44.6921
44.4635
44.1923
43.8962
43.6161
43.4283
45.1354
45.0926
45.0057
44.8729
44.6922
44.4636
44.1924
43.8962
43.6162
43.4284
38.5424
38.4913
38.3871
38.2252
37.9994
37.7029
37.3316
36.8923
36.4261
36.059
38.5423
38.4912
38.387
38.2251
37.9993
37.7028
37.3315
36.8922
36.4261
36.0589
38.5422
38.4912
38.3869
38.225
37.9992
37.7028
37.3314
36.8922
36.426
36.0589
38.5422
38.4911
38.3869
38.225
37.9992
37.7027
37.3314
36.8922
36.426
36.0588
38.5421
38.4911
38.3869
38.225
37.9992
37.7027
37.3314
36.8921
36.426
36.0588
38.5421
38.4911
38.3869
38.225
37.9992
37.7027
37.3314
36.8921
36.426
36.0588
38.5422
38.4911
38.3869
38.225
37.9992
37.7028
37.3314
36.8922
36.426
36.0588
38.5422
38.4912
38.3869
38.225
37.9993
37.7028
37.3314
36.8922
36.426
36.0589
38.5422
38.4912
38.387
38.2251
37.9993
37.7029
37.3315
36.8923
36.4261
36.059
38.5423
38.4913
38.3871
38.2252
37.9994
37.7029
37.3316
36.8924
36.4262
36.059
32.5863
32.5284
32.4091
32.2213
31.9536
31.5896
31.1072
30.4807
29.7
28.8842
32.5863
32.5283
32.409
32.2212
31.9535
31.5895
31.1071
30.4806
29.6999
28.8842
32.5862
32.5282
32.4089
32.2211
31.9534
31.5894
31.1071
30.4805
29.6998
28.8841
32.5861
32.5282
32.4089
32.2211
31.9534
31.5894
31.107
30.4805
29.6998
28.8841
32.5861
32.5282
32.4089
32.2211
31.9534
31.5894
31.107
30.4805
29.6998
28.8841
32.5861
32.5282
32.4089
32.2211
31.9534
31.5894
31.107
30.4805
29.6998
28.8841
32.5861
32.5282
32.4089
32.2211
31.9534
31.5894
31.107
30.4805
29.6998
28.8841
32.5862
32.5282
32.4089
32.2211
31.9534
31.5895
31.1071
30.4805
29.6999
28.8841
32.5862
32.5283
32.409
32.2212
31.9535
31.5895
31.1071
30.4806
29.6999
28.8842
32.5863
32.5284
32.4091
32.2213
31.9536
31.5896
31.1072
30.4807
29.7
28.8843
27.2748
27.2122
27.0828
26.8773
26.5802
26.1666
25.595
24.7879
23.5717
21.4559
27.2747
27.2121
27.0827
26.8772
26.5801
26.1665
25.5949
24.7878
23.5716
21.4558
27.2746
27.212
27.0826
26.8771
26.58
26.1665
25.5949
24.7878
23.5715
21.4558
27.2746
27.212
27.0826
26.8771
26.58
26.1664
25.5949
24.7878
23.5715
21.4557
27.2746
27.212
27.0826
26.8771
26.58
26.1664
25.5948
24.7877
23.5715
21.4557
27.2746
27.212
27.0826
26.8771
26.58
26.1664
25.5948
24.7877
23.5715
21.4557
27.2746
27.212
27.0826
26.8771
26.58
26.1665
25.5949
24.7878
23.5715
21.4557
27.2746
27.212
27.0826
26.8771
26.5801
26.1665
25.5949
24.7878
23.5716
21.4558
27.2747
27.2121
27.0827
26.8772
26.5801
26.1666
25.595
24.7879
23.5716
21.4558
27.2748
27.2122
27.0828
26.8773
26.5802
26.1666
25.5951
24.788
23.5717
21.4559
22.5994
22.5353
22.4026
22.1917
21.8862
21.4606
20.8735
20.0567
18.8945
17.2082
22.5993
22.5352
22.4025
22.1916
21.8862
21.4605
20.8734
20.0567
18.8944
17.2081
22.5993
22.5351
22.4025
22.1915
21.8861
21.4604
20.8734
20.0566
18.8943
17.208
22.5992
22.5351
22.4024
22.1915
21.8861
21.4604
20.8733
20.0566
18.8943
17.208
22.5992
22.5351
22.4024
22.1915
21.886
21.4604
20.8733
20.0566
18.8943
17.208
22.5992
22.5351
22.4024
22.1915
21.8861
21.4604
20.8733
20.0566
18.8943
17.208
22.5992
22.5351
22.4024
22.1915
21.8861
21.4604
20.8734
20.0566
18.8943
17.208
22.5993
22.5351
22.4025
22.1915
21.8861
21.4605
20.8734
20.0566
18.8943
17.208
22.5993
22.5352
22.4025
22.1916
21.8862
21.4605
20.8735
20.0567
18.8944
17.2081
22.5994
22.5353
22.4026
22.1917
21.8863
21.4606
20.8735
20.0568
18.8945
17.2082
18.5374
18.4751
18.3465
18.1432
17.8515
17.4512
16.9138
16.2014
15.2724
14.1139
18.5373
18.475
18.3465
18.1432
17.8515
17.4511
16.9137
16.2013
15.2723
14.1138
18.5373
18.475
18.3464
18.1431
17.8514
17.4511
16.9136
16.2012
15.2722
14.1138
18.5372
18.4749
18.3464
18.1431
17.8514
17.4511
16.9136
16.2012
15.2722
14.1137
18.5372
18.4749
18.3464
18.1431
17.8514
17.451
16.9136
16.2012
15.2722
14.1137
18.5372
18.4749
18.3464
18.1431
17.8514
17.451
16.9136
16.2012
15.2722
14.1137
18.5372
18.4749
18.3464
18.1431
17.8514
17.4511
16.9136
16.2012
15.2722
14.1137
18.5373
18.475
18.3464
18.1431
17.8514
17.4511
16.9137
16.2013
15.2722
14.1138
18.5373
18.475
18.3465
18.1432
17.8515
17.4512
16.9137
16.2013
15.2723
14.1138
18.5374
18.4751
18.3466
18.1433
17.8516
17.4512
16.9138
16.2014
15.2724
14.1139
15.0537
14.9961
14.878
14.6931
14.432
14.0824
13.6301
13.0632
12.3829
11.6291
15.0536
14.9961
14.878
14.6931
14.432
14.0823
13.63
13.0632
12.3828
11.629
15.0536
14.996
14.8779
14.693
14.4319
14.0823
13.63
13.0631
12.3828
11.629
15.0535
14.996
14.8779
14.693
14.4319
14.0822
13.6299
13.0631
12.3828
11.6289
15.0535
14.996
14.8779
14.693
14.4319
14.0822
13.6299
13.0631
12.3827
11.6289
15.0535
14.996
14.8779
14.693
14.4319
14.0822
13.6299
13.0631
12.3827
11.6289
15.0535
14.996
14.8779
14.693
14.4319
14.0822
13.63
13.0631
12.3828
11.6289
15.0536
14.996
14.8779
14.693
14.4319
14.0823
13.63
13.0631
12.3828
11.629
15.0536
14.9961
14.878
14.6931
14.432
14.0823
13.6301
13.0632
12.3829
11.629
15.0537
14.9962
14.8781
14.6932
14.4321
14.0824
13.6301
13.0633
12.3829
11.6291
12.1036
12.0529
11.9496
11.7899
11.569
11.2818
10.9254
10.5039
10.0367
9.57256
12.1036
12.0528
11.9495
11.7899
11.569
11.2817
10.9253
10.5038
10.0367
9.5725
12.1035
12.0528
11.9495
11.7898
11.5689
11.2817
10.9253
10.5038
10.0366
9.57245
12.1035
12.0528
11.9494
11.7898
11.5689
11.2817
10.9253
10.5037
10.0366
9.57242
12.1035
12.0528
11.9494
11.7898
11.5689
11.2816
10.9252
10.5037
10.0366
9.57241
12.1035
12.0528
11.9494
11.7898
11.5689
11.2816
10.9252
10.5037
10.0366
9.57241
12.1035
12.0528
11.9495
11.7898
11.5689
11.2817
10.9253
10.5038
10.0366
9.57243
12.1035
12.0528
11.9495
11.7898
11.5689
11.2817
10.9253
10.5038
10.0367
9.57247
12.1036
12.0529
11.9495
11.7899
11.569
11.2817
10.9254
10.5038
10.0367
9.57252
12.1036
12.0529
11.9496
11.79
11.5691
11.2818
10.9254
10.5039
10.0368
9.57259
9.63616
9.59336
9.50693
9.37545
9.19772
8.97429
8.70976
8.41664
8.12036
7.86488
9.63611
9.5933
9.50688
9.37539
9.19767
8.97423
8.70971
8.41658
8.12031
7.86483
9.63607
9.59327
9.50684
9.37536
9.19763
8.9742
8.70967
8.41654
8.12027
7.86478
9.63604
9.59324
9.50682
9.37533
9.19761
8.97417
8.70965
8.41652
8.12024
7.86476
9.63603
9.59323
9.5068
9.37532
9.1976
8.97416
8.70964
8.41651
8.12023
7.86475
9.63603
9.59323
9.50681
9.37532
9.1976
8.97417
8.70964
8.41651
8.12023
7.86475
9.63605
9.59325
9.50682
9.37534
9.19762
8.97418
8.70966
8.41653
8.12025
7.86477
9.63608
9.59328
9.50685
9.37537
9.19765
8.97422
8.70969
8.41656
8.12029
7.8648
9.63611
9.59332
9.5069
9.37542
9.1977
8.97426
8.70974
8.41661
8.12033
7.86485
9.63616
9.59337
9.50696
9.37548
9.19776
8.97432
8.7098
8.41667
8.12039
7.86491
7.59704
7.56234
7.49298
7.3893
7.25294
7.08822
6.90437
6.71826
6.55705
6.45878
7.59699
7.56229
7.49293
7.38926
7.25289
7.08817
6.90433
6.71821
6.557
6.45873
7.59696
7.56226
7.4929
7.38922
7.25286
7.08814
6.90429
6.71818
6.55696
6.45869
7.59694
7.56224
7.49288
7.3892
7.25284
7.08812
6.90427
6.71816
6.55694
6.45867
7.59693
7.56223
7.49287
7.38919
7.25283
7.08811
6.90426
6.71815
6.55693
6.45866
7.59693
7.56223
7.49287
7.3892
7.25283
7.08811
6.90427
6.71815
6.55693
6.45866
7.59694
7.56225
7.49288
7.38921
7.25285
7.08813
6.90428
6.71817
6.55695
6.45868
7.59697
7.56227
7.49291
7.38924
7.25288
7.08816
6.90431
6.7182
6.55698
6.45871
7.597
7.56231
7.49295
7.38928
7.25292
7.0882
6.90435
6.71824
6.55702
6.45875
7.59704
7.56236
7.493
7.38933
7.25297
7.08825
6.90441
6.7183
6.55708
6.45881
5.9315
5.9044
5.85081
5.77232
5.67236
5.55763
5.44008
5.33945
5.28532
5.31564
5.93146
5.90436
5.85077
5.77228
5.67233
5.55759
5.44004
5.33941
5.28528
5.31559
5.93144
5.90433
5.85074
5.77226
5.6723
5.55756
5.44001
5.33938
5.28524
5.31556
5.93142
5.90431
5.85072
5.77224
5.67228
5.55754
5.43999
5.33936
5.28522
5.31554
5.93141
5.9043
5.85072
5.77223
5.67227
5.55753
5.43999
5.33936
5.28522
5.31553
5.93141
5.9043
5.85072
5.77223
5.67228
5.55754
5.43999
5.33936
5.28522
5.31553
5.93142
5.90432
5.85073
5.77225
5.67229
5.55755
5.44
5.33937
5.28524
5.31555
5.93145
5.90434
5.85076
5.77227
5.67232
5.55758
5.44003
5.3394
5.28526
5.31558
5.93147
5.90437
5.85079
5.77231
5.67235
5.55761
5.44007
5.33944
5.2853
5.31562
5.93151
5.90441
5.85084
5.77236
5.6724
5.55766
5.44011
5.33949
5.28535
5.31567
4.58655
4.56606
4.52607
4.46879
4.39854
4.32307
4.25554
4.21775
4.24472
4.38927
4.58651
4.56603
4.52603
4.46875
4.39851
4.32303
4.25551
4.21772
4.24468
4.38923
4.58649
4.56601
4.52601
4.46873
4.39849
4.32301
4.25548
4.21769
4.24465
4.3892
4.58647
4.56599
4.526
4.46872
4.39847
4.32299
4.25547
4.21768
4.24464
4.38918
4.58647
4.56598
4.52599
4.46871
4.39847
4.32299
4.25546
4.21767
4.24463
4.38918
4.58647
4.56599
4.52599
4.46871
4.39847
4.32299
4.25547
4.21767
4.24463
4.38918
4.58648
4.566
4.526
4.46873
4.39848
4.32301
4.25548
4.21769
4.24465
4.38919
4.5865
4.56602
4.52602
4.46875
4.3985
4.32303
4.2555
4.21771
4.24467
4.38922
4.58653
4.56605
4.52605
4.46878
4.39854
4.32306
4.25553
4.21774
4.24471
4.38926
4.58656
4.56608
4.52609
4.46882
4.39858
4.3231
4.25558
4.21778
4.24475
4.3893
3.51258
3.49754
3.46853
3.42793
3.3801
3.33242
3.29711
3.29475
3.36331
3.58892
3.51255
3.49751
3.4685
3.42791
3.38007
3.33239
3.29708
3.29472
3.36328
3.58888
3.51253
3.49749
3.46848
3.42789
3.38005
3.33237
3.29706
3.2947
3.36326
3.58886
3.51252
3.49748
3.46847
3.42787
3.38004
3.33236
3.29705
3.29469
3.36324
3.58885
3.51251
3.49747
3.46846
3.42787
3.38004
3.33235
3.29704
3.29469
3.36324
3.58884
3.51251
3.49747
3.46847
3.42787
3.38004
3.33236
3.29705
3.29469
3.36324
3.58884
3.51252
3.49748
3.46848
3.42788
3.38005
3.33237
3.29706
3.2947
3.36325
3.58886
3.51254
3.4975
3.46849
3.4279
3.38007
3.33239
3.29708
3.29472
3.36328
3.58888
3.51256
3.49752
3.46852
3.42793
3.3801
3.33241
3.29711
3.29475
3.3633
3.58891
3.51259
3.49755
3.46855
3.42796
3.38013
3.33245
3.29714
3.29479
3.36334
3.58895
16.7131
14.3401
13.5016
13.9134
15.5341
18.4767
23.0046
29.5904
39.0824
53.1514
16.7131
14.34
13.5015
13.9133
15.534
18.4766
23.0045
29.5902
39.0822
53.1512
16.713
14.3399
13.5014
13.9132
15.5339
18.4765
23.0044
29.5901
39.082
53.151
16.713
14.3399
13.5014
13.9132
15.5338
18.4764
23.0043
29.59
39.0819
53.1509
16.7129
14.3398
13.5014
13.9131
15.5338
18.4764
23.0043
29.59
39.0819
53.1509
16.7129
14.3398
13.5014
13.9131
15.5338
18.4764
23.0043
29.59
39.0819
53.1508
16.713
14.3399
13.5014
13.9132
15.5338
18.4764
23.0043
29.59
39.0819
53.1509
16.713
14.3399
13.5014
13.9132
15.5339
18.4765
23.0043
29.5901
39.082
53.151
16.7131
14.34
13.5015
13.9133
15.5339
18.4765
23.0044
29.5902
39.0821
53.1511
16.7131
14.34
13.5015
13.9133
15.534
18.4766
23.0045
29.5903
39.0822
53.1512
14.9044
13.3875
12.8694
13.3749
14.9525
17.7205
21.8844
27.7516
35.7261
46.1669
14.9043
13.3874
12.8693
13.3748
14.9524
17.7204
21.8843
27.7515
35.7259
46.1667
14.9043
13.3873
12.8692
13.3748
14.9523
17.7203
21.8842
27.7514
35.7258
46.1665
14.9042
13.3873
12.8692
13.3747
14.9523
17.7202
21.8841
27.7513
35.7257
46.1664
14.9042
13.3873
12.8692
13.3747
14.9522
17.7202
21.884
27.7512
35.7257
46.1664
14.9042
13.3873
12.8692
13.3747
14.9522
17.7202
21.884
27.7512
35.7257
46.1664
14.9042
13.3873
12.8692
13.3747
14.9523
17.7202
21.8841
27.7513
35.7257
46.1664
14.9043
13.3873
12.8692
13.3747
14.9523
17.7202
21.8841
27.7513
35.7258
46.1665
14.9043
13.3874
12.8693
13.3748
14.9524
17.7203
21.8842
27.7514
35.7259
46.1666
14.9044
13.3875
12.8694
13.3749
14.9525
17.7204
21.8843
27.7515
35.726
46.1668
12.8565
12.0065
11.8205
12.423
13.9075
16.3812
19.978
24.8456
31.0847
38.5762
12.8564
12.0065
11.8204
12.4229
13.9074
16.3811
19.9779
24.8454
31.0845
38.576
12.8564
12.0064
11.8203
12.4228
13.9073
16.381
19.9778
24.8453
31.0844
38.5759
12.8563
12.0064
11.8203
12.4228
13.9073
16.381
19.9777
24.8452
31.0843
38.5758
12.8563
12.0063
11.8203
12.4227
13.9072
16.3809
19.9777
24.8452
31.0843
38.5758
12.8563
12.0063
11.8203
12.4227
13.9072
16.3809
19.9777
24.8452
31.0843
38.5758
12.8563
12.0064
11.8203
12.4228
13.9073
16.3809
19.9777
24.8452
31.0843
38.5758
12.8564
12.0064
11.8203
12.4228
13.9073
16.381
19.9778
24.8453
31.0844
38.5759
12.8564
12.0065
11.8204
12.4229
13.9074
16.3811
19.9779
24.8454
31.0845
38.576
12.8565
12.0065
11.8205
12.423
13.9075
16.3812
19.978
24.8455
31.0847
38.5762
10.9261
10.5109
10.5687
11.2251
12.5748
14.7015
17.6805
21.5595
26.3075
31.72
10.9261
10.5108
10.5686
11.225
12.5747
14.7014
17.6804
21.5594
26.3074
31.7198
10.926
10.5108
10.5686
11.225
12.5746
14.7013
17.6803
21.5593
26.3073
31.7197
10.926
10.5107
10.5685
11.2249
12.5746
14.7012
17.6802
21.5592
26.3072
31.7196
10.926
10.5107
10.5685
11.2249
12.5746
14.7012
17.6802
21.5592
26.3072
31.7195
10.926
10.5107
10.5685
11.2249
12.5746
14.7012
17.6802
21.5592
26.3072
31.7195
10.926
10.5107
10.5685
11.2249
12.5746
14.7012
17.6802
21.5592
26.3072
31.7196
10.926
10.5108
10.5686
11.225
12.5746
14.7013
17.6803
21.5592
26.3073
31.7197
10.9261
10.5108
10.5686
11.225
12.5747
14.7014
17.6803
21.5593
26.3074
31.7198
10.9262
10.5109
10.5687
11.2251
12.5748
14.7015
17.6805
21.5595
26.3075
31.72
9.20371
9.06325
9.27552
9.93966
11.1323
12.9115
15.313
18.3341
21.9047
25.8479
9.20365
9.06318
9.27545
9.93957
11.1322
12.9114
15.3129
18.334
21.9046
25.8477
9.2036
9.06313
9.27539
9.93951
11.1322
12.9114
15.3128
18.3339
21.9045
25.8476
9.20357
9.06309
9.27535
9.93947
11.1321
12.9113
15.3127
18.3339
21.9044
25.8475
9.20355
9.06308
9.27533
9.93945
11.1321
12.9113
15.3127
18.3338
21.9044
25.8475
9.20355
9.06308
9.27533
9.93945
11.1321
12.9113
15.3127
18.3338
21.9044
25.8475
9.20357
9.0631
9.27535
9.93947
11.1321
12.9113
15.3127
18.3339
21.9044
25.8475
9.20361
9.06314
9.27539
9.93951
11.1321
12.9114
15.3128
18.3339
21.9045
25.8476
9.20366
9.06319
9.27545
9.93958
11.1322
12.9114
15.3129
18.334
21.9046
25.8477
9.20373
9.06326
9.27553
9.93966
11.1323
12.9115
15.313
18.3341
21.9048
25.8479
7.71516
7.75139
8.0547
8.69603
9.73074
11.195
13.0998
15.4207
18.0843
20.9585
7.7151
7.75132
8.05463
8.69595
9.73065
11.1949
13.0997
15.4206
18.0842
20.9584
7.71505
7.75127
8.05458
8.69589
9.73059
11.1948
13.0996
15.4205
18.0841
20.9583
7.71503
7.75124
8.05454
8.69585
9.73055
11.1948
13.0996
15.4204
18.0841
20.9582
7.71501
7.75123
8.05453
8.69584
9.73053
11.1948
13.0995
15.4204
18.084
20.9582
7.71502
7.75123
8.05453
8.69584
9.73053
11.1948
13.0995
15.4204
18.084
20.9582
7.71503
7.75125
8.05455
8.69586
9.73055
11.1948
13.0996
15.4204
18.0841
20.9582
7.71507
7.75128
8.05458
8.6959
9.73059
11.1948
13.0996
15.4205
18.0841
20.9583
7.71512
7.75134
8.05464
8.69596
9.73066
11.1949
13.0997
15.4206
18.0842
20.9584
7.71518
7.75141
8.05471
8.69604
9.73075
11.195
13.0998
15.4207
18.0844
20.9586
6.4679
6.6269
6.98558
7.59262
8.486
9.68571
11.1874
12.9565
14.9245
16.9934
6.46785
6.62684
6.98552
7.59255
8.48592
9.68562
11.1873
12.9564
14.9243
16.9933
6.46781
6.6268
6.98547
7.5925
8.48586
9.68556
11.1873
12.9564
14.9243
16.9932
6.46778
6.62677
6.98544
7.59246
8.48582
9.68552
11.1872
12.9563
14.9242
16.9932
6.46777
6.62676
6.98542
7.59245
8.48581
9.6855
11.1872
12.9563
14.9242
16.9932
6.46777
6.62676
6.98542
7.59245
8.48581
9.6855
11.1872
12.9563
14.9242
16.9932
6.46779
6.62678
6.98544
7.59247
8.48583
9.68552
11.1872
12.9563
14.9242
16.9932
6.46782
6.62681
6.98548
7.59251
8.48587
9.68557
11.1873
12.9564
14.9243
16.9933
6.46787
6.62686
6.98553
7.59256
8.48593
9.68564
11.1874
12.9564
14.9244
16.9934
6.46793
6.62693
6.9856
7.59264
8.48601
9.68573
11.1875
12.9566
14.9245
16.9935
5.46347
5.72419
6.12481
6.70163
7.48253
8.47722
9.67099
11.0208
12.456
13.8916
5.46342
5.72413
6.12475
6.70156
7.48246
8.47714
9.6709
11.0207
12.4559
13.8915
5.46338
5.72409
6.12471
6.70152
7.48241
8.47708
9.67084
11.0206
12.4558
13.8914
5.46336
5.72407
6.12468
6.70148
7.48237
8.47704
9.6708
11.0206
12.4558
13.8914
5.46335
5.72405
6.12467
6.70147
7.48236
8.47703
9.67078
11.0206
12.4557
13.8913
5.46335
5.72406
6.12467
6.70147
7.48236
8.47703
9.67078
11.0206
12.4557
13.8913
5.46337
5.72407
6.12469
6.70149
7.48238
8.47705
9.67081
11.0206
12.4558
13.8914
5.4634
5.72411
6.12472
6.70153
7.48242
8.4771
9.67086
11.0206
12.4558
13.8914
5.46344
5.72415
6.12477
6.70158
7.48248
8.47716
9.67093
11.0207
12.4559
13.8915
5.46349
5.72421
6.12484
6.70165
7.48256
8.47725
9.67102
11.0208
12.456
13.8916
4.70666
5.07353
5.51591
6.07551
6.77997
7.63438
8.61627
9.67132
10.7111
11.6226
4.70661
5.07348
5.51586
6.07545
6.77991
7.6343
8.61619
9.67124
10.711
11.6225
4.70658
5.07345
5.51582
6.0754
6.77986
7.63425
8.61613
9.67117
10.7109
11.6224
4.70656
5.07342
5.51579
6.07537
6.77983
7.63422
8.6161
9.67114
10.7109
11.6224
4.70655
5.07341
5.51578
6.07536
6.77982
7.6342
8.61608
9.67112
10.7109
11.6223
4.70656
5.07342
5.51578
6.07537
6.77982
7.63421
8.61608
9.67112
10.7109
11.6223
4.70657
5.07343
5.5158
6.07538
6.77984
7.63423
8.61611
9.67115
10.7109
11.6224
4.7066
5.07346
5.51583
6.07542
6.77988
7.63427
8.61615
9.6712
10.711
11.6224
4.70664
5.07351
5.51588
6.07547
6.77994
7.63433
8.61622
9.67127
10.711
11.6225
4.70669
5.07356
5.51594
6.07554
6.78001
7.63441
8.61631
9.67137
10.7111
11.6226
4.23303
4.71603
5.19629
5.75156
6.41819
7.20101
8.07273
8.96737
9.76556
10.2584
4.23299
4.71599
5.19625
5.75151
6.41814
7.20096
8.07267
8.96731
9.76549
10.2584
4.23297
4.71596
5.19622
5.75147
6.41809
7.20091
8.07262
8.96726
9.76544
10.2583
4.23295
4.71594
5.19619
5.75144
6.41807
7.20088
8.07259
8.96722
9.7654
10.2583
4.23294
4.71593
5.19618
5.75143
6.41805
7.20087
8.07257
8.9672
9.76538
10.2582
4.23295
4.71594
5.19619
5.75144
6.41806
7.20087
8.07258
8.96721
9.76539
10.2583
4.23296
4.71595
5.1962
5.75146
6.41808
7.2009
8.0726
8.96724
9.76542
10.2583
4.23299
4.71598
5.19624
5.75149
6.41812
7.20094
8.07265
8.96729
9.76547
10.2583
4.23302
4.71602
5.19628
5.75154
6.41817
7.201
8.07271
8.96736
9.76554
10.2584
4.23307
4.71608
5.19634
5.7516
6.41824
7.20107
8.0728
8.96745
9.76564
10.2585
75.6091
85.8656
91.8336
95.7921
98.5729
100.562
101.973
102.939
103.542
103.832
75.6088
85.8653
91.8333
95.7918
98.5725
100.561
101.973
102.939
103.542
103.832
75.6086
85.8651
91.8331
95.7916
98.5723
100.561
101.973
102.939
103.542
103.832
75.6085
85.8649
91.8329
95.7915
98.5722
100.561
101.973
102.938
103.541
103.832
75.6084
85.8649
91.8329
95.7914
98.5721
100.561
101.973
102.938
103.541
103.831
75.6084
85.8649
91.8329
95.7914
98.5721
100.561
101.973
102.938
103.541
103.831
75.6085
85.8649
91.8329
95.7915
98.5722
100.561
101.973
102.938
103.542
103.832
75.6086
85.865
91.8331
95.7916
98.5723
100.561
101.973
102.939
103.542
103.832
75.6087
85.8652
91.8333
95.7918
98.5726
100.561
101.973
102.939
103.542
103.832
75.6089
85.8654
91.8335
95.7921
98.5728
100.562
101.973
102.939
103.542
103.832
58.5526
67.3541
73.3417
77.4944
80.4343
82.5317
84.0137
85.0235
85.6522
85.954
58.5523
67.3539
73.3414
77.4942
80.434
82.5314
84.0134
85.0232
85.652
85.9538
58.5522
67.3537
73.3412
77.494
80.4338
82.5312
84.0132
85.023
85.6518
85.9536
58.5521
67.3536
73.3411
77.4938
80.4337
82.5311
84.013
85.0229
85.6517
85.9535
58.552
67.3535
73.341
77.4938
80.4336
82.531
84.013
85.0229
85.6516
85.9534
58.552
67.3535
73.341
77.4938
80.4336
82.531
84.013
85.0229
85.6516
85.9535
58.5521
67.3536
73.3411
77.4938
80.4337
82.5311
84.0131
85.023
85.6517
85.9536
58.5522
67.3537
73.3412
77.494
80.4338
82.5313
84.0132
85.0231
85.6519
85.9537
58.5523
67.3538
73.3414
77.4942
80.434
82.5315
84.0135
85.0234
85.6521
85.954
58.5525
67.3541
73.3416
77.4944
80.4343
82.5318
84.0137
85.0237
85.6524
85.9543
46.584
53.2908
58.4218
62.2303
65.0268
67.0609
68.5129
69.5078
70.129
70.4276
46.5838
53.2906
58.4216
62.23
65.0265
67.0606
68.5126
69.5076
70.1288
70.4275
46.5837
53.2904
58.4214
62.2299
65.0263
67.0604
68.5124
69.5074
70.1286
70.4273
46.5836
53.2903
58.4213
62.2297
65.0262
67.0603
68.5123
69.5073
70.1285
70.4272
46.5835
53.2903
58.4212
62.2297
65.0262
67.0603
68.5123
69.5072
70.1285
70.4272
46.5835
53.2903
58.4212
62.2297
65.0262
67.0603
68.5123
69.5072
70.1285
70.4272
46.5836
53.2903
58.4213
62.2298
65.0263
67.0604
68.5124
69.5073
70.1286
70.4273
46.5837
53.2905
58.4214
62.2299
65.0264
67.0605
68.5125
69.5075
70.1288
70.4274
46.5838
53.2906
58.4216
62.2301
65.0266
67.0607
68.5127
69.5077
70.129
70.4277
46.584
53.2908
58.4218
62.2303
65.0269
67.061
68.513
69.508
70.1293
70.428
37.3011
42.3064
46.4276
49.665
52.1377
53.9841
55.3251
56.2541
56.8383
57.1201
37.3009
42.3062
46.4274
49.6648
52.1374
53.9839
55.3248
56.2539
56.838
57.1199
37.3007
42.3061
46.4273
49.6646
52.1373
53.9837
55.3247
56.2538
56.8379
57.1198
37.3006
42.306
46.4272
49.6645
52.1372
53.9836
55.3246
56.2537
56.8378
57.1197
37.3006
42.3059
46.4271
49.6645
52.1371
53.9836
55.3245
56.2536
56.8378
57.1196
37.3006
42.3059
46.4271
49.6645
52.1371
53.9836
55.3245
56.2536
56.8378
57.1197
37.3007
42.306
46.4272
49.6645
52.1372
53.9837
55.3246
56.2537
56.8379
57.1197
37.3007
42.3061
46.4273
49.6647
52.1373
53.9838
55.3248
56.2539
56.838
57.1199
37.3009
42.3062
46.4275
49.6648
52.1375
53.984
55.325
56.2541
56.8382
57.1201
37.3011
42.3064
46.4277
49.6651
52.1378
53.9843
55.3252
56.2543
56.8385
57.1204
29.8595
33.5759
36.7789
39.4049
41.4815
43.0738
44.2528
45.0809
45.6061
45.8609
29.8593
33.5757
36.7787
39.4047
41.4813
43.0736
44.2526
45.0807
45.606
45.8607
29.8592
33.5755
36.7786
39.4045
41.4812
43.0735
44.2525
45.0805
45.6058
45.8606
29.8591
33.5755
36.7785
39.4044
41.4811
43.0734
44.2524
45.0804
45.6057
45.8605
29.8591
33.5754
36.7784
39.4044
41.481
43.0733
44.2523
45.0804
45.6057
45.8605
29.8591
33.5754
36.7784
39.4044
41.481
43.0734
44.2524
45.0804
45.6057
45.8605
29.8592
33.5755
36.7785
39.4045
41.4811
43.0734
44.2524
45.0805
45.6058
45.8606
29.8592
33.5756
36.7786
39.4046
41.4812
43.0736
44.2526
45.0806
45.6059
45.8607
29.8594
33.5757
36.7787
39.4047
41.4814
43.0737
44.2527
45.0808
45.6061
45.8609
29.8595
33.5759
36.779
39.4049
41.4816
43.074
44.253
45.0811
45.6064
45.8612
23.8597
26.5944
29.0239
31.0818
32.7581
34.0756
35.0702
35.7789
36.2329
36.4544
23.8595
26.5943
29.0237
31.0816
32.7579
34.0755
35.0701
35.7787
36.2328
36.4542
23.8594
26.5942
29.0236
31.0815
32.7578
34.0753
35.0699
35.7786
36.2326
36.4541
23.8594
26.5941
29.0235
31.0814
32.7577
34.0752
35.0698
35.7785
36.2326
36.4541
23.8593
26.594
29.0235
31.0813
32.7577
34.0752
35.0698
35.7785
36.2326
36.454
23.8593
26.5941
29.0235
31.0814
32.7577
34.0752
35.0698
35.7785
36.2326
36.4541
23.8594
26.5941
29.0236
31.0814
32.7578
34.0753
35.0699
35.7786
36.2327
36.4542
23.8595
26.5942
29.0237
31.0815
32.7579
34.0754
35.07
35.7787
36.2328
36.4543
23.8596
26.5943
29.0238
31.0817
32.758
34.0756
35.0702
35.7789
36.233
36.4545
23.8597
26.5945
29.024
31.0819
32.7582
34.0758
35.0704
35.7791
36.2332
36.4547
19.0559
21.0224
22.8133
24.3743
25.6812
26.7328
27.5421
28.1272
28.506
28.6918
19.0558
21.0222
22.8131
24.3742
25.681
26.7327
27.5419
28.1271
28.5058
28.6917
19.0557
21.0221
22.813
24.3741
25.6809
26.7326
27.5418
28.127
28.5057
28.6916
19.0556
21.0221
22.8129
24.374
25.6809
26.7325
27.5418
28.1269
28.5056
28.6915
19.0556
21.0221
22.8129
24.374
25.6808
26.7325
27.5417
28.1269
28.5056
28.6915
19.0556
21.0221
22.8129
24.374
25.6809
26.7325
27.5418
28.1269
28.5056
28.6915
19.0556
21.0221
22.813
24.374
25.6809
26.7326
27.5418
28.127
28.5057
28.6916
19.0557
21.0222
22.8131
24.3741
25.681
26.7327
27.5419
28.1271
28.5058
28.6917
19.0558
21.0223
22.8132
24.3743
25.6811
26.7328
27.5421
28.1272
28.506
28.6919
19.056
21.0225
22.8133
24.3744
25.6813
26.733
27.5423
28.1274
28.5062
28.6921
15.2667
16.6037
17.8658
19.0055
19.989
20.8005
21.4376
21.9051
22.211
22.3621
15.2666
16.6036
17.8657
19.0053
19.9889
20.8004
21.4374
21.905
22.2109