/*--------------------------------*- C++ -*----------------------------------*\
  =========                 |
  \\      /  F ield         | OpenFOAM: The Open Source CFD Toolbox
   \\    /   O peration     | Website:  https://openfoam.org
    \\  /    A nd           | Version:  6
     \\/     M anipulation  |
\*---------------------------------------------------------------------------*/
FoamFile
{
    version     2.0;
    format      ascii;
    class       volScalarField;
    location    "0.72";
    object      T;
}
// * * * * * * * * * * * * * * * * * * * * * * * * * * * * * * * * * * * * * //

dimensions      [0 0 0 1 0 0 0];

internalField   nonuniform List<scalar> 
7000
(
106.24
106.238
106.234
106.229
106.222
106.215
106.208
106.202
106.197
106.194
106.24
106.238
106.234
106.229
106.222
106.215
106.208
106.202
106.197
106.194
106.24
106.238
106.234
106.229
106.222
106.215
106.208
106.202
106.197
106.194
106.24
106.238
106.234
106.229
106.222
106.215
106.208
106.202
106.197
106.194
106.24
106.238
106.234
106.229
106.222
106.215
106.208
106.202
106.197
106.194
106.24
106.238
106.234
106.229
106.222
106.215
106.208
106.202
106.197
106.194
106.24
106.238
106.234
106.229
106.222
106.215
106.208
106.202
106.197
106.194
106.24
106.238
106.234
106.229
106.222
106.215
106.208
106.202
106.197
106.194
106.24
106.238
106.234
106.229
106.222
106.215
106.208
106.202
106.197
106.194
106.24
106.238
106.234
106.229
106.222
106.215
106.208
106.202
106.197
106.194
98.7469
98.7408
98.7291
98.7125
98.6922
98.67
98.6479
98.6283
98.6136
98.6056
98.7469
98.7408
98.7291
98.7125
98.6922
98.67
98.6479
98.6283
98.6136
98.6056
98.7469
98.7408
98.729
98.7124
98.6922
98.67
98.6479
98.6283
98.6136
98.6056
98.7468
98.7408
98.729
98.7124
98.6922
98.67
98.6479
98.6283
98.6136
98.6056
98.7468
98.7408
98.729
98.7124
98.6922
98.67
98.6479
98.6283
98.6136
98.6056
98.7468
98.7408
98.729
98.7124
98.6922
98.67
98.6479
98.6283
98.6136
98.6056
98.7468
98.7408
98.729
98.7124
98.6922
98.67
98.6479
98.6283
98.6136
98.6056
98.7468
98.7408
98.729
98.7124
98.6922
98.67
98.6479
98.6283
98.6136
98.6056
98.7468
98.7408
98.729
98.7124
98.6922
98.67
98.6479
98.6283
98.6136
98.6056
98.7469
98.7408
98.7291
98.7124
98.6922
98.67
98.6479
98.6283
98.6136
98.6056
91.3317
91.3213
91.301
91.2723
91.2371
91.1982
91.1592
91.1243
91.0978
91.0835
91.3317
91.3213
91.301
91.2723
91.2371
91.1982
91.1592
91.1243
91.0978
91.0835
91.3317
91.3212
91.301
91.2723
91.2371
91.1982
91.1592
91.1243
91.0978
91.0835
91.3317
91.3212
91.301
91.2723
91.2371
91.1981
91.1592
91.1243
91.0978
91.0835
91.3317
91.3212
91.301
91.2723
91.237
91.1981
91.1592
91.1243
91.0978
91.0835
91.3316
91.3212
91.301
91.2723
91.237
91.1981
91.1591
91.1243
91.0978
91.0835
91.3317
91.3212
91.301
91.2723
91.237
91.1981
91.1592
91.1243
91.0978
91.0835
91.3317
91.3212
91.301
91.2723
91.2371
91.1982
91.1592
91.1243
91.0978
91.0835
91.3317
91.3212
91.301
91.2723
91.2371
91.1982
91.1592
91.1243
91.0978
91.0835
91.3317
91.3212
91.301
91.2723
91.2371
91.1982
91.1592
91.1243
91.0978
91.0835
84.0456
84.0304
84.0008
83.9584
83.906
83.8475
83.7882
83.7343
83.6929
83.6702
84.0456
84.0304
84.0008
83.9584
83.906
83.8475
83.7881
83.7343
83.6928
83.6702
84.0456
84.0304
84.0007
83.9584
83.906
83.8475
83.7881
83.7342
83.6928
83.6702
84.0456
84.0304
84.0007
83.9584
83.906
83.8475
83.7881
83.7342
83.6928
83.6702
84.0456
84.0303
84.0007
83.9583
83.906
83.8475
83.7881
83.7342
83.6928
83.6702
84.0456
84.0303
84.0007
83.9583
83.906
83.8475
83.7881
83.7342
83.6928
83.6702
84.0456
84.0303
84.0007
83.9583
83.906
83.8475
83.7881
83.7342
83.6928
83.6702
84.0456
84.0304
84.0007
83.9584
83.906
83.8475
83.7881
83.7342
83.6928
83.6702
84.0456
84.0304
84.0007
83.9584
83.906
83.8475
83.7881
83.7342
83.6928
83.6702
84.0456
84.0304
84.0007
83.9584
83.906
83.8475
83.7881
83.7343
83.6928
83.6702
76.9378
76.9173
76.8771
76.8192
76.7467
76.6646
76.5795
76.5007
76.4388
76.4044
76.9378
76.9173
76.8771
76.8192
76.7467
76.6645
76.5795
76.5007
76.4388
76.4044
76.9378
76.9172
76.8771
76.8191
76.7467
76.6645
76.5795
76.5007
76.4388
76.4044
76.9378
76.9172
76.877
76.8191
76.7467
76.6645
76.5795
76.5007
76.4388
76.4044
76.9378
76.9172
76.877
76.8191
76.7467
76.6645
76.5794
76.5006
76.4388
76.4044
76.9378
76.9172
76.877
76.8191
76.7466
76.6645
76.5794
76.5006
76.4388
76.4044
76.9378
76.9172
76.877
76.8191
76.7467
76.6645
76.5795
76.5006
76.4388
76.4044
76.9378
76.9172
76.877
76.8191
76.7467
76.6645
76.5795
76.5007
76.4388
76.4044
76.9378
76.9172
76.8771
76.8192
76.7467
76.6645
76.5795
76.5007
76.4388
76.4044
76.9378
76.9173
76.8771
76.8192
76.7467
76.6645
76.5795
76.5007
76.4388
76.4044
70.0549
70.0286
69.9768
69.9013
69.8054
69.6943
69.5763
69.4635
69.3719
69.3194
70.0549
70.0286
69.9767
69.9013
69.8053
69.6942
69.5762
69.4634
69.3718
69.3194
70.0549
70.0285
69.9767
69.9012
69.8053
69.6942
69.5762
69.4634
69.3718
69.3193
70.0549
70.0285
69.9767
69.9012
69.8053
69.6942
69.5762
69.4634
69.3718
69.3193
70.0548
70.0285
69.9767
69.9012
69.8053
69.6942
69.5762
69.4634
69.3718
69.3193
70.0548
70.0285
69.9767
69.9012
69.8053
69.6942
69.5762
69.4634
69.3718
69.3193
70.0548
70.0285
69.9767
69.9012
69.8053
69.6942
69.5762
69.4634
69.3718
69.3193
70.0549
70.0285
69.9767
69.9012
69.8053
69.6942
69.5762
69.4634
69.3718
69.3193
70.0549
70.0285
69.9767
69.9012
69.8053
69.6942
69.5762
69.4634
69.3718
69.3194
70.0549
70.0286
69.9767
69.9013
69.8053
69.6942
69.5763
69.4634
69.3719
69.3194
63.4403
63.408
63.3438
63.2491
63.1265
62.9807
62.8202
62.6598
62.5226
62.4398
63.4403
63.4079
63.3437
63.2491
63.1264
62.9806
62.8202
62.6597
62.5225
62.4398
63.4403
63.4079
63.3437
63.249
63.1264
62.9806
62.8201
62.6597
62.5225
62.4398
63.4402
63.4079
63.3437
63.249
63.1264
62.9806
62.8201
62.6597
62.5225
62.4397
63.4402
63.4078
63.3437
63.249
63.1264
62.9806
62.8201
62.6597
62.5225
62.4397
63.4402
63.4078
63.3437
63.249
63.1264
62.9806
62.8201
62.6597
62.5225
62.4397
63.4402
63.4078
63.3437
63.249
63.1264
62.9806
62.8201
62.6597
62.5225
62.4397
63.4402
63.4079
63.3437
63.249
63.1264
62.9806
62.8201
62.6597
62.5225
62.4398
63.4403
63.4079
63.3437
63.249
63.1264
62.9806
62.8202
62.6597
62.5225
62.4398
63.4403
63.4079
63.3438
63.2491
63.1265
62.9807
62.8202
62.6598
62.5226
62.4398
57.1334
57.0952
57.0188
56.9047
56.7535
56.5678
56.3539
56.1264
55.9156
55.7761
57.1333
57.0951
57.0188
56.9046
56.7534
56.5677
56.3539
56.1264
55.9156
55.7761
57.1333
57.0951
57.0188
56.9046
56.7534
56.5677
56.3539
56.1264
55.9156
55.776
57.1333
57.095
57.0187
56.9045
56.7534
56.5677
56.3538
56.1263
55.9155
55.776
57.1332
57.095
57.0187
56.9045
56.7533
56.5677
56.3538
56.1263
55.9155
55.776
57.1332
57.095
57.0187
56.9045
56.7533
56.5677
56.3538
56.1263
55.9155
55.776
57.1332
57.095
57.0187
56.9045
56.7534
56.5677
56.3538
56.1263
55.9155
55.776
57.1333
57.0951
57.0187
56.9046
56.7534
56.5677
56.3539
56.1263
55.9156
55.776
57.1333
57.0951
57.0188
56.9046
56.7534
56.5677
56.3539
56.1264
55.9156
55.7761
57.1333
57.0951
57.0188
56.9046
56.7534
56.5678
56.3539
56.1264
55.9156
55.7761
51.1684
51.1253
51.0385
50.9069
50.7285
50.5014
50.2251
49.9058
49.572
49.3106
51.1683
51.1252
51.0385
50.9068
50.7285
50.5014
50.225
49.9057
49.5719
49.3106
51.1683
51.1252
51.0384
50.9068
50.7284
50.5013
50.225
49.9057
49.5719
49.3105
51.1683
51.1252
51.0384
50.9068
50.7284
50.5013
50.225
49.9057
49.5719
49.3105
51.1683
51.1252
51.0384
50.9068
50.7284
50.5013
50.2249
49.9057
49.5718
49.3105
51.1683
51.1251
51.0384
50.9067
50.7284
50.5013
50.2249
49.9057
49.5718
49.3105
51.1683
51.1252
51.0384
50.9068
50.7284
50.5013
50.225
49.9057
49.5719
49.3105
51.1683
51.1252
51.0384
50.9068
50.7284
50.5013
50.225
49.9057
49.5719
49.3105
51.1683
51.1252
51.0385
50.9068
50.7284
50.5014
50.225
49.9057
49.5719
49.3106
51.1683
51.1252
51.0385
50.9069
50.7285
50.5014
50.2251
49.9058
49.572
49.3106
45.5737
45.5275
45.4341
45.2905
45.092
44.8304
44.4929
44.0619
43.5265
42.9607
45.5736
45.5275
45.434
45.2905
45.092
44.8304
44.4929
44.0619
43.5265
42.9606
45.5736
45.5274
45.434
45.2904
45.0919
44.8303
44.4928
44.0618
43.5264
42.9606
45.5736
45.5274
45.4339
45.2904
45.0919
44.8303
44.4928
44.0618
43.5264
42.9605
45.5736
45.5274
45.4339
45.2904
45.0919
44.8303
44.4928
44.0618
43.5264
42.9605
45.5735
45.5274
45.4339
45.2904
45.0919
44.8303
44.4928
44.0618
43.5264
42.9605
45.5736
45.5274
45.4339
45.2904
45.0919
44.8303
44.4928
44.0618
43.5264
42.9605
45.5736
45.5274
45.4339
45.2904
45.0919
44.8303
44.4928
44.0618
43.5264
42.9606
45.5736
45.5274
45.434
45.2904
45.092
44.8304
44.4928
44.0619
43.5265
42.9606
45.5736
45.5275
45.434
45.2905
45.092
44.8304
44.4929
44.0619
43.5265
42.9607
40.3704
40.3239
40.2294
40.0835
39.8795
39.6044
39.2336
38.7143
37.9174
36.4639
40.3703
40.3238
40.2294
40.0835
39.8794
39.6044
39.2336
38.7142
37.9173
36.4638
40.3703
40.3238
40.2293
40.0834
39.8794
39.6043
39.2335
38.7141
37.9173
36.4637
40.3702
40.3237
40.2293
40.0834
39.8793
39.6043
39.2335
38.7141
37.9172
36.4637
40.3702
40.3237
40.2293
40.0834
39.8793
39.6043
39.2335
38.7141
37.9172
36.4637
40.3702
40.3237
40.2293
40.0834
39.8793
39.6043
39.2335
38.7141
37.9172
36.4637
40.3702
40.3237
40.2293
40.0834
39.8793
39.6043
39.2335
38.7141
37.9172
36.4637
40.3703
40.3238
40.2293
40.0834
39.8793
39.6043
39.2335
38.7141
37.9173
36.4637
40.3703
40.3238
40.2293
40.0835
39.8794
39.6044
39.2335
38.7142
37.9173
36.4638
40.3703
40.3238
40.2294
40.0835
39.8794
39.6044
39.2336
38.7142
37.9174
36.4638
35.5714
35.5278
35.4394
35.3035
35.1142
34.8608
34.5226
34.0606
33.4038
32.4433
35.5713
35.5277
35.4394
35.3034
35.1142
34.8607
34.5225
34.0606
33.4037
32.4432
35.5713
35.5277
35.4393
35.3034
35.1141
34.8607
34.5225
34.0605
33.4037
32.4431
35.5713
35.5277
35.4393
35.3034
35.1141
34.8607
34.5224
34.0605
33.4036
32.4431
35.5712
35.5276
35.4393
35.3034
35.1141
34.8607
34.5224
34.0605
33.4036
32.4431
35.5712
35.5276
35.4393
35.3034
35.1141
34.8606
34.5224
34.0605
33.4036
32.4431
35.5713
35.5276
35.4393
35.3034
35.1141
34.8607
34.5224
34.0605
33.4036
32.4431
35.5713
35.5277
35.4393
35.3034
35.1141
34.8607
34.5225
34.0605
33.4037
32.4431
35.5713
35.5277
35.4394
35.3034
35.1142
34.8607
34.5225
34.0606
33.4037
32.4432
35.5713
35.5278
35.4394
35.3035
35.1142
34.8608
34.5226
34.0606
33.4038
32.4432
31.1811
31.1435
31.0682
30.9542
30.7995
30.6001
30.3487
30.0352
29.6529
29.2288
31.181
31.1435
31.0682
30.9542
30.7995
30.6
30.3486
30.0351
29.6529
29.2287
31.181
31.1434
31.0681
30.9541
30.7994
30.6
30.3485
30.0351
29.6528
29.2286
31.1809
31.1434
31.0681
30.9541
30.7994
30.5999
30.3485
30.035
29.6528
29.2286
31.1809
31.1434
31.0681
30.9541
30.7994
30.5999
30.3485
30.035
29.6527
29.2286
31.1809
31.1434
31.0681
30.9541
30.7994
30.5999
30.3485
30.035
29.6527
29.2286
31.1809
31.1434
31.0681
30.9541
30.7994
30.5999
30.3485
30.035
29.6528
29.2286
31.1809
31.1434
31.0681
30.9541
30.7994
30.5999
30.3485
30.0351
29.6528
29.2286
31.181
31.1435
31.0682
30.9542
30.7995
30.6
30.3486
30.0351
29.6528
29.2287
31.181
31.1435
31.0682
30.9542
30.7995
30.6
30.3486
30.0352
29.6529
29.2287
27.1953
27.1664
27.1095
27.0265
26.9201
26.7947
26.6571
26.5202
26.4127
26.3999
27.1953
27.1663
27.1094
27.0264
26.92
26.7946
26.657
26.5202
26.4126
26.3998
27.1952
27.1663
27.1094
27.0264
26.92
26.7946
26.657
26.5201
26.4126
26.3998
27.1952
27.1663
27.1094
27.0263
26.92
26.7946
26.6569
26.5201
26.4125
26.3997
27.1952
27.1663
27.1094
27.0263
26.92
26.7946
26.6569
26.5201
26.4125
26.3997
27.1952
27.1662
27.1094
27.0263
26.92
26.7946
26.6569
26.5201
26.4125
26.3997
27.1952
27.1663
27.1094
27.0263
26.92
26.7946
26.6569
26.5201
26.4125
26.3997
27.1952
27.1663
27.1094
27.0263
26.92
26.7946
26.657
26.5201
26.4125
26.3998
27.1952
27.1663
27.1094
27.0264
26.92
26.7946
26.657
26.5202
26.4126
26.3998
27.1953
27.1664
27.1095
27.0264
26.9201
26.7947
26.6571
26.5202
26.4127
26.3999
23.6027
23.5838
23.5483
23.5007
23.4489
23.4045
23.3855
23.419
23.548
23.84
23.6027
23.5838
23.5482
23.5007
23.4489
23.4045
23.3854
23.4189
23.5479
23.8399
23.6026
23.5837
23.5482
23.5006
23.4488
23.4044
23.3854
23.4189
23.5479
23.8399
23.6026
23.5837
23.5481
23.5006
23.4488
23.4044
23.3853
23.4188
23.5478
23.8399
23.6026
23.5837
23.5481
23.5006
23.4488
23.4044
23.3853
23.4188
23.5478
23.8398
23.6026
23.5837
23.5481
23.5006
23.4488
23.4044
23.3853
23.4188
23.5478
23.8398
23.6026
23.5837
23.5481
23.5006
23.4488
23.4044
23.3853
23.4188
23.5478
23.8398
23.6026
23.5837
23.5482
23.5006
23.4488
23.4044
23.3854
23.4189
23.5479
23.8399
23.6026
23.5837
23.5482
23.5007
23.4488
23.4045
23.3854
23.4189
23.5479
23.8399
23.6027
23.5838
23.5483
23.5007
23.4489
23.4045
23.3855
23.419
23.548
23.84
20.3859
20.3772
20.3633
20.3514
20.353
20.3862
20.4765
20.6603
20.9859
21.5141
20.3858
20.3772
20.3633
20.3513
20.353
20.3861
20.4765
20.6602
20.9858
21.514
20.3858
20.3771
20.3632
20.3513
20.3529
20.3861
20.4764
20.6602
20.9858
21.514
20.3858
20.3771
20.3632
20.3512
20.3529
20.386
20.4764
20.6601
20.9858
21.5139
20.3857
20.3771
20.3632
20.3512
20.3529
20.386
20.4764
20.6601
20.9857
21.5139
20.3857
20.3771
20.3632
20.3512
20.3529
20.386
20.4764
20.6601
20.9857
21.5139
20.3858
20.3771
20.3632
20.3512
20.3529
20.386
20.4764
20.6601
20.9858
21.5139
20.3858
20.3771
20.3632
20.3513
20.3529
20.3861
20.4764
20.6602
20.9858
21.514
20.3858
20.3772
20.3633
20.3513
20.353
20.3861
20.4765
20.6602
20.9858
21.514
20.3858
20.3772
20.3633
20.3513
20.353
20.3862
20.4765
20.6603
20.9859
21.5141
17.5233
17.524
17.5296
17.5492
17.5975
17.6968
17.879
18.1874
18.6769
19.4061
17.5232
17.5239
17.5296
17.5492
17.5975
17.6968
17.8789
18.1874
18.6769
19.406
17.5232
17.5239
17.5295
17.5491
17.5974
17.6967
17.8789
18.1873
18.6768
19.4059
17.5232
17.5239
17.5295
17.5491
17.5974
17.6967
17.8788
18.1873
18.6768
19.4059
17.5232
17.5238
17.5295
17.5491
17.5974
17.6967
17.8788
18.1873
18.6768
19.4059
17.5232
17.5238
17.5295
17.5491
17.5974
17.6967
17.8788
18.1873
18.6768
19.4059
17.5232
17.5239
17.5295
17.5491
17.5974
17.6967
17.8788
18.1873
18.6768
19.4059
17.5232
17.5239
17.5295
17.5491
17.5974
17.6967
17.8789
18.1873
18.6768
19.4059
17.5232
17.5239
17.5296
17.5492
17.5975
17.6968
17.8789
18.1874
18.6769
19.406
17.5233
17.524
17.5296
17.5492
17.5975
17.6968
17.879
18.1874
18.6769
19.4061
14.991
14.9992
15.0204
15.0645
15.1479
15.2958
15.5446
15.9461
16.5691
17.4905
14.9909
14.9992
15.0203
15.0644
15.1479
15.2957
15.5445
15.9461
16.5691
17.4904
14.9909
14.9991
15.0203
15.0644
15.1479
15.2957
15.5445
15.946
16.569
17.4903
14.9909
14.9991
15.0203
15.0644
15.1478
15.2957
15.5445
15.946
16.569
17.4903
14.9909
14.9991
15.0203
15.0644
15.1478
15.2957
15.5445
15.946
16.569
17.4903
14.9909
14.9991
15.0203
15.0644
15.1478
15.2957
15.5445
15.946
16.569
17.4903
14.9909
14.9991
15.0203
15.0644
15.1478
15.2957
15.5445
15.946
16.569
17.4903
14.9909
14.9991
15.0203
15.0644
15.1479
15.2957
15.5445
15.946
16.569
17.4904
14.9909
14.9992
15.0203
15.0644
15.1479
15.2957
15.5446
15.9461
16.5691
17.4904
14.991
14.9992
15.0204
15.0645
15.1479
15.2958
15.5446
15.9461
16.5692
17.4905
12.7641
12.7775
12.809
12.8685
12.9725
13.1461
13.4276
13.8761
14.5844
15.6952
12.7641
12.7775
12.809
12.8685
12.9724
13.146
13.4276
13.876
14.5843
15.6951
12.7641
12.7775
12.809
12.8685
12.9724
13.146
13.4275
13.876
14.5843
15.6951
12.764
12.7774
12.8089
12.8684
12.9724
13.146
13.4275
13.8759
14.5842
15.695
12.764
12.7774
12.8089
12.8684
12.9723
13.1459
13.4275
13.8759
14.5842
15.695
12.764
12.7774
12.8089
12.8684
12.9723
13.1459
13.4275
13.8759
14.5842
15.695
12.764
12.7774
12.8089
12.8684
12.9724
13.146
13.4275
13.8759
14.5843
15.695
12.7641
12.7775
12.809
12.8685
12.9724
13.146
13.4275
13.876
14.5843
15.6951
12.7641
12.7775
12.809
12.8685
12.9724
13.146
13.4276
13.876
14.5843
15.6951
12.7641
12.7775
12.809
12.8685
12.9725
13.1461
13.4276
13.8761
14.5844
15.6952
10.8183
10.8343
10.8706
10.936
11.0447
11.2185
11.4905
11.9143
12.5932
13.7869
10.8182
10.8343
10.8706
10.936
11.0447
11.2185
11.4904
11.9142
12.5932
13.7868
10.8182
10.8342
10.8706
10.9359
11.0446
11.2185
11.4904
11.9142
12.5931
13.7868
10.8182
10.8342
10.8705
10.9359
11.0446
11.2184
11.4904
11.9142
12.5931
13.7868
10.8182
10.8342
10.8705
10.9359
11.0446
11.2184
11.4904
11.9141
12.5931
13.7868
10.8182
10.8342
10.8705
10.9359
11.0446
11.2184
11.4904
11.9141
12.5931
13.7868
10.8182
10.8342
10.8705
10.9359
11.0446
11.2185
11.4904
11.9142
12.5931
13.7868
10.8182
10.8342
10.8706
10.9359
11.0447
11.2185
11.4904
11.9142
12.5931
13.7868
10.8182
10.8343
10.8706
10.936
11.0447
11.2185
11.4904
11.9142
12.5932
13.7868
10.8182
10.8343
10.8706
10.936
11.0447
11.2186
11.4905
11.9143
12.5932
13.7869
33.0057
31.9158
32.4778
34.4611
37.8505
42.7706
49.4873
58.4729
70.5816
87.5222
33.0056
31.9157
32.4777
34.461
37.8504
42.7705
49.4872
58.4727
70.5814
87.5221
33.0055
31.9157
32.4776
34.4609
37.8503
42.7704
49.4871
58.4726
70.5813
87.522
33.0055
31.9156
32.4776
34.4608
37.8503
42.7703
49.4871
58.4726
70.5812
87.5219
33.0055
31.9156
32.4775
34.4608
37.8502
42.7703
49.487
58.4725
70.5812
87.5218
33.0055
31.9156
32.4775
34.4608
37.8502
42.7703
49.487
58.4725
70.5812
87.5218
33.0055
31.9156
32.4775
34.4608
37.8502
42.7703
49.487
58.4725
70.5812
87.5219
33.0055
31.9156
32.4776
34.4609
37.8503
42.7703
49.4871
58.4726
70.5813
87.5219
33.0056
31.9157
32.4776
34.4609
37.8503
42.7704
49.4872
58.4727
70.5813
87.522
33.0056
31.9157
32.4777
34.461
37.8504
42.7705
49.4872
58.4727
70.5814
87.5221
31.1701
30.8497
31.6922
33.7399
37.0539
41.7567
48.0499
56.2283
66.6736
79.7
31.17
30.8496
31.6921
33.7398
37.0538
41.7566
48.0498
56.2281
66.6734
79.6999
31.17
30.8495
31.692
33.7397
37.0537
41.7565
48.0497
56.228
66.6733
79.6997
31.1699
30.8495
31.692
33.7397
37.0536
41.7565
48.0496
56.228
66.6732
79.6997
31.1699
30.8494
31.692
33.7396
37.0536
41.7564
48.0496
56.2279
66.6732
79.6996
31.1699
30.8494
31.692
33.7396
37.0536
41.7564
48.0495
56.2279
66.6732
79.6996
31.1699
30.8494
31.692
33.7396
37.0536
41.7564
48.0496
56.228
66.6732
79.6997
31.17
30.8495
31.692
33.7397
37.0536
41.7565
48.0496
56.228
66.6733
79.6997
31.17
30.8495
31.6921
33.7397
37.0537
41.7566
48.0497
56.2281
66.6734
79.6998
31.1701
30.8496
31.6922
33.7398
37.0538
41.7567
48.0498
56.2282
66.6735
79.6999
28.9213
29.2074
30.3363
32.4353
35.5995
39.9321
45.5544
52.5907
61.103
70.9061
28.9212
29.2073
30.3363
32.4352
35.5994
39.9319
45.5542
52.5906
61.1028
70.906
28.9211
29.2073
30.3362
32.4351
35.5993
39.9319
45.5541
52.5905
61.1027
70.9059
28.9211
29.2072
30.3361
32.4351
35.5993
39.9318
45.5541
52.5904
61.1026
70.9058
28.9211
29.2072
30.3361
32.435
35.5992
39.9318
45.554
52.5903
61.1026
70.9057
28.9211
29.2072
30.3361
32.435
35.5992
39.9318
45.554
52.5903
61.1026
70.9057
28.9211
29.2072
30.3361
32.435
35.5992
39.9318
45.5541
52.5904
61.1026
70.9058
28.9211
29.2073
30.3362
32.4351
35.5993
39.9318
45.5541
52.5904
61.1027
70.9058
28.9212
29.2073
30.3362
32.4352
35.5994
39.9319
45.5542
52.5905
61.1028
70.9059
28.9212
29.2074
30.3363
32.4352
35.5995
39.932
45.5543
52.5906
61.1029
70.9061
26.6213
27.3087
28.6422
30.7437
33.7022
37.5902
42.4639
48.3415
55.1492
62.6219
26.6212
27.3086
28.6421
30.7436
33.7021
37.5901
42.4638
48.3414
55.1491
62.6217
26.6211
27.3085
28.642
30.7436
33.702
37.59
42.4637
48.3413
55.149
62.6216
26.6211
27.3085
28.642
30.7435
33.7019
37.5899
42.4636
48.3413
55.1489
62.6216
26.6211
27.3084
28.642
30.7435
33.7019
37.5899
42.4636
48.3412
55.1489
62.6215
26.6211
27.3084
28.642
30.7435
33.7019
37.5899
42.4636
48.3412
55.1489
62.6215
26.6211
27.3085
28.642
30.7435
33.7019
37.5899
42.4636
48.3412
55.1489
62.6216
26.6211
27.3085
28.642
30.7435
33.702
37.59
42.4637
48.3413
55.149
62.6216
26.6212
27.3086
28.6421
30.7436
33.7021
37.59
42.4638
48.3414
55.1491
62.6217
26.6213
27.3086
28.6422
30.7437
33.7022
37.5901
42.4639
48.3415
55.1492
62.6219
24.3963
25.3462
26.8063
28.8666
31.5924
35.0252
39.1771
44.0135
49.4231
55.1805
24.3962
25.3462
26.8062
28.8665
31.5923
35.0251
39.177
44.0133
49.423
55.1803
24.3962
25.3461
26.8061
28.8665
31.5922
35.025
39.1769
44.0133
49.4229
55.1802
24.3961
25.346
26.8061
28.8664
31.5922
35.025
39.1769
44.0132
49.4228
55.1802
24.3961
25.346
26.8061
28.8664
31.5921
35.025
39.1768
44.0132
49.4228
55.1801
24.3961
25.346
26.8061
28.8664
31.5921
35.025
39.1768
44.0132
49.4228
55.1801
24.3961
25.346
26.8061
28.8664
31.5922
35.025
39.1769
44.0132
49.4228
55.1802
24.3961
25.3461
26.8061
28.8664
31.5922
35.025
39.1769
44.0132
49.4229
55.1802
24.3962
25.3461
26.8062
28.8665
31.5923
35.0251
39.177
44.0133
49.423
55.1803
24.3963
25.3462
26.8063
28.8666
31.5924
35.0252
39.1771
44.0135
49.4231
55.1805
22.3128
23.4493
24.9885
26.9864
29.4823
32.492
35.9996
39.947
44.2228
48.6577
22.3128
23.4492
24.9885
26.9863
29.4822
32.4919
35.9995
39.9469
44.2227
48.6575
22.3127
23.4492
24.9884
26.9862
29.4821
32.4918
35.9994
39.9468
44.2226
48.6574
22.3127
23.4491
24.9883
26.9862
29.4821
32.4918
35.9994
39.9467
44.2225
48.6574
22.3126
23.4491
24.9883
26.9862
29.482
32.4917
35.9993
39.9467
44.2225
48.6573
22.3126
23.4491
24.9883
26.9862
29.482
32.4917
35.9993
39.9467
44.2225
48.6573
22.3127
23.4491
24.9883
26.9862
29.4821
32.4918
35.9994
39.9467
44.2225
48.6574
22.3127
23.4492
24.9884
26.9862
29.4821
32.4918
35.9994
39.9468
44.2226
48.6574
22.3128
23.4492
24.9884
26.9863
29.4822
32.4919
35.9995
39.9469
44.2227
48.6575
22.3128
23.4493
24.9885
26.9864
29.4823
32.492
35.9996
39.947
44.2228
48.6577
20.4174
21.7159
23.3208
25.2602
27.5536
30.1986
33.1608
36.369
39.7159
43.0736
20.4173
21.7158
23.3207
25.2601
27.5535
30.1985
33.1607
36.3689
39.7157
43.0735
20.4173
21.7158
23.3206
25.26
27.5534
30.1984
33.1606
36.3688
39.7157
43.0734
20.4172
21.7157
23.3206
25.2599
27.5534
30.1983
33.1606
36.3687
39.7156
43.0734
20.4172
21.7157
23.3206
25.2599
27.5534
30.1983
33.1606
36.3687
39.7156
43.0733
20.4172
21.7157
23.3206
25.2599
27.5534
30.1983
33.1606
36.3687
39.7156
43.0733
20.4172
21.7157
23.3206
25.2599
27.5534
30.1984
33.1606
36.3687
39.7156
43.0734
20.4173
21.7158
23.3206
25.26
27.5534
30.1984
33.1606
36.3688
39.7157
43.0734
20.4173
21.7158
23.3207
25.2601
27.5535
30.1985
33.1607
36.3689
39.7158
43.0735
20.4174
21.7159
23.3208
25.2602
27.5536
30.1986
33.1608
36.369
39.7159
43.0737
18.7482
20.2311
21.9166
23.821
25.9571
28.3125
30.8393
33.4508
36.0284
38.4513
18.7481
20.231
21.9165
23.8209
25.9571
28.3124
30.8392
33.4507
36.0283
38.4511
18.748
20.231
21.9164
23.8209
25.957
28.3123
30.8391
33.4506
36.0282
38.4511
18.748
20.2309
21.9164
23.8208
25.9569
28.3123
30.8391
33.4506
36.0281
38.451
18.748
20.2309
21.9164
23.8208
25.9569
28.3123
30.8391
33.4506
36.0281
38.451
18.748
20.2309
21.9164
23.8208
25.9569
28.3123
30.8391
33.4506
36.0281
38.451
18.748
20.2309
21.9164
23.8208
25.9569
28.3123
30.8391
33.4506
36.0282
38.451
18.748
20.231
21.9165
23.8209
25.957
28.3124
30.8391
33.4507
36.0282
38.4511
18.7481
20.231
21.9165
23.821
25.9571
28.3124
30.8392
33.4507
36.0283
38.4512
18.7482
20.2311
21.9166
23.821
25.9572
28.3125
30.8393
33.4509
36.0284
38.4513
17.3523
19.0867
20.8811
22.7816
24.8148
26.9681
29.1826
31.3485
33.3048
34.8626
17.3522
19.0867
20.881
22.7815
24.8147
26.968
29.1825
31.3484
33.3047
34.8625
17.3522
19.0866
20.8809
22.7814
24.8146
26.9679
29.1824
31.3483
33.3046
34.8624
17.3522
19.0866
20.8809
22.7814
24.8146
26.9679
29.1824
31.3482
33.3045
34.8624
17.3521
19.0866
20.8809
22.7814
24.8145
26.9678
29.1823
31.3482
33.3045
34.8624
17.3521
19.0866
20.8809
22.7814
24.8146
26.9678
29.1823
31.3482
33.3045
34.8624
17.3522
19.0866
20.8809
22.7814
24.8146
26.9679
29.1824
31.3482
33.3046
34.8624
17.3522
19.0866
20.8809
22.7814
24.8146
26.9679
29.1824
31.3483
33.3046
34.8625
17.3523
19.0867
20.881
22.7815
24.8147
26.968
29.1825
31.3484
33.3047
34.8625
17.3523
19.0867
20.8811
22.7816
24.8148
26.9681
29.1826
31.3485
33.3048
34.8627
16.3618
18.4142
20.3182
22.2328
24.2177
26.2666
28.3134
30.224
31.7709
32.5639
16.3617
18.4142
20.3181
22.2328
24.2177
26.2665
28.3133
30.224
31.7708
32.5638
16.3617
18.4141
20.3181
22.2327
24.2176
26.2665
28.3133
30.2239
31.7708
32.5638
16.3616
18.4141
20.3181
22.2327
24.2176
26.2664
28.3132
30.2239
31.7707
32.5637
16.3616
18.4141
20.318
22.2327
24.2175
26.2664
28.3132
30.2238
31.7707
32.5637
16.3616
18.4141
20.318
22.2327
24.2175
26.2664
28.3132
30.2238
31.7707
32.5637
16.3616
18.4141
20.3181
22.2327
24.2176
26.2665
28.3132
30.2239
31.7707
32.5637
16.3617
18.4142
20.3181
22.2327
24.2176
26.2665
28.3133
30.2239
31.7708
32.5638
16.3617
18.4142
20.3182
22.2328
24.2177
26.2666
28.3134
30.224
31.7709
32.5639
16.3618
18.4143
20.3183
22.2329
24.2178
26.2667
28.3135
30.2241
31.771
32.564
113.251
125.461
132.926
138.138
141.985
144.868
147
148.51
149.479
149.952
113.251
125.461
132.926
138.138
141.985
144.867
146.999
148.51
149.479
149.952
113.251
125.461
132.925
138.138
141.985
144.867
146.999
148.51
149.479
149.952
113.251
125.461
132.925
138.138
141.985
144.867
146.999
148.51
149.479
149.952
113.251
125.461
132.925
138.137
141.985
144.867
146.999
148.51
149.478
149.952
113.251
125.461
132.925
138.137
141.985
144.867
146.999
148.51
149.478
149.952
113.251
125.461
132.925
138.138
141.985
144.867
146.999
148.51
149.479
149.952
113.251
125.461
132.925
138.138
141.985
144.867
146.999
148.51
149.479
149.952
113.251
125.461
132.926
138.138
141.985
144.867
146.999
148.51
149.479
149.952
113.251
125.461
132.926
138.138
141.985
144.867
147
148.51
149.479
149.952
94.6583
105.531
113.205
118.763
122.879
125.948
128.206
129.799
130.817
131.314
94.6581
105.531
113.205
118.762
122.879
125.948
128.206
129.799
130.817
131.313
94.658
105.531
113.205
118.762
122.879
125.948
128.206
129.799
130.817
131.313
94.6579
105.531
113.205
118.762
122.879
125.948
128.206
129.799
130.817
131.313
94.6579
105.531
113.205
118.762
122.879
125.948
128.206
129.799
130.817
131.313
94.6579
105.531
113.205
118.762
122.879
125.948
128.206
129.799
130.817
131.313
94.6579
105.531
113.205
118.762
122.879
125.948
128.206
129.799
130.817
131.313
94.658
105.531
113.205
118.762
122.879
125.948
128.206
129.799
130.817
131.313
94.6581
105.531
113.205
118.762
122.879
125.948
128.206
129.799
130.817
131.313
94.6582
105.531
113.205
118.763
122.879
125.948
128.206
129.799
130.817
131.314
81.1478
89.8289
96.6548
101.905
105.916
108.953
111.205
112.799
113.82
114.318
81.1477
89.8288
96.6546
101.905
105.916
108.953
111.205
112.799
113.82
114.318
81.1475
89.8287
96.6545
101.905
105.916
108.953
111.205
112.799
113.82
114.318
81.1475
89.8286
96.6544
101.905
105.916
108.953
111.205
112.799
113.82
114.318
81.1474
89.8285
96.6544
101.905
105.916
108.953
111.205
112.799
113.82
114.318
81.1474
89.8285
96.6544
101.905
105.916
108.953
111.205
112.799
113.82
114.318
81.1475
89.8286
96.6544
101.905
105.916
108.953
111.205
112.799
113.82
114.318
81.1475
89.8286
96.6545
101.905
105.916
108.953
111.205
112.799
113.82
114.318
81.1476
89.8287
96.6546
101.905
105.916
108.953
111.205
112.799
113.82
114.318
81.1478
89.8289
96.6548
101.905
105.916
108.953
111.205
112.799
113.82
114.319
70.1827
76.9986
82.7246
87.356
91.017
93.8511
95.9819
97.504
98.484
98.9639
70.1826
76.9985
82.7245
87.3559
91.0168
93.8509
95.9818
97.5039
98.4839
98.9638
70.1825
76.9984
82.7243
87.3558
91.0167
93.8508
95.9816
97.5038
98.4838
98.9637
70.1824
76.9983
82.7243
87.3557
91.0166
93.8507
95.9816
97.5037
98.4837
98.9637
70.1824
76.9982
82.7242
87.3557
91.0166
93.8507
95.9815
97.5037
98.4837
98.9636
70.1824
76.9982
82.7242
87.3557
91.0166
93.8507
95.9815
97.5037
98.4837
98.9637
70.1824
76.9983
82.7243
87.3557
91.0166
93.8507
95.9816
97.5037
98.4837
98.9637
70.1825
76.9984
82.7244
87.3558
91.0167
93.8508
95.9817
97.5038
98.4838
98.9638
70.1826
76.9985
82.7245
87.3559
91.0168
93.8509
95.9818
97.5039
98.484
98.9639
70.1827
76.9986
82.7246
87.356
91.017
93.8511
95.982
97.5041
98.4841
98.9641
60.9288
66.2558
70.9143
74.8268
78.0148
80.5397
82.4695
83.8637
84.768
85.2127
60.9287
66.2556
70.9141
74.8266
78.0146
80.5395
82.4693
83.8635
84.7678
85.2125
60.9286
66.2555
70.914
74.8265
78.0145
80.5394
82.4692
83.8634
84.7677
85.2125
60.9285
66.2555
70.914
74.8264
78.0144
80.5394
82.4691
83.8634
84.7677
85.2124
60.9285
66.2554
70.9139
74.8264
78.0144
80.5393
82.4691
83.8633
84.7677
85.2124
60.9285
66.2554
70.9139
74.8264
78.0144
80.5393
82.4691
83.8634
84.7677
85.2124
60.9285
66.2555
70.914
74.8264
78.0145
80.5394
82.4692
83.8634
84.7677
85.2124
60.9286
66.2555
70.914
74.8265
78.0145
80.5395
82.4693
83.8635
84.7678
85.2125
60.9287
66.2557
70.9141
74.8266
78.0147
80.5396
82.4694
83.8636
84.7679
85.2127
60.9288
66.2558
70.9143
74.8268
78.0148
80.5397
82.4695
83.8638
84.7681
85.2128
53.0384
57.1529
60.8476
64.0426
66.7163
68.8809
70.5638
71.7948
72.6001
72.998
53.0382
57.1528
60.8474
64.0425
66.7161
68.8808
70.5636
71.7947
72.5999
72.9979
53.0381
57.1527
60.8473
64.0424
66.716
68.8807
70.5635
71.7946
72.5998
72.9978
53.0381
57.1526
60.8473
64.0423
66.716
68.8806
70.5635
71.7945
72.5998
72.9977
53.038
57.1526
60.8472
64.0423
66.7159
68.8806
70.5634
71.7945
72.5998
72.9977
53.038
57.1526
60.8472
64.0423
66.7159
68.8806
70.5634
71.7945
72.5998
72.9977
53.0381
57.1526
60.8473
64.0423
66.716
68.8806
70.5635
71.7946
72.5998
72.9978
53.0381
57.1527
60.8474
64.0424
66.7161
68.8807
70.5636
71.7947
72.5999
72.9979
53.0383
57.1528
60.8475
64.0425
66.7162
68.8808
70.5637
71.7948
72.6
72.998
53.0384
57.153
60.8476
64.0426
66.7163
68.881
70.5638
71.7949
72.6002
72.9981
46.3278
49.4099
52.2438
54.764
56.9293
58.722
60.1407
61.1924
61.8866
62.2315
46.3277
49.4097
52.2436
54.7638
56.9291
58.7218
60.1405
61.1923
61.8865
62.2314
46.3276
49.4096
52.2435
54.7637
56.929
58.7217
60.1404
61.1922
61.8864
62.2313
46.3275
49.4096
52.2435
54.7637
56.929
58.7217
60.1404
61.1921
61.8863
62.2313
46.3275
49.4095
52.2434
54.7636
56.9289
58.7216
60.1404
61.1921
61.8863
62.2313
46.3275
49.4095
52.2434
54.7636
56.9289
58.7216
60.1404
61.1921
61.8863
62.2313
46.3275
49.4096
52.2435
54.7637
56.929
58.7217
60.1404
61.1921
61.8864
62.2313
46.3276
49.4096
52.2435
54.7638
56.929
58.7218
60.1405
61.1922
61.8865
62.2314
46.3277
49.4097
52.2436
54.7639
56.9292
58.7219
60.1406
61.1923
61.8866
62.2315
46.3278
49.4099
52.2438
54.764
56.9293
58.722
60.1408
61.1925
61.8867
62.2317
40.6715
42.8186
44.8771
46.7816
48.4722
49.9084
51.0674
51.9391
52.5201
52.8105
40.6714