/*--------------------------------*- C++ -*----------------------------------*\
  =========                 |
  \\      /  F ield         | OpenFOAM: The Open Source CFD Toolbox
   \\    /   O peration     | Website:  https://openfoam.org
    \\  /    A nd           | Version:  6
     \\/     M anipulation  |
\*---------------------------------------------------------------------------*/
FoamFile
{
    version     2.0;
    format      ascii;
    class       volScalarField;
    location    "0.555";
    object      T;
}
// * * * * * * * * * * * * * * * * * * * * * * * * * * * * * * * * * * * * * //

dimensions      [0 0 0 1 0 0 0];

internalField   nonuniform List<scalar> 
7000
(
105.763
105.761
105.757
105.751
105.743
105.735
105.727
105.72
105.715
105.712
105.763
105.761
105.757
105.751
105.743
105.735
105.727
105.72
105.715
105.712
105.763
105.761
105.757
105.751
105.743
105.735
105.727
105.72
105.715
105.712
105.763
105.761
105.757
105.751
105.743
105.735
105.727
105.72
105.715
105.712
105.763
105.761
105.757
105.751
105.743
105.735
105.727
105.72
105.715
105.712
105.763
105.761
105.757
105.751
105.743
105.735
105.727
105.72
105.715
105.712
105.763
105.761
105.757
105.751
105.743
105.735
105.727
105.72
105.715
105.712
105.763
105.761
105.757
105.751
105.743
105.735
105.727
105.72
105.715
105.712
105.763
105.761
105.757
105.751
105.743
105.735
105.727
105.72
105.715
105.712
105.763
105.761
105.757
105.751
105.743
105.735
105.727
105.72
105.715
105.712
97.3275
97.3207
97.3075
97.2889
97.266
97.2408
97.2156
97.1932
97.1762
97.167
97.3275
97.3207
97.3075
97.2889
97.266
97.2408
97.2156
97.1931
97.1762
97.167
97.3274
97.3207
97.3075
97.2888
97.266
97.2408
97.2156
97.1931
97.1762
97.167
97.3274
97.3206
97.3075
97.2888
97.266
97.2408
97.2156
97.1931
97.1761
97.167
97.3274
97.3206
97.3075
97.2888
97.266
97.2408
97.2156
97.1931
97.1761
97.167
97.3274
97.3206
97.3075
97.2888
97.266
97.2408
97.2156
97.1931
97.1761
97.167
97.3274
97.3206
97.3075
97.2888
97.266
97.2408
97.2156
97.1931
97.1761
97.167
97.3274
97.3206
97.3075
97.2888
97.266
97.2408
97.2156
97.1931
97.1762
97.167
97.3274
97.3207
97.3075
97.2888
97.266
97.2408
97.2156
97.1931
97.1762
97.167
97.3274
97.3207
97.3075
97.2889
97.266
97.2408
97.2156
97.1931
97.1762
97.167
89.0027
88.9909
88.968
88.9353
88.8951
88.8504
88.8053
88.7647
88.7339
88.7171
89.0026
88.9909
88.968
88.9353
88.895
88.8503
88.8053
88.7647
88.7338
88.7171
89.0026
88.9908
88.9679
88.9353
88.895
88.8503
88.8052
88.7647
88.7338
88.7171
89.0026
88.9908
88.9679
88.9352
88.895
88.8503
88.8052
88.7647
88.7338
88.717
89.0026
88.9908
88.9679
88.9352
88.895
88.8503
88.8052
88.7647
88.7338
88.717
89.0026
88.9908
88.9679
88.9352
88.895
88.8503
88.8052
88.7647
88.7338
88.717
89.0026
88.9908
88.9679
88.9352
88.895
88.8503
88.8052
88.7647
88.7338
88.717
89.0026
88.9908
88.9679
88.9353
88.895
88.8503
88.8052
88.7647
88.7338
88.7171
89.0026
88.9908
88.9679
88.9353
88.895
88.8503
88.8052
88.7647
88.7338
88.7171
89.0026
88.9908
88.9679
88.9353
88.895
88.8503
88.8053
88.7647
88.7338
88.7171
80.8604
80.8429
80.8088
80.7598
80.699
80.6306
80.5607
80.4969
80.4476
80.4206
80.8603
80.8428
80.8087
80.7598
80.6989
80.6305
80.5606
80.4968
80.4476
80.4205
80.8603
80.8428
80.8087
80.7598
80.6989
80.6305
80.5606
80.4968
80.4475
80.4205
80.8603
80.8428
80.8087
80.7597
80.6989
80.6305
80.5606
80.4968
80.4475
80.4205
80.8603
80.8428
80.8087
80.7597
80.6989
80.6305
80.5606
80.4968
80.4475
80.4205
80.8602
80.8428
80.8087
80.7597
80.6989
80.6305
80.5606
80.4968
80.4475
80.4205
80.8603
80.8428
80.8087
80.7597
80.6989
80.6305
80.5606
80.4968
80.4475
80.4205
80.8603
80.8428
80.8087
80.7597
80.6989
80.6305
80.5606
80.4968
80.4475
80.4205
80.8603
80.8428
80.8087
80.7598
80.6989
80.6305
80.5606
80.4968
80.4475
80.4205
80.8603
80.8428
80.8087
80.7598
80.6989
80.6305
80.5606
80.4968
80.4476
80.4206
72.968
72.9439
72.8968
72.8285
72.7425
72.6444
72.542
72.4466
72.3712
72.3292
72.9679
72.9439
72.8967
72.8285
72.7425
72.6443
72.542
72.4465
72.3712
72.3291
72.9679
72.9438
72.8967
72.8284
72.7425
72.6443
72.542
72.4465
72.3712
72.3291
72.9678
72.9438
72.8967
72.8284
72.7424
72.6442
72.5419
72.4465
72.3711
72.3291
72.9678
72.9438
72.8967
72.8284
72.7424
72.6442
72.5419
72.4465
72.3711
72.3291
72.9678
72.9438
72.8967
72.8284
72.7424
72.6442
72.5419
72.4465
72.3711
72.3291
72.9678
72.9438
72.8967
72.8284
72.7424
72.6442
72.5419
72.4465
72.3711
72.3291
72.9678
72.9438
72.8967
72.8284
72.7425
72.6443
72.5419
72.4465
72.3712
72.3291
72.9679
72.9438
72.8967
72.8285
72.7425
72.6443
72.542
72.4465
72.3712
72.3291
72.9679
72.9439
72.8968
72.8285
72.7425
72.6443
72.542
72.4466
72.3712
72.3292
65.3876
65.3561
65.2939
65.2029
65.0863
64.9503
64.8047
64.6645
64.5502
64.4844
65.3876
65.3561
65.2939
65.2028
65.0862
64.9502
64.8046
64.6645
64.5501
64.4844
65.3875
65.356
65.2939
65.2028
65.0862
64.9502
64.8046
64.6645
64.5501
64.4843
65.3875
65.356
65.2938
65.2027
65.0862
64.9502
64.8046
64.6644
64.5501
64.4843
65.3875
65.356
65.2938
65.2027
65.0862
64.9501
64.8046
64.6644
64.55
64.4843
65.3875
65.356
65.2938
65.2027
65.0862
64.9501
64.8046
64.6644
64.55
64.4843
65.3875
65.356
65.2938
65.2027
65.0862
64.9501
64.8046
64.6644
64.5501
64.4843
65.3875
65.356
65.2938
65.2027
65.0862
64.9502
64.8046
64.6644
64.5501
64.4843
65.3875
65.356
65.2939
65.2028
65.0862
64.9502
64.8046
64.6645
64.5501
64.4844
65.3876
65.3561
65.2939
65.2028
65.0863
64.9502
64.8047
64.6645
64.5502
64.4844
58.175
58.1353
58.0563
57.939
57.786
57.6026
57.3992
57.1946
57.0189
56.9126
58.175
58.1352
58.0562
57.939
57.7859
57.6025
57.3991
57.1945
57.0188
56.9125
58.1749
58.1352
58.0562
57.9389
57.7859
57.6025
57.3991
57.1945
57.0188
56.9125
58.1749
58.1352
58.0562
57.9389
57.7859
57.6024
57.3991
57.1945
57.0187
56.9125
58.1749
58.1352
58.0561
57.9389
57.7859
57.6024
57.3991
57.1945
57.0187
56.9125
58.1749
58.1351
58.0561
57.9389
57.7859
57.6024
57.3991
57.1945
57.0187
56.9125
58.1749
58.1352
58.0561
57.9389
57.7859
57.6024
57.3991
57.1945
57.0187
56.9125
58.1749
58.1352
58.0562
57.9389
57.7859
57.6025
57.3991
57.1945
57.0188
56.9125
58.1749
58.1352
58.0562
57.9389
57.7859
57.6025
57.3991
57.1945
57.0188
56.9125
58.175
58.1353
58.0563
57.939
57.786
57.6026
57.3992
57.1946
57.0189
56.9126
51.3782
51.3299
51.2332
51.0875
50.8931
50.6526
50.3737
50.0758
49.7993
49.6164
51.3781
51.3299
51.2331
51.0874
50.8931
50.6525
50.3737
50.0757
49.7992
49.6163
51.3781
51.3298
51.2331
51.0874
50.893
50.6525
50.3736
50.0757
49.7992
49.6163
51.378
51.3298
51.2331
51.0874
50.893
50.6525
50.3736
50.0756
49.7991
49.6163
51.378
51.3298
51.233
51.0873
50.893
50.6525
50.3736
50.0756
49.7991
49.6163
51.378
51.3298
51.233
51.0873
50.893
50.6525
50.3736
50.0756
49.7991
49.6163
51.378
51.3298
51.233
51.0874
50.893
50.6525
50.3736
50.0756
49.7991
49.6163
51.3781
51.3298
51.2331
51.0874
50.893
50.6525
50.3736
50.0757
49.7992
49.6163
51.3781
51.3299
51.2331
51.0874
50.8931
50.6525
50.3737
50.0757
49.7992
49.6163
51.3781
51.3299
51.2332
51.0875
50.8931
50.6526
50.3737
50.0758
49.7993
49.6164
45.0366
44.9803
44.8665
44.6927
44.4554
44.1513
43.7797
43.3501
42.903
42.5559
45.0365
44.9802
44.8664
44.6926
44.4554
44.1513
43.7796
43.35
42.9029
42.5558
45.0365
44.9802
44.8664
44.6926
44.4553
44.1512
43.7795
43.35
42.9029
42.5558
45.0364
44.9801
44.8664
44.6926
44.4553
44.1512
43.7795
43.35
42.9028
42.5557
45.0364
44.9801
44.8663
44.6925
44.4553
44.1512
43.7795
43.3499
42.9028
42.5557
45.0364
44.9801
44.8663
44.6925
44.4553
44.1512
43.7795
43.3499
42.9028
42.5557
45.0364
44.9801
44.8663
44.6925
44.4553
44.1512
43.7795
43.35
42.9028
42.5557
45.0364
44.9802
44.8664
44.6926
44.4553
44.1512
43.7795
43.35
42.9029
42.5558
45.0365
44.9802
44.8664
44.6926
44.4554
44.1512
43.7796
43.35
42.9029
42.5558
45.0365
44.9803
44.8665
44.6927
44.4554
44.1513
43.7797
43.3501
42.903
42.5559
39.18
39.1172
38.9894
38.7919
38.5167
38.152
37.681
37.0837
36.353
35.5981
39.1799
39.1171
38.9894
38.7918
38.5166
38.1519
37.681
37.0836
36.3529
35.5981
39.1799
39.1171
38.9893
38.7918
38.5165
38.1518
37.6809
37.0836
36.3529
35.598
39.1798
39.117
38.9893
38.7917
38.5165
38.1518
37.6809
37.0835
36.3528
35.598
39.1798
39.117
38.9893
38.7917
38.5165
38.1518
37.6809
37.0835
36.3528
35.598
39.1798
39.117
38.9893
38.7917
38.5165
38.1518
37.6809
37.0835
36.3528
35.598
39.1798
39.117
38.9893
38.7917
38.5165
38.1518
37.6809
37.0835
36.3528
35.598
39.1798
39.1171
38.9893
38.7918
38.5165
38.1518
37.6809
37.0836
36.3529
35.598
39.1799
39.1171
38.9893
38.7918
38.5166
38.1519
37.681
37.0836
36.3529
35.5981
39.1799
39.1172
38.9894
38.7919
38.5167
38.1519
37.681
37.0837
36.353
35.5981
33.8276
33.761
33.6249
33.4129
33.1138
32.7087
32.1637
31.4122
30.2972
28.3642
33.8276
33.7609
33.6248
33.4128
33.1137
32.7086
32.1636
31.4121
30.2972
28.3642
33.8275
33.7609
33.6248
33.4128
33.1137
32.7085
32.1636
31.4121
30.2971
28.3641
33.8275
33.7608
33.6247
33.4127
33.1137
32.7085
32.1636
31.412
30.2971
28.3641
33.8274
33.7608
33.6247
33.4127
33.1136
32.7085
32.1635
31.412
30.297
28.3641
33.8274
33.7608
33.6247
33.4127
33.1136
32.7085
32.1635
31.412
30.297
28.3641
33.8275
33.7608
33.6247
33.4127
33.1137
32.7085
32.1636
31.412
30.2971
28.3641
33.8275
33.7609
33.6248
33.4128
33.1137
32.7085
32.1636
31.4121
30.2971
28.3641
33.8275
33.7609
33.6248
33.4128
33.1137
32.7086
32.1636
31.4121
30.2972
28.3642
33.8276
33.761
33.6249
33.4129
33.1138
32.7087
32.1637
31.4122
30.2972
28.3642
28.9875
28.9204
28.7835
28.5702
28.2694
27.8622
27.3168
26.5779
25.548
24.076
28.9874
28.9204
28.7834
28.5701
28.2693
27.8621
27.3168
26.5778
25.5479
24.076
28.9874
28.9203
28.7834
28.5701
28.2692
27.862
27.3167
26.5778
25.5478
24.0759
28.9873
28.9203
28.7833
28.5701
28.2692
27.862
27.3167
26.5778
25.5478
24.0759
28.9873
28.9203
28.7833
28.57
28.2692
27.862
27.3167
26.5777
25.5478
24.0758
28.9873
28.9203
28.7833
28.57
28.2692
27.862
27.3167
26.5777
25.5478
24.0758
28.9873
28.9203
28.7833
28.5701
28.2692
27.862
27.3167
26.5778
25.5478
24.0759
28.9873
28.9203
28.7834
28.5701
28.2692
27.862
27.3167
26.5778
25.5478
24.0759
28.9874
28.9203
28.7834
28.5701
28.2693
27.8621
27.3168
26.5778
25.5479
24.0759
28.9874
28.9204
28.7835
28.5702
28.2694
27.8622
27.3168
26.5779
25.548
24.076
24.6561
24.5922
24.4623
24.2615
23.9815
23.6099
23.1282
22.5116
21.7351
20.8061
24.656
24.5922
24.4623
24.2614
23.9814
23.6098
23.1281
22.5115
21.735
20.8061
24.656
24.5921
24.4622
24.2614
23.9814
23.6098
23.128
22.5115
21.735
20.806
24.6559
24.5921
24.4622
24.2613
23.9814
23.6097
23.128
22.5114
21.735
20.806
24.6559
24.5921
24.4622
24.2613
23.9813
23.6097
23.128
22.5114
21.7349
20.806
24.6559
24.5921
24.4622
24.2613
23.9813
23.6097
23.128
22.5114
21.7349
20.806
24.6559
24.5921
24.4622
24.2613
23.9814
23.6097
23.128
22.5114
21.735
20.806
24.656
24.5921
24.4622
24.2614
23.9814
23.6098
23.128
22.5115
21.735
20.806
24.656
24.5922
24.4623
24.2614
23.9814
23.6098
23.1281
22.5115
21.735
20.8061
24.656
24.5922
24.4623
24.2615
23.9815
23.6099
23.1282
22.5116
21.7351
20.8061
20.8193
20.7618
20.6455
20.4682
20.2262
19.9154
19.5319
19.0765
18.5651
18.0536
20.8193
20.7617
20.6455
20.4681
20.2262
19.9153
19.5318
19.0764
18.565
18.0536
20.8192
20.7616
20.6454
20.4681
20.2261
19.9153
19.5318
19.0763
18.5649
18.0535
20.8192
20.7616
20.6454
20.468
20.2261
19.9152
19.5317
19.0763
18.5649
18.0535
20.8192
20.7616
20.6454
20.468
20.2261
19.9152
19.5317
19.0763
18.5649
18.0534
20.8192
20.7616
20.6454
20.468
20.2261
19.9152
19.5317
19.0763
18.5649
18.0534
20.8192
20.7616
20.6454
20.468
20.2261
19.9152
19.5317
19.0763
18.5649
18.0535
20.8192
20.7616
20.6454
20.4681
20.2261
19.9153
19.5318
19.0763
18.5649
18.0535
20.8192
20.7617
20.6454
20.4681
20.2262
19.9153
19.5318
19.0764
18.565
18.0536
20.8193
20.7617
20.6455
20.4682
20.2262
19.9154
19.5319
19.0765
18.5651
18.0536
17.4539
17.4048
17.3066
17.1597
16.9652
16.7265
16.4512
16.1558
15.8734
15.666
17.4538
17.4047
17.3065
17.1596
16.9651
16.7264
16.4511
16.1557
15.8734
15.6659
17.4538
17.4047
17.3065
17.1596
16.9651
16.7264
16.4511
16.1557
15.8733
15.6659
17.4538
17.4046
17.3064
17.1595
16.9651
16.7264
16.4511
16.1557
15.8733
15.6658
17.4538
17.4046
17.3064
17.1595
16.9651
16.7263
16.4511
16.1557
15.8733
15.6658
17.4538
17.4046
17.3064
17.1595
16.9651
16.7263
16.4511
16.1557
15.8733
15.6658
17.4538
17.4046
17.3065
17.1595
16.9651
16.7264
16.4511
16.1557
15.8733
15.6658
17.4538
17.4047
17.3065
17.1596
16.9651
16.7264
16.4511
16.1557
15.8733
15.6659
17.4538
17.4047
17.3065
17.1596
16.9652
16.7264
16.4512
16.1558
15.8734
15.6659
17.4539
17.4048
17.3066
17.1597
16.9652
16.7265
16.4512
16.1558
15.8734
15.666
14.5295
14.4898
14.4115
14.2976
14.153
13.9869
13.8149
13.6621
13.5673
13.5866
14.5294
14.4897
14.4115
14.2975
14.1529
13.9869
13.8149
13.662
13.5673
13.5866
14.5294
14.4897
14.4115
14.2975
14.1529
13.9868
13.8148
13.662
13.5672
13.5865
14.5294
14.4896
14.4114
14.2974
14.1529
13.9868
13.8148
13.662
13.5672
13.5865
14.5293
14.4896
14.4114
14.2974
14.1528
13.9868
13.8148
13.6619
13.5672
13.5865
14.5293
14.4896
14.4114
14.2974
14.1529
13.9868
13.8148
13.6619
13.5672
13.5865
14.5294
14.4896
14.4114
14.2975
14.1529
13.9868
13.8148
13.662
13.5672
13.5865
14.5294
14.4897
14.4115
14.2975
14.1529
13.9868
13.8148
13.662
13.5672
13.5865
14.5294
14.4897
14.4115
14.2975
14.1529
13.9869
13.8149
13.662
13.5673
13.5866
14.5295
14.4898
14.4116
14.2976
14.153
13.987
13.8149
13.6621
13.5674
13.5866
12.0109
11.9805
11.922
11.8397
11.7418
11.6416
11.5598
11.527
11.5855
11.7861
12.0108
11.9805
11.9219
11.8396
11.7418
11.6416
11.5597
11.527
11.5854
11.7861
12.0108
11.9804
11.9219
11.8396
11.7417
11.6415
11.5597
11.5269
11.5854
11.786
12.0108
11.9804
11.9218
11.8396
11.7417
11.6415
11.5597
11.5269
11.5853
11.786
12.0108
11.9804
11.9218
11.8396
11.7417
11.6415
11.5597
11.5269
11.5853
11.786
12.0108
11.9804
11.9218
11.8396
11.7417
11.6415
11.5597
11.5269
11.5853
11.786
12.0108
11.9804
11.9219
11.8396
11.7417
11.6415
11.5597
11.5269
11.5853
11.786
12.0108
11.9805
11.9219
11.8396
11.7418
11.6416
11.5597
11.5269
11.5854
11.786
12.0108
11.9805
11.9219
11.8397
11.7418
11.6416
11.5598
11.527
11.5854
11.7861
12.0109
11.9805
11.922
11.8397
11.7418
11.6417
11.5598
11.527
11.5855
11.7862
9.86028
9.83844
9.7974
9.74284
9.68461
9.63847
9.62862
9.69067
9.87371
10.2356
9.86024
9.83839
9.79735
9.74279
9.68456
9.63843
9.62857
9.69062
9.87366
10.2356
9.8602
9.83836
9.79732
9.74276
9.68453
9.63839
9.62854
9.69058
9.87362
10.2355
9.86018
9.83834
9.7973
9.74274
9.68451
9.63837
9.62851
9.69055
9.87359
10.2355
9.86017
9.83833
9.79729
9.74273
9.6845
9.63836
9.6285
9.69054
9.87358
10.2355
9.86017
9.83833
9.79729
9.74273
9.6845
9.63836
9.62851
9.69055
9.87358
10.2355
9.86019
9.83834
9.7973
9.74274
9.68451
9.63838
9.62852
9.69056
9.8736
10.2355
9.86021
9.83837
9.79733
9.74277
9.68454
9.6384
9.62855
9.69059
9.87363
10.2355
9.86024
9.8384
9.79736
9.7428
9.68457
9.63844
9.62859
9.69063
9.87367
10.2356
9.86027
9.83844
9.79741
9.74285
9.68462
9.63849
9.62864
9.69069
9.87373
10.2356
8.03917
8.02439
7.99764
7.96499
7.93675
7.92936
7.96833
8.09332
8.36643
8.88119
8.03913
8.02435
7.99761
7.96495
7.93671
7.92932
7.96829
8.09327
8.36638
8.88114
8.0391
8.02432
7.99758
7.96492
7.93668
7.92929
7.96825
8.09324
8.36634
8.8811
8.03909
8.0243
7.99756
7.9649
7.93666
7.92927
7.96823
8.09322
8.36632
8.88108
8.03908
8.02429
7.99755
7.96489
7.93665
7.92926
7.96822
8.09321
8.36631
8.88107
8.03908
8.02429
7.99755
7.96489
7.93666
7.92926
7.96823
8.09321
8.36631
8.88107
8.03909
8.0243
7.99756
7.96491
7.93667
7.92927
7.96824
8.09323
8.36633
8.88108
8.03911
8.02432
7.99758
7.96493
7.93669
7.9293
7.96827
8.09325
8.36636
8.88111
8.03913
8.02435
7.99762
7.96496
7.93673
7.92933
7.9683
8.09329
8.3664
8.88116
8.03917
8.02439
7.99766
7.96501
7.93677
7.92938
7.96835
8.09334
8.36645
8.88122
6.50982
6.50041
6.48427
6.46704
6.45817
6.47239
6.53239
6.67489
6.96801
7.5737
6.50979
6.50038
6.48423
6.467
6.45813
6.47235
6.53235
6.67485
6.96797
7.57366
6.50976
6.50035
6.48421
6.46697
6.45811
6.47233
6.53233
6.67482
6.96793
7.57362
6.50975
6.50033
6.48419
6.46696
6.45809
6.47231
6.53231
6.67481
6.96792
7.5736
6.50974
6.50033
6.48418
6.46695
6.45808
6.4723
6.5323
6.6748
6.96791
7.57359
6.50974
6.50033
6.48419
6.46695
6.45809
6.4723
6.5323
6.6748
6.96791
7.5736
6.50975
6.50034
6.4842
6.46696
6.4581
6.47232
6.53232
6.67481
6.96792
7.57361
6.50977
6.50036
6.48422
6.46698
6.45812
6.47234
6.53234
6.67484
6.96795
7.57364
6.50979
6.50038
6.48424
6.46701
6.45815
6.47237
6.53237
6.67487
6.96799
7.57368
6.50982
6.50042
6.48428
6.46705
6.45819
6.47241
6.53242
6.67492
6.96803
7.57373
23.9972
22.0784
21.81
22.9293
25.4087
29.37
35.0826
43.0255
54.0611
69.902
23.9971
22.0783
21.8099
22.9292
25.4085
29.3698
35.0825
43.0253
54.0609
69.9018
23.9971
22.0782
21.8098
22.9291
25.4085
29.3697
35.0823
43.0252
54.0608
69.9017
23.997
22.0782
21.8098
22.9291
25.4084
29.3697
35.0823
43.0251
54.0607
69.9016
23.997
22.0781
21.8097
22.929
25.4084
29.3696
35.0822
43.0251
54.0607
69.9015
23.997
22.0781
21.8097
22.929
25.4084
29.3696
35.0822
43.0251
54.0607
69.9015
23.997
22.0781
21.8097
22.929
25.4084
29.3697
35.0823
43.0251
54.0607
69.9016
23.997
22.0782
21.8098
22.9291
25.4084
29.3697
35.0823
43.0252
54.0607
69.9016
23.9971
22.0782
21.8098
22.9291
25.4085
29.3698
35.0824
43.0253
54.0608
69.9017
23.9972
22.0783
21.8099
22.9292
25.4086
29.3698
35.0825
43.0253
54.0609
69.9019
22.1056
21.0294
21.0727
22.2744
24.6933
28.4538
33.7631
40.9261
50.3388
62.3372
22.1055
21.0293
21.0726
22.2743
24.6932
28.4536
33.7629
40.9259
50.3386
62.337
22.1055
21.0292
21.0725
22.2742
24.6931
28.4535
33.7628
40.9258
50.3385
62.3369
22.1054
21.0292
21.0725
22.2741
24.693
28.4535
33.7627
40.9257
50.3384
62.3368
22.1054
21.0292
21.0724
22.2741
24.693
28.4534
33.7627
40.9257
50.3384
62.3367
22.1054
21.0292
21.0724
22.2741
24.693
28.4534
33.7627
40.9257
50.3383
62.3367
22.1054
21.0292
21.0725
22.2741
24.693
28.4535
33.7627
40.9257
50.3384
62.3368
22.1054
21.0292
21.0725
22.2742
24.6931
28.4535
33.7628
40.9258
50.3384
62.3368
22.1055
21.0293
21.0726
22.2742
24.6931
28.4536
33.7629
40.9259
50.3385
62.337
22.1056
21.0293
21.0726
22.2743
24.6932
28.4537
33.763
40.926
50.3387
62.3371
19.8757
19.4586
19.8222
21.1012
23.3957
26.8151
31.4898
37.5567
45.0953
53.9449
19.8756
19.4585
19.8221
21.1011
23.3956
26.815
31.4896
37.5566
45.0951
53.9447
19.8755
19.4585
19.8221
21.101
23.3955
26.8149
31.4895
37.5565
45.095
53.9446
19.8755
19.4584
19.822
21.101
23.3955
26.8148
31.4895
37.5564
45.0949
53.9445
19.8755
19.4584
19.822
21.101
23.3955
26.8148
31.4894
37.5564
45.0949
53.9444
19.8755
19.4584
19.822
21.101
23.3954
26.8148
31.4894
37.5564
45.0949
53.9444
19.8755
19.4584
19.822
21.101
23.3955
26.8148
31.4895
37.5564
45.0949
53.9445
19.8755
19.4584
19.8221
21.101
23.3955
26.8149
31.4895
37.5564
45.095
53.9445
19.8756
19.4585
19.8221
21.1011
23.3956
26.8149
31.4896
37.5565
45.0951
53.9447
19.8757
19.4586
19.8222
21.1012
23.3957
26.8151
31.4897
37.5567
45.0952
53.9448
17.6815
17.6959
18.291
19.5993
21.7185
24.7308
28.704
33.6705
39.5737
46.1697
17.6814
17.6958
18.2909
19.5992
21.7184
24.7307
28.7039
33.6703
39.5735
46.1695
17.6813
17.6957
18.2909
19.5991
21.7183
24.7306
28.7038
33.6702
39.5734
46.1694
17.6813
17.6957
18.2908
19.599
21.7182
24.7305
28.7037
33.6701
39.5733
46.1693
17.6813
17.6956
18.2908
19.599
21.7182
24.7305
28.7037
33.6701
39.5733
46.1693
17.6813
17.6956
18.2908
19.599
21.7182
24.7305
28.7037
33.6701
39.5733
46.1693
17.6813
17.6957
18.2908
19.599
21.7182
24.7305
28.7037
33.6701
39.5733
46.1693
17.6813
17.6957
18.2909
19.5991
21.7183
24.7306
28.7038
33.6702
39.5734
46.1694
17.6814
17.6958
18.2909
19.5991
21.7183
24.7307
28.7039
33.6703
39.5735
46.1695
17.6815
17.6958
18.291
19.5992
21.7184
24.7308
28.704
33.6704
39.5736
46.1697
15.637
15.9271
16.666
17.956
19.8736
22.4724
25.7775
29.769
34.352
39.3174
15.6369
15.927
16.6659
17.9559
19.8735
22.4723
25.7774
29.7689
34.3519
39.3173
15.6369
15.927
16.6658
17.9558
19.8734
22.4722
25.7773
29.7688
34.3518
39.3172
15.6368
15.9269
16.6658
17.9557
19.8734
22.4722
25.7772
29.7687
34.3517
39.3171
15.6368
15.9269
16.6658
17.9557
19.8734
22.4721
25.7772
29.7687
34.3517
39.3171
15.6368
15.9269
16.6658
17.9557
19.8734
22.4721
25.7772
29.7687
34.3517
39.3171
15.6368
15.9269
16.6658
17.9557
19.8734
22.4722
25.7772
29.7687
34.3517
39.3171
15.6369
15.927
16.6658
17.9558
19.8734
22.4722
25.7773
29.7688
34.3518
39.3172
15.6369
15.927
16.6659
17.9558
19.8735
22.4723
25.7774
29.7689
34.3519
39.3173
15.637
15.9271
16.666
17.9559
19.8736
22.4724
25.7775
29.769
34.352
39.3174
13.7924
14.2666
15.0903
16.334
18.0501
20.2677
22.9852
26.1599
29.6953
33.4344
13.7924
14.2665
15.0902
16.3339
18.05
20.2676
22.9851
26.1597
29.6952
33.4342
13.7923
14.2664
15.0901
16.3338
18.0499
20.2675
22.985
26.1596
29.6951
33.4341
13.7923
14.2664
15.0901
16.3338
18.0499
20.2675
22.985
26.1596
29.695
33.4341
13.7923
14.2664
15.0901
16.3337
18.0498
20.2674
22.9849
26.1595
29.695
33.434
13.7923
14.2664
15.0901
16.3337
18.0498
20.2674
22.9849
26.1595
29.695
33.434
13.7923
14.2664
15.0901
16.3338
18.0499
20.2675
22.985
26.1596
29.695
33.4341
13.7923
14.2664
15.0901
16.3338
18.0499
20.2675
22.985
26.1596
29.6951
33.4341
13.7924
14.2665
15.0902
16.3339
18.05
20.2676
22.9851
26.1597
29.6952
33.4342
13.7924
14.2666
15.0903
16.334
18.0501
20.2677
22.9852
26.1599
29.6953
33.4344
12.1779
12.793
13.6743
14.8665
16.4029
18.2947
20.5232
23.0337
25.7348
28.5081
12.1778
12.7929
13.6742
14.8664
16.4028
18.2946
20.5231
23.0336
25.7346
28.508
12.1777
12.7929
13.6741
14.8663
16.4027
18.2945
20.523
23.0335
25.7345
28.5079
12.1777
12.7928
13.6741
14.8663
16.4027
18.2945
20.5229
23.0334
25.7345
28.5078
12.1777
12.7928
13.6741
14.8663
16.4026
18.2945
20.5229
23.0334
25.7345
28.5078
12.1777
12.7928
13.6741
14.8663
16.4026
18.2945
20.5229
23.0334
25.7345
28.5078
12.1777
12.7928
13.6741
14.8663
16.4027
18.2945
20.5229
23.0335
25.7345
28.5078
12.1777
12.7929
13.6741
14.8663
16.4027
18.2945
20.523
23.0335
25.7346
28.5079
12.1778
12.7929
13.6742
14.8664
16.4028
18.2946
20.5231
23.0336
25.7347
28.508
12.1779
12.793
13.6743
14.8665
16.4029
18.2947
20.5232
23.0337
25.7348
28.5082
10.8156
11.5687
12.5061
13.66
15.0542
16.6894
18.5343
20.5223
22.5551
24.5248
10.8156
11.5687
12.5061
13.6599
15.0541
16.6893
18.5342
20.5222
22.5549
24.5247
10.8155
11.5686
12.506
13.6598
15.0541
16.6892
18.5341
20.5221
22.5549
24.5246
10.8155
11.5686
12.506
13.6598
15.054
16.6892
18.5341
20.522
22.5548
24.5246
10.8155
11.5686
12.506
13.6598
15.054
16.6892
18.5341
20.522
22.5548
24.5245
10.8155
11.5686
12.506
13.6598
15.054
16.6892
18.5341
20.522
22.5548
24.5245
10.8155
11.5686
12.506
13.6598
15.054
16.6892
18.5341
20.522
22.5548
24.5246
10.8155
11.5686
12.506
13.6598
15.0541
16.6892
18.5341
20.5221
22.5549
24.5246
10.8156
11.5687
12.5061
13.6599
15.0541
16.6893
18.5342
20.5222
22.555
24.5247
10.8156
11.5688
12.5062
13.66
15.0542
16.6894
18.5343
20.5223
22.5551
24.5249
9.73298
10.6554
11.6614
12.7991
14.098
15.5551
17.1296
18.7371
20.2492
21.5093
9.73292
10.6553
11.6614
12.7991
14.0979
15.555
17.1295
18.737
20.2491
21.5092
9.73287
10.6552
11.6613
12.799
14.0978
15.555
17.1294
18.7369
20.249
21.5091
9.73284
10.6552
11.6613
12.799
14.0978
15.5549
17.1294
18.7369
20.2489
21.5091
9.73283
10.6552
11.6613
12.799
14.0978
15.5549
17.1293
18.7369
20.2489
21.5091
9.73283
10.6552
11.6613
12.799
14.0978
15.5549
17.1294
18.7369
20.2489
21.5091
9.73285
10.6552
11.6613
12.799
14.0978
15.5549
17.1294
18.7369
20.2489
21.5091
9.73289
10.6553
11.6613
12.799
14.0978
15.555
17.1294
18.737
20.249
21.5092
9.73293
10.6553
11.6614
12.7991
14.0979
15.5551
17.1295
18.737
20.2491
21.5093
9.733
10.6554
11.6615
12.7992
14.098
15.5552
17.1296
18.7371
20.2492
21.5094
9.01015
10.1362
11.21
12.3489
13.6013
14.9669
16.398
17.7923
18.9718
19.6299
9.0101
10.1362
11.21
12.3489
13.6013
14.9668
16.3979
17.7922
18.9717
19.6298
9.01007
10.1361
11.2099
12.3488
13.6012
14.9667
16.3978
17.7921
18.9716
19.6298
9.01004
10.1361
11.2099
12.3488
13.6012
14.9667
16.3978
17.7921
18.9716
19.6297
9.01003
10.1361
11.2099
12.3488
13.6012
14.9667
16.3978
17.7921
18.9716
19.6297
9.01003
10.1361
11.2099
12.3488
13.6012
14.9667
16.3978
17.7921
18.9716
19.6297
9.01005
10.1361
11.2099
12.3488
13.6012
14.9667
16.3978
17.7921
18.9716
19.6297
9.01008
10.1361
11.21
12.3488
13.6012
14.9668
16.3979
17.7921
18.9717
19.6298
9.01013
10.1362
11.21
12.3489
13.6013
14.9668
16.3979
17.7922
18.9718
19.6299
9.01019
10.1363
11.2101
12.349
13.6014
14.9669
16.398
17.7923
18.9719
19.63
94.4887
105.976
112.864
117.578
120.994
123.509
125.342
126.625
127.44
127.835
94.4884
105.976
112.863
117.578
120.994
123.509
125.342
126.625
127.439
127.835
94.4883
105.976
112.863
117.578
120.994
123.509
125.342
126.624
127.439
127.835
94.4882
105.976
112.863
117.578
120.993
123.509
125.342
126.624
127.439
127.835
94.4881
105.976
112.863
117.578
120.993
123.509
125.342
126.624
127.439
127.835
94.4881
105.976
112.863
117.578
120.993
123.509
125.342
126.624
127.439
127.835
94.4882
105.976
112.863
117.578
120.993
123.509
125.342
126.624
127.439
127.835
94.4883
105.976
112.863
117.578
120.994
123.509
125.342
126.625
127.439
127.835
94.4884
105.976
112.863
117.578
120.994
123.509
125.342
126.625
127.439
127.835
94.4885
105.976
112.864
117.578
120.994
123.509
125.342
126.625
127.44
127.836
76.3162
86.3902
93.4
98.3937
102.03
104.698
106.633
107.98
108.834
109.248
76.316
86.39
93.3998
98.3935
102.03
104.698
106.632
107.98
108.834
109.248
76.3159
86.3899
93.3996
98.3934
102.03
104.698
106.632
107.98
108.833
109.247
76.3158
86.3898
93.3995
98.3932
102.03
104.698
106.632
107.98
108.833
109.247
76.3157
86.3897
93.3995
98.3932
102.03
104.698
106.632
107.98
108.833
109.247
76.3157
86.3897
93.3995
98.3932
102.03
104.698
106.632
107.98
108.833
109.247
76.3157
86.3897
93.3995
98.3933
102.03
104.698
106.632
107.98
108.833
109.247
76.3158
86.3898
93.3996
98.3934
102.03
104.698
106.632
107.98
108.833
109.247
76.316
86.39
93.3997
98.3935
102.03
104.698
106.633
107.98
108.834
109.248
76.3161
86.3902
93.3999
98.3937
102.03
104.698
106.633
107.98
108.834
109.248
63.2897
71.1802
77.3222
81.9846
85.4949
88.1142
90.0299
91.3705
92.2215
92.6347
63.2895
71.18
77.322
81.9844
85.4947
88.114
90.0297
91.3703
92.2213
92.6346
63.2894
71.1799
77.3219
81.9842
85.4945
88.1139
90.0295
91.3702
92.2211
92.6344
63.2893
71.1798
77.3218
81.9841
85.4944
88.1138
90.0294
91.3701
92.221
92.6343
63.2893
71.1797
77.3217
81.9841
85.4944
88.1137
90.0294
91.37
92.221
92.6343
63.2893
71.1797
77.3217
81.9841
85.4944
88.1137
90.0294
91.37
92.221
92.6343
63.2893
71.1798
77.3218
81.9842
85.4944
88.1138
90.0294
91.3701
92.2211
92.6344
63.2894
71.1799
77.3219
81.9843
85.4945
88.1139
90.0296
91.3702
92.2212
92.6345
63.2895
71.18
77.322
81.9844
85.4947
88.1141
90.0297
91.3704
92.2214
92.6347
63.2897
71.1802
77.3222
81.9846
85.4949
88.1143
90.0299
91.3706
92.2216
92.6349
52.9067
58.9757
64.0395
68.0929
71.2577
73.6763
75.4724
76.7418
77.5523
77.9472
52.9065
58.9755
64.0394
68.0927
71.2575
73.6761
75.4722
76.7416
77.5521
77.947
52.9064
58.9754
64.0392
68.0926
71.2574
73.6759
75.4721
76.7415
77.552
77.9469
52.9063
58.9753
64.0391
68.0925
71.2573
73.6758
75.472
76.7414
77.5519
77.9469
52.9063
58.9752
64.0391
68.0925
71.2572
73.6758
75.472
76.7414
77.5519
77.9468
52.9063
58.9752
64.0391
68.0925
71.2572
73.6758
75.472
76.7414
77.5519
77.9468
52.9063
58.9753
64.0391
68.0925
71.2573
73.6759
75.472
76.7414
77.552
77.9469
52.9064
58.9754
64.0392
68.0926
71.2574
73.676
75.4722
76.7415
77.5521
77.947
52.9065
58.9755
64.0394
68.0928
71.2575
73.6761
75.4723
76.7417
77.5523
77.9472
52.9067
58.9757
64.0396
68.093
71.2577
73.6763
75.4725
76.7419
77.5525
77.9474
44.3238
48.9709
53.0175
56.3884
59.1066
61.235
62.8438
63.9947
64.7355
65.098
44.3237
48.9707
53.0173
56.3882
59.1064
61.2349
62.8436
63.9946
64.7353
65.0979
44.3236
48.9706
53.0172
56.3881
59.1063
61.2347
62.8435
63.9944
64.7352
65.0978
44.3235
48.9705
53.0171
56.388
59.1062
61.2346
62.8434
63.9943
64.7351
65.0977
44.3234
48.9705
53.017
56.388
59.1061
61.2346
62.8434
63.9943
64.7351
65.0977
44.3234
48.9705
53.017
56.388
59.1061
61.2346
62.8434
63.9943
64.7351
65.0977
44.3235
48.9705
53.0171
56.388
59.1062
61.2347
62.8435
63.9944
64.7352
65.0978
44.3236
48.9706
53.0172
56.3881
59.1063
61.2348
62.8436
63.9945
64.7353
65.0979
44.3237
48.9707
53.0173
56.3882
59.1064
61.2349
62.8437
63.9947
64.7355
65.0981
44.3238
48.9709
53.0175
56.3884
59.1066
61.2351
62.8439
63.9949
64.7357
65.0983
37.1705
40.6926
43.8475
46.5578
48.8052
50.6061
51.992
52.9967
53.6492
53.9701
37.1704
40.6924
43.8474
46.5577
48.805
50.606
51.9919
52.9965
53.649
53.97
37.1702
40.6923
43.8472
46.5575
48.8049
50.6059
51.9918
52.9964
53.6489
53.9699
37.1702
40.6922
43.8472
46.5575
48.8048
50.6058
51.9917
52.9963
53.6488
53.9698
37.1701
40.6922
43.8471
46.5574
48.8048
50.6057
51.9916
52.9963
53.6488
53.9698
37.1701
40.6922
43.8471
46.5574
48.8048
50.6058
51.9917
52.9963
53.6488
53.9698
37.1702
40.6923
43.8472
46.5575
48.8049
50.6058
51.9917
52.9964
53.6489
53.9699
37.1703
40.6923
43.8473
46.5576
48.805
50.6059
51.9918
52.9965
53.649
53.97
37.1704
40.6925
43.8474
46.5577
48.8051
50.6061
51.992
52.9966
53.6491
53.9702
37.1705
40.6926
43.8476
46.5579
48.8053
50.6062
51.9922
52.9968
53.6493
53.9704
31.2364
33.8345
36.2193
38.3269
40.122
41.5936
42.7471
43.5948
44.1506
44.4256
31.2363
33.8344
36.2192
38.3268
40.1218
41.5935
42.7469
43.5946
44.1505
44.4255
31.2362
33.8343
36.2191
38.3267
40.1217
41.5934
42.7468
43.5945
44.1504
44.4254
31.2361
33.8342
36.219
38.3266
40.1216
41.5933
42.7467
43.5945
44.1503
44.4253
31.2361
33.8342
36.219
38.3266
40.1216
41.5933
42.7467
43.5944
44.1503
44.4253
31.2361
33.8342
36.219
38.3266
40.1216
41.5933
42.7467
43.5945
44.1503
44.4253
31.2361
33.8342
36.219
38.3266
40.1217
41.5933
42.7468
43.5945
44.1504
44.4254
31.2362
33.8343
36.2191
38.3267
40.1217
41.5934
42.7469
43.5946
44.1505
44.4255
31.2363
33.8344
36.2192
38.3268
40.1219
41.5936
42.747
43.5948
44.1506
44.4256
31.2365
33.8346
36.2194
38.327
40.122
41.5937
42.7472
43.5949
44.1508
44.4258
26.3718
28.1678
29.8827
31.4565
32.84
34.0034
34.9333
35.6268
36.0861
36.3146
26.3716
28.1677
29.8825
31.4564
32.8399
34.0033
34.9331
35.6266