/*--------------------------------*- C++ -*----------------------------------*\
  =========                 |
  \\      /  F ield         | OpenFOAM: The Open Source CFD Toolbox
   \\    /   O peration     | Website:  https://openfoam.org
    \\  /    A nd           | Version:  6
     \\/     M anipulation  |
\*---------------------------------------------------------------------------*/
FoamFile
{
    version     2.0;
    format      ascii;
    class       surfaceScalarField;
    location    "0.1";
    object      phi;
}
// * * * * * * * * * * * * * * * * * * * * * * * * * * * * * * * * * * * * * //

dimensions      [0 3 -1 0 0 0 0];

internalField   nonuniform List<scalar> 
162400
(
-2.49494e-10
1.5266e-09
5.50838e-06
7.76932e-10
2.45811e-09
1.14806e-05
2.80675e-09
2.27394e-09
1.50981e-05
4.77371e-09
1.60459e-09
1.72374e-05
5.57803e-09
6.95727e-10
1.82351e-05
4.6875e-09
-3.78762e-10
1.82157e-05
2.50681e-09
-1.57662e-09
1.71814e-05
2.99915e-10
-2.73269e-09
1.50133e-05
-6.08791e-10
-3.37143e-09
1.1387e-05
-2.35063e-09
5.4478e-06
9.6711e-10
3.53946e-09
1.15384e-05
5.21163e-09
6.16646e-09
2.67758e-05
1.17817e-08
6.0882e-09
3.67672e-05
1.77861e-08
4.61284e-09
4.28673e-05
2.03908e-08
2.36757e-09
4.57539e-05
1.81961e-08
-3.72825e-10
4.57124e-05
1.20411e-08
-3.38878e-09
4.27476e-05
4.94182e-09
-6.15482e-09
3.65885e-05
5.55896e-10
-7.4447e-09
2.65846e-05
-4.86286e-09
1.14254e-05
2.3147e-09
5.17068e-09
1.53745e-05
9.8015e-09
9.5304e-09
3.73006e-05
2.05992e-08
9.91701e-09
5.23317e-05
3.02247e-08
7.98849e-09
6.17319e-05
3.44569e-08
4.68971e-09
6.62357e-05
3.1197e-08
5.35323e-10
6.61786e-05
2.15681e-08
-4.01561e-09
6.15678e-05
9.93595e-09
-8.07151e-09
5.20879e-05
1.96803e-09
-9.83411e-09
3.70427e-05
-6.2644e-09
1.52261e-05
3.33312e-09
6.06097e-09
1.79925e-05
1.33895e-08
1.17238e-08
4.4704e-05
2.75507e-08
1.27482e-08
6.3535e-05
4.00385e-08
1.08267e-08
7.55198e-05
4.55271e-08
7.07331e-09
8.13173e-05
4.1377e-08
2.18388e-09
8.12459e-05
2.89575e-08
-3.19097e-09
7.53148e-05
1.37327e-08
-7.93261e-09
6.32315e-05
2.98436e-09
-1.00079e-08
4.43847e-05
-6.34456e-09
1.78106e-05
3.94505e-09
6.20055e-09
1.98305e-05
1.57597e-08
1.24772e-08
4.99641e-05
3.23187e-08
1.40733e-08
7.15915e-05
4.68661e-08
1.25025e-08
8.55244e-05
5.32301e-08
8.8863e-09
9.23101e-05
4.83708e-08
3.99411e-09
9.22244e-05
3.38817e-08
-1.43924e-09
8.52783e-05
1.60991e-08
-6.25177e-09
7.12289e-05
3.51224e-09
-8.49104e-09
4.95847e-05
-5.45904e-09
1.96158e-05
4.23217e-09
5.71041e-09
2.11286e-05
1.71099e-08
1.18537e-08
5.36971e-05
3.52299e-08
1.37687e-08
7.73445e-05
5.11467e-08
1.26866e-08
9.27045e-05
5.8073e-08
9.61101e-09
0.00010022
5.26855e-08
5.27604e-09
0.00010012
3.6771e-08
3.8859e-10
9.24189e-05
1.73231e-08
-3.99949e-09
7.69256e-05
3.67802e-09
-6.22346e-09
5.32614e-05
-4.14248e-09
2.08834e-05
4.31201e-09
4.72164e-09
2.20347e-05
1.77568e-08
1.00317e-08
5.63081e-05
3.6812e-08
1.19151e-08
8.13806e-05
5.35773e-08
1.12886e-08
9.77553e-05
6.08404e-08
8.9546e-09
0.000105791
5.50863e-08
5.5263e-09
0.000105679
3.82541e-08
1.59467e-09
9.74345e-05
1.78062e-08
-1.99912e-09
8.09118e-05
3.63683e-09
-3.98174e-09
5.58229e-05
-2.80461e-09
2.17634e-05
4.28823e-09
3.35849e-09
2.26446e-05
1.79935e-08
7.25078e-09
5.80671e-05
3.75642e-08
8.74719e-09
8.41037e-05
5.48197e-08
8.44981e-09
0.000101167
6.22717e-08
6.91268e-09
0.000109557
5.62811e-08
4.57084e-09
0.000109435
3.88974e-08
1.84267e-09
0.000100818
1.78952e-08
-6.94338e-10
8.35949e-05
3.51395e-09
-2.19267e-09
5.75426e-05
-1.66227e-09
2.2353e-05
4.23529e-09
1.74298e-09
2.30204e-05
1.80383e-08
3.79847e-09
5.91511e-05
3.78661e-08
4.62454e-09
8.57832e-05
5.53802e-08
4.51867e-09
0.000103273
6.29292e-08
3.76258e-09
0.000111882
5.6801e-08
2.5808e-09
0.000111752
3.9115e-08
1.18871e-09
0.000102904
1.78342e-08
-1.21709e-10
8.52467e-05
3.39306e-09
-9.29781e-10
5.85999e-05
-7.56021e-10
2.27149e-05
4.19842e-09
-2.5e-13
2.31995e-05
1.80287e-08
-3.1125e-13
5.96678e-05
3.79596e-08
-4.7375e-13
8.65838e-05
5.5583e-08
-4.85e-13
0.000104277
6.31723e-08
-4.1125e-13
0.000112991
5.69815e-08
-3.1625e-13
0.000112857
3.91639e-08
-2.2375e-13
0.000103898
1.77701e-08
-1.33806e-13
8.6033e-05
3.32208e-09
-1.5e-14
5.91028e-05
-7.125e-14
2.2887e-05
4.19845e-09
-1.74352e-09
2.31995e-05
1.80288e-08
-3.79916e-09
5.96677e-05
3.79597e-08
-4.62554e-09
8.65837e-05
5.55831e-08
-4.51968e-09
0.000104277
6.31724e-08
-3.76343e-09
0.000112991
5.69815e-08
-2.58144e-09
0.000112857
3.91639e-08
-1.18917e-09
0.000103898
1.77701e-08
1.21441e-10
8.6033e-05
3.32209e-09
9.29754e-10
5.91027e-05
7.55879e-10
2.2887e-05
4.23541e-09
-3.35915e-09
2.30204e-05
1.80387e-08
-7.25166e-09
5.91511e-05
3.78665e-08
-8.74837e-09
8.57832e-05
5.53806e-08
-8.45094e-09
0.000103273
6.29296e-08
-6.91359e-09
0.000111882
5.68012e-08
-4.5715e-09
0.000111752
3.91152e-08
-1.84313e-09
0.000102904
1.78343e-08
6.94072e-10
8.52467e-05
3.39309e-09
2.19264e-09
5.85999e-05
1.66213e-09
2.27149e-05
4.28847e-09
-4.72256e-09
2.26446e-05
1.79939e-08
-1.00329e-08
5.80671e-05
3.75649e-08
-1.19166e-08
8.41038e-05
5.48205e-08
-1.12899e-08
0.000101168
6.22723e-08
-8.95561e-09
0.000109558
5.62814e-08
-5.527e-09
0.000109435
3.88976e-08
-1.59514e-09
0.000100818
1.78953e-08
1.99886e-09
8.35949e-05
3.51398e-09
3.98172e-09
5.75426e-05
2.80447e-09
2.2353e-05
4.31249e-09
-5.71188e-09
2.20347e-05
1.77577e-08
-1.18556e-08
5.63081e-05
3.68131e-08
-1.37707e-08
8.13806e-05
5.35785e-08
-1.26883e-08
9.77553e-05
6.08414e-08
-9.61216e-09
0.000105791
5.50869e-08
-5.27679e-09
0.000105679
3.82545e-08
-3.89053e-10
9.74345e-05
1.78064e-08
3.99925e-09
8.09118e-05
3.63689e-09
6.22347e-09
5.58229e-05
4.14235e-09
2.17634e-05
4.23312e-09
-6.20321e-09
2.11286e-05
1.71119e-08
-1.24801e-08
5.36971e-05
3.5232e-08
-1.40762e-08
7.73445e-05
5.11485e-08
-1.25046e-08
9.27045e-05
5.80742e-08
-8.88762e-09
0.00010022
5.26864e-08
-3.9949e-09
0.00010012
3.67715e-08
1.4388e-09
9.24189e-05
1.73233e-08
6.25157e-09
7.69256e-05
3.67809e-09
8.49107e-09
5.32614e-05
5.45893e-09
2.08834e-05
3.94692e-09
-6.0667e-09
1.98305e-05
1.57632e-08
-1.17293e-08
4.99641e-05
3.2322e-08
-1.27526e-08
7.15915e-05
4.68688e-08
-1.08294e-08
8.55244e-05
5.3232e-08
-7.07486e-09
9.23101e-05
4.83719e-08
-2.1847e-09
9.22244e-05
3.38823e-08
3.19056e-09
8.52783e-05
1.60994e-08
7.93246e-09
7.12289e-05
3.51232e-09
1.0008e-08
4.95848e-05
6.34448e-09
1.96158e-05
3.33696e-09
-5.18508e-09
1.79925e-05
1.33959e-08
-9.5415e-09
4.4704e-05
2.75562e-08
-9.92385e-09
6.3535e-05
4.00425e-08
-7.99211e-09
7.55198e-05
4.55296e-08
-4.69149e-09
8.13173e-05
4.13784e-08
-5.36131e-10
8.12459e-05
2.89582e-08
4.01526e-09
7.53148e-05
1.37331e-08
8.07141e-09
6.32315e-05
2.98444e-09
9.8342e-09
4.43848e-05
6.26434e-09
1.78106e-05
2.32255e-09
-3.58322e-09
1.53745e-05
9.81331e-09
-6.19015e-09
3.73006e-05
2.06078e-08
-6.09809e-09
5.23317e-05
3.023e-08
-4.61743e-09
6.17319e-05
3.44597e-08
-2.36955e-09
6.62357e-05
3.11985e-08
3.72043e-10
6.61786e-05
2.15688e-08
3.38849e-09
6.15677e-05
9.93625e-09
6.15478e-09
5.20879e-05
1.96809e-09
7.44475e-09
3.70427e-05
4.86284e-09
1.5226e-05
9.92265e-10
-1.58359e-09
1.15384e-05
5.23702e-09
-2.48235e-09
2.67758e-05
1.17942e-08
-2.2807e-09
3.67673e-05
1.7792e-08
-1.60742e-09
4.28673e-05
2.03936e-08
-6.96808e-10
4.57539e-05
1.81973e-08
3.7837e-10
4.57124e-05
1.20416e-08
1.57648e-09
4.27476e-05
4.942e-09
2.73268e-09
3.65885e-05
5.55955e-10
3.37144e-09
2.65846e-05
2.35062e-09
1.14254e-05
-1.92141e-10
5.5084e-06
8.2128e-10
1.14806e-05
2.82159e-09
1.50981e-05
4.7795e-09
1.72374e-05
5.58041e-09
1.82351e-05
4.6885e-09
1.82157e-05
2.50721e-09
1.71814e-05
3.00086e-10
1.50133e-05
-6.08728e-10
1.1387e-05
5.4478e-06
-2.29238e-09
4.30202e-09
5.50633e-06
-2.26586e-09
6.83122e-09
1.14741e-05
5.594e-10
6.07779e-09
1.50893e-05
4.1756e-09
3.62237e-09
1.72302e-05
5.9696e-09
2.3176e-10
1.8233e-05
4.4903e-09
-3.69345e-09
1.82208e-05
5.6067e-10
-7.76352e-09
1.71931e-05
-2.8958e-09
-1.11958e-08
1.50278e-05
-3.03752e-09
-1.23234e-08
1.13989e-05
-7.7786e-09
5.45264e-06
-8.82405e-10
9.9443e-09
1.15334e-05
5.1298e-09
1.7137e-08
2.67589e-05
1.78179e-08
1.60737e-08
3.67441e-05
3.09236e-08
1.01904e-08
4.28473e-05
3.74095e-08
1.49507e-09
4.5746e-05
3.33261e-08
-8.70354e-09
4.57217e-05
2.03525e-08
-1.9048e-08
4.27725e-05
5.81555e-09
-2.7217e-08
3.662e-05
-1.46321e-09
-2.89542e-08
2.66092e-05
-1.71071e-08
1.14336e-05
1.94572e-09
1.46213e-08
1.53681e-05
1.55677e-08
2.64427e-08
3.72771e-05
3.87979e-08
2.58599e-08
5.22984e-05
6.1297e-08
1.73508e-08
6.1702e-05
7.22444e-08
4.00927e-09
6.62222e-05
6.5613e-08
-1.18193e-08
6.61886e-05
4.3714e-08
-2.7619e-08
6.15985e-05
1.75548e-08
-3.9527e-08
5.2127e-05
1.52248e-09
-4.12555e-08
3.70716e-05
-2.35655e-08
1.52336e-05
4.36546e-09
1.71726e-08
1.79862e-05
2.45238e-08
3.23346e-08
4.46774e-05
5.6648e-08
3.28017e-08
6.34957e-05
8.69109e-08
2.32118e-08
7.54835e-05
1.01361e-07
7.28744e-09
8.12995e-05
9.23479e-08
-1.18321e-08
8.1255e-05
6.2836e-08
-3.07258e-08
7.53476e-05
2.69869e-08
-4.45279e-08
6.32727e-05
3.7976e-09
-4.6017e-08
4.44132e-05
-2.56931e-08
1.78155e-05
5.82589e-09
1.74934e-08
1.98251e-05
3.05759e-08
3.40933e-08
4.99369e-05
6.91981e-08
3.57211e-08
7.15496e-05
1.05151e-07
2.65413e-08
8.54849e-05
1.22035e-07
1.03768e-08
9.22901e-05
1.11e-07
-9.28372e-09
9.2233e-05
7.567e-08
-2.86111e-08
8.53118e-05
3.27867e-08
-4.24677e-08
7.12702e-05
4.84649e-09
-4.37757e-08
4.96111e-05
-2.40658e-08
1.96179e-05
6.40783e-09
1.59828e-08
2.11245e-05
3.38695e-08
3.20451e-08
5.3671e-05
7.6699e-08
3.45062e-08
7.73025e-05
1.16417e-07
2.67391e-08
9.26644e-05
1.34828e-07
1.22244e-08
0.000100199
1.2224e-07
-5.67066e-09
0.000100129
8.28739e-08
-2.3239e-08
9.24531e-05
3.54474e-08
-3.57246e-08
7.69669e-05
4.91568e-09
-3.6957e-08
5.32857e-05
-2.01267e-08
2.08832e-05
6.39875e-09
1.30955e-08
2.20319e-05
3.51607e-08
2.68431e-08
5.62838e-05
8.04061e-08
2.95411e-08
8.134e-05
1.22385e-07
2.36747e-08
9.77161e-05
1.41662e-07
1.20671e-08
0.000105772
1.27987e-07
-2.43275e-09
0.000105689
8.60629e-08
-1.66857e-08
9.74701e-05
3.60218e-08
-2.67975e-08
8.09535e-05
4.4199e-09
-2.79452e-08
5.58463e-05
-1.51483e-08
2.17616e-05
6.10553e-09
9.23991e-09
2.26431e-05
3.53005e-08
1.92412e-08
5.80447e-05
8.17574e-08
2.1512e-08
8.4065e-05
1.2496e-07
1.7665e-08
0.00010113
1.44679e-07
9.66917e-09
0.00010954
1.30309e-07
-4.30703e-10
0.000109447
8.69061e-08
-1.03822e-08
0.000100856
3.5541e-08
-1.7456e-08
8.36376e-05
3.73624e-09
-1.83826e-08
5.75657e-05
-9.95031e-09
2.23502e-05
5.77489e-09
4.76931e-09
2.30199e-05
3.49956e-08
1.0026e-08
5.91304e-05
8.19655e-08
1.13167e-08
8.57462e-05
1.25755e-07
9.43029e-09
0.000103237
1.45671e-07
5.37426e-09
0.000111866
1.30904e-07
2.12151e-10
0.000111767
8.67362e-08
-4.88485e-09
0.000102943
3.47983e-08
-8.51719e-09
8.52904e-05
3.14026e-09
-9.04189e-09
5.8623e-05
-4.89472e-09
2.27117e-05
5.56987e-09
-2.4875e-13
2.31995e-05
3.47247e-08
-3e-13
5.96479e-05
8.18621e-08
-4.75e-13
8.65476e-05
1.25875e-07
-4.875e-13
0.000104243
1.45862e-07
-4e-13
0.000112976
1.30918e-07
-3.0725e-13
0.000112873
8.64359e-08
-2.0875e-13
0.000103938
3.43045e-08
-1.125e-13
8.60774e-05
2.80245e-09
1.25e-14
5.91261e-05
-6.125e-14
2.28837e-05
5.5699e-09
-4.76984e-09
2.31995e-05
3.47249e-08
-1.00267e-08
5.96479e-05
8.18624e-08
-1.13177e-08
8.65476e-05
1.25875e-07
-9.4313e-09
0.000104243
1.45862e-07
-5.3751e-09
0.000112976
1.30918e-07
-2.12778e-10
0.000112872
8.64359e-08
4.88443e-09
0.000103938
3.43045e-08
8.51696e-09
8.60774e-05
2.80246e-09
9.04191e-09
5.91261e-05
4.89459e-09
2.28837e-05
5.77501e-09
-9.24058e-09
2.30199e-05
3.49958e-08
-1.9242e-08
5.91304e-05
8.19659e-08
-2.15131e-08
8.57462e-05
1.25755e-07
-1.76661e-08
0.000103237
1.45671e-07
-9.67009e-09
0.000111866
1.30904e-07
4.30044e-10
0.000111767
8.67365e-08
1.03818e-08
0.000102943
3.47985e-08
1.74557e-08
8.52904e-05
3.14029e-09
1.83826e-08
5.8623e-05
9.95019e-09
2.27117e-05
6.10578e-09
-1.30965e-08
2.26431e-05
3.53009e-08
-2.68443e-08
5.80448e-05
8.1758e-08
-2.95426e-08
8.4065e-05
1.24961e-07
-2.36761e-08
0.00010113
1.4468e-07
-1.20681e-08
0.00010954
1.3031e-07
2.43205e-09
0.000109447
8.69064e-08
1.66852e-08
0.000100856
3.55411e-08
2.67972e-08
8.36376e-05
3.73627e-09
2.79452e-08
5.75658e-05
1.51482e-08
2.23502e-05
6.39921e-09
-1.59842e-08
2.20319e-05
3.51616e-08
-3.2047e-08
5.62838e-05
8.04073e-08
-3.45082e-08
8.134e-05
1.22386e-07
-2.67408e-08
9.77161e-05
1.41663e-07
-1.22256e-08
0.000105772
1.27988e-07
5.66991e-09
0.000105689
8.60634e-08
2.32385e-08
9.74701e-05
3.6022e-08
3.57244e-08
8.09535e-05
4.41996e-09
3.6957e-08
5.58463e-05
2.01266e-08
2.17616e-05
6.4087e-09
-1.74959e-08
2.11245e-05
3.38712e-08
-3.40963e-08
5.3671e-05
7.6701e-08
-3.5724e-08
7.73025e-05
1.16419e-07
-2.65434e-08
9.26644e-05
1.34829e-07
-1.03782e-08
0.0001002
1.22241e-07
9.28292e-09
0.000100129
8.28745e-08
2.86106e-08
9.24531e-05
3.54478e-08
4.24676e-08
7.69669e-05
4.91575e-09
4.37757e-08
5.32857e-05
2.40658e-08
2.08832e-05
5.82759e-09
-1.71773e-08
1.98251e-05
3.0579e-08
-3.23398e-08
4.99369e-05
6.92015e-08
-3.28061e-08
7.15496e-05
1.05154e-07
-2.32147e-08
8.54849e-05
1.22037e-07
-7.28904e-09
9.22901e-05
1.11001e-07
1.18313e-08
9.2233e-05
7.56708e-08
3.07253e-08
8.53118e-05
3.27871e-08
4.45279e-08
7.12703e-05
4.84659e-09
4.60171e-08
4.96111e-05
2.56931e-08
1.96179e-05
4.36878e-09
-1.46307e-08
1.79862e-05
2.45294e-08
-2.64517e-08
4.46774e-05
5.66533e-08
-2.58663e-08
6.34958e-05
8.69149e-08
-1.73544e-08
7.54835e-05
1.01364e-07
-4.01103e-09
8.12995e-05
9.23494e-08
1.18185e-08
8.1255e-05
6.28368e-08
2.76186e-08
7.53476e-05
2.69872e-08
3.9527e-08
6.32728e-05
3.79768e-09
4.12557e-08
4.44133e-05
2.35655e-08
1.78155e-05
1.95219e-09
-9.96207e-09
1.53681e-05
1.55774e-08
-1.71504e-08
3.72771e-05
3.8806e-08
-1.60815e-08
5.22984e-05
6.13022e-08
-1.01942e-08
6.1702e-05
7.22475e-08
-1.49675e-09
6.62222e-05
6.56147e-08
8.7029e-09
6.61886e-05
4.37149e-08
1.90478e-08
6.15985e-05
1.75551e-08
2.7217e-08
5.2127e-05
1.52256e-09
2.89544e-08
3.70716e-05
1.71071e-08
1.52336e-05
-8.69245e-10
-4.32113e-09
1.15334e-05
5.14492e-09
-6.84347e-09
2.67589e-05
1.78283e-08
-6.08324e-09
3.67441e-05
3.09293e-08
-3.6247e-09
4.28473e-05
3.74124e-08
-2.32634e-10
4.5746e-05
3.33275e-08
3.69317e-09
4.57218e-05
2.0353e-08
7.76347e-09
4.27725e-05
5.81576e-09
1.11959e-08
3.662e-05
-1.46317e-09
1.23235e-08
2.66093e-05
7.77859e-09
1.14336e-05
-2.27292e-09
5.50636e-06
-2.2475e-09
1.14741e-05
5.69288e-10
1.50893e-05
4.18039e-09
1.72302e-05
5.97181e-09
1.8233e-05
4.49129e-09
1.82209e-05
5.61094e-10
1.71931e-05
-2.89564e-09
1.50278e-05
-3.03748e-09
1.13989e-05
5.45264e-06
-3.21392e-09
8.17056e-09
5.5014e-06
-1.34792e-09
1.27033e-08
1.14601e-05
6.02431e-09
1.11133e-08
1.5071e-05
1.4812e-08
6.4759e-09
1.7215e-05
1.97377e-08
1.47434e-10
1.82279e-05
1.75421e-08
-7.20159e-09
1.82301e-05
9.16936e-09
-1.49253e-08
1.72162e-05
6.8625e-11
-2.1635e-08
1.50585e-05
-3.53742e-09
-2.42145e-08
1.14258e-05
-1.56101e-08
5.465e-06
8.46988e-10
1.85919e-08
1.15218e-05
1.63628e-08
3.1508e-08
2.67236e-05
4.50256e-08
2.91489e-08
3.66965e-05
7.43829e-08
1.80994e-08
4.28056e-05
9.03776e-08
1.96917e-09
4.5728e-05
8.4286e-08
-1.6974e-08
4.57381e-05
5.77584e-08
-3.63839e-08
4.28216e-05
2.43061e-08
-5.209e-08
3.66857e-05
2.61807e-09
-5.60674e-08
2.66644e-05
-3.37159e-08
1.14546e-05
7.0702e-09
2.69788e-08
1.53533e-05
3.84935e-08
4.81632e-08
3.7228e-05
8.8828e-08
4.65521e-08
5.223e-05
1.37716e-07
3.0635e-08
6.16402e-05
1.63669e-07
6.00409e-09
6.6192e-05
1.53505e-07
-2.32012e-08
6.62052e-05
1.09406e-07
-5.2545e-08
6.16594e-05
5.1645e-08
-7.50464e-08
5.2209e-05
1.02793e-08
-7.88992e-08
3.71374e-05
-4.56368e-08
1.52547e-05
1.22571e-08
3.13997e-08
1.79707e-05
5.71035e-08
5.84714e-08
4.4621e-05
1.25483e-07
5.86854e-08
6.34147e-05
1.90299e-07
4.07715e-08
7.54084e-05
2.23931e-07
1.14703e-08
8.12603e-05
2.09746e-07
-2.36252e-08
8.12697e-05
1.50703e-07
-5.84263e-08
7.54128e-05
7.29422e-08
-8.41334e-08
6.33606e-05
1.58978e-08
-8.72812e-08
4.44801e-05
-4.91811e-08
1.78328e-05
1.54993e-08
3.17681e-08
1.98107e-05
6.98596e-08
6.12912e-08
4.98783e-05
1.51477e-07
6.35692e-08
7.14625e-05
2.2799e-07
4.64055e-08
8.54024e-05
2.66982e-07
1.67263e-08
9.22458e-05
2.49274e-07
-1.92203e-08
9.22465e-05
1.78751e-07
-5.45864e-08
8.53789e-05
8.64079e-08
-8.00909e-08
7.13597e-05
1.88117e-08
-8.26296e-08
4.96757e-05
-4.57338e-08
1.96307e-05
1.70031e-08
2.8869e-08
2.1112e-05
7.71862e-08
5.73325e-08
5.36131e-05
1.67542e-07
6.11306e-08
7.7214e-05
2.5192e-07
4.65665e-08
9.25795e-05
2.94366e-07
1.99468e-08
0.000100154
2.73902e-07
-1.26788e-08
0.000100143
1.95321e-07
-4.46636e-08
9.25223e-05
9.33621e-08
-6.74292e-08
7.70575e-05
1.96533e-08
-6.96195e-08
5.33484e-05
-3.81e-08
2.08925e-05
1.73224e-08
2.35548e-08
2.20216e-05
8.05458e-08
4.78415e-08
5.62284e-05
1.76117e-07
5.21436e-08
8.12528e-05
2.65367e-07
4.10973e-08
9.7632e-05
3.09881e-07
1.98176e-08
0.000105728
2.87468e-07
-6.56697e-09
0.000105706
2.0368e-07
-3.24199e-08
9.75421e-05
9.59563e-08
-5.07261e-08
8.1046e-05
1.92729e-08
-5.26497e-08
5.5908e-05
-2.86353e-08
2.17686e-05
1.70316e-08
1.6569e-08
2.26348e-05
8.15317e-08
3.41964e-08
5.79921e-05
1.79901e-07
3.78687e-08
8.39802e-05
2.71923e-07
3.0592e-08
0.000101048
3.17587e-07
1.59332e-08
0.000109498
2.9392e-07
-2.42292e-09
0.000109467
2.0704e-07
-2.04284e-08
0.000100931
9.61845e-08
-3.31709e-08
8.37325e-05
1.84005e-08
-3.46793e-08
5.76277e-05
-1.88109e-08
2.23559e-05
1.65879e-08
8.53637e-09
2.30131e-05
8.14539e-08
1.7788e-08
5.90802e-05
1.81144e-07
1.98885e-08
8.56637e-05
2.74587e-07
1.63076e-08
0.000103158
3.20832e-07
8.8703e-09
0.000111827
2.96447e-07
-5.05625e-10
0.000111789
2.07912e-07
-9.71436e-09
0.000103022
9.55466e-08
-1.62384e-08
8.53874e-05
1.75569e-08
-1.70822e-08
5.86856e-05
-9.25886e-09
2.27169e-05
1.62926e-08
-2.375e-13
2.31935e-05
8.11963e-08
-2.75e-13
5.95991e-05
1.81382e-07
-4.5e-13
8.64668e-05
2.75406e-07
-4.625e-13
0.000104165
3.21889e-07
-3.875e-13
0.000112938
2.97184e-07
-2.86875e-13
0.000112897
2.07947e-07
-1.875e-13
0.000104018
9.49991e-08
-7.5e-14
8.61758e-05
1.7061e-08
3.75e-14
5.91893e-05
-5e-14
2.28886e-05
1.62927e-08
-8.53687e-09
2.31934e-05
8.11964e-08
-1.77885e-08
5.95991e-05
1.81382e-07
-1.98894e-08
8.64667e-05
2.75406e-07
-1.63086e-08
0.000104165
3.21889e-07
-8.8711e-09
0.000112938
2.97184e-07
5.05041e-10
0.000112897
2.07947e-07
9.71399e-09
0.000104018
9.49993e-08
1.62382e-08
8.61757e-05
1.7061e-08
1.70823e-08
5.91892e-05
9.25876e-09
2.28886e-05
1.6588e-08
-1.65696e-08
2.30131e-05
8.14541e-08
-3.41971e-08
5.90802e-05
1.81144e-07
-3.78699e-08
8.56637e-05
2.74587e-07
-3.05931e-08
0.000103158
3.20832e-07
-1.59341e-08
0.000111827
2.96447e-07
2.4223e-09
0.000111789
2.07912e-07
2.04279e-08
0.000103022
9.55467e-08
3.31707e-08
8.53874e-05
1.75569e-08
3.46794e-08
5.86856e-05
1.88108e-08
2.27169e-05
1.70319e-08
-2.35555e-08
2.26348e-05
8.15323e-08
-4.78426e-08
5.79921e-05
1.79902e-07
-5.2145e-08
8.39803e-05
2.71924e-07
-4.10986e-08
0.000101048
3.17588e-07
-1.98186e-08
0.000109498
2.9392e-07
6.5663e-09
0.000109467
2.0704e-07
3.24195e-08
0.000100931
9.61845e-08
5.0726e-08
8.37325e-05
1.84005e-08
5.26499e-08
5.76278e-05
2.86352e-08
2.23559e-05
1.73229e-08
-2.88701e-08
2.20216e-05
8.05466e-08
-5.73341e-08
5.62284e-05
1.76118e-07
-6.11325e-08
8.12528e-05
2.65369e-07
-4.65681e-08
9.7632e-05
3.09883e-07
-1.9948e-08
0.000105728
2.87468e-07
1.26781e-08
0.000105706
2.0368e-07
4.46634e-08
9.75421e-05
9.59564e-08
6.74292e-08
8.1046e-05
1.92729e-08
6.96195e-08
5.5908e-05
3.81e-08
2.17686e-05
1.70038e-08
-3.17701e-08
2.1112e-05
7.71877e-08
-6.12939e-08
5.36131e-05
1.67544e-07
-6.35719e-08
7.7214e-05
2.51923e-07
-4.64075e-08
9.25795e-05
2.94367e-07
-1.67276e-08
0.000100154
2.73902e-07
1.92196e-08
0.000100143
1.95321e-07
5.45861e-08
9.25222e-05
9.33625e-08
8.00909e-08
7.70575e-05
1.96534e-08
8.26297e-08
5.33484e-05
4.57338e-08
2.08925e-05
1.55006e-08
-3.14032e-08
1.98107e-05
6.98624e-08
-5.84756e-08
4.98783e-05
1.5148e-07
-5.86891e-08
7.14625e-05
2.27993e-07
-4.0774e-08
8.54024e-05
2.66984e-07
-1.14717e-08
9.22458e-05
2.49275e-07
2.36244e-08
9.22465e-05
1.78752e-07
5.8426e-08
8.53789e-05
8.64083e-08
8.41334e-08
7.13598e-05
1.88118e-08
8.72815e-08
4.96758e-05
4.91811e-08
1.96307e-05
1.22595e-08
-2.69846e-08
1.79707e-05
5.7108e-08
-4.817e-08
4.4621e-05
1.25488e-07
-4.65573e-08
6.34148e-05
1.90303e-07
-3.0638e-08
7.54084e-05
2.23934e-07
-6.00562e-09
8.12603e-05
2.09748e-07
2.32006e-08
8.12698e-05
1.50704e-07
5.25448e-08
7.54128e-05
7.29425e-08
7.50465e-08
6.33606e-05
1.58979e-08
7.88995e-08
4.44801e-05
4.56368e-08
1.78328e-05
7.07461e-09
-1.86003e-08
1.53533e-05
3.85006e-08
-3.15165e-08
3.7228e-05
8.88346e-08
-2.91545e-08
5.223e-05
1.37721e-07
-1.81023e-08
6.16402e-05
1.63672e-07
-1.97052e-09
6.6192e-05
1.53507e-07
1.69734e-08
6.62052e-05
1.09407e-07
3.63836e-08
6.16594e-05
5.16453e-08
5.20901e-08
5.2209e-05
1.02794e-08
5.60676e-08
3.71374e-05
3.37159e-08
1.52547e-05
8.54053e-10
-8.1772e-09
1.15218e-05
1.63728e-08
-1.27097e-08
2.67236e-05
4.50336e-08
-1.11168e-08
3.66965e-05
7.43878e-08
-6.47755e-09
4.28056e-05
9.03803e-08
-1.48099e-10
4.5728e-05
8.42873e-08
7.20136e-09
4.57381e-05
5.77589e-08
1.49251e-08
4.28216e-05
2.43063e-08
2.1635e-08
3.66858e-05
2.61811e-09
2.42147e-08
2.66644e-05
1.56101e-08
1.14546e-05
-3.20698e-09
5.50141e-06
-1.33904e-09
1.14601e-05
6.03047e-09
1.5071e-05
1.48155e-08
1.7215e-05
1.97395e-08
1.82279e-05
1.7543e-08
1.82301e-05
9.16976e-09
1.72162e-05
6.87875e-11
1.50585e-05
-3.53738e-09
1.14258e-05
5.465e-06
-1.99059e-09
1.39567e-08
5.48949e-06
6.90621e-09
2.116e-08
1.14307e-05
2.57299e-08
1.82746e-08
1.50341e-05
4.64325e-08
1.08009e-08
1.71835e-05
5.90385e-08
7.79285e-10
1.82143e-05
5.67099e-08
-1.09609e-08
1.82431e-05
3.95376e-08
-2.37028e-08
1.72569e-05
1.65835e-08
-3.55222e-08
1.51173e-05
6.65238e-10
-4.14623e-08
1.14823e-05
-2.79238e-08
5.49454e-06
9.14294e-09
3.11136e-08
1.14955e-05
4.8212e-08
5.17133e-08
2.66521e-05
1.10935e-07
4.75481e-08
3.66029e-05
1.73955e-07
3.01064e-08
4.27223e-05
2.11251e-07
4.95059e-09
4.56861e-05
2.04907e-07
-2.48491e-08
4.57589e-05
1.5392e-07
-5.62768e-08
4.29068e-05
8.02014e-08
-8.33394e-08
3.68106e-05
2.05016e-08
-9.30642e-08
2.67789e-05
-5.82995e-08
1.15054e-05
2.21975e-08
4.43099e-08
1.53194e-05
9.25356e-08
7.8099e-08
3.71292e-05
1.9683e-07
7.54094e-08
5.20966e-05
2.9774e-07
5.07909e-08
6.15179e-05
3.55958e-07
1.29119e-08
6.61255e-05
3.44748e-07
-3.23896e-08
6.62241e-05
2.62293e-07
-7.90736e-08
6.17655e-05
1.41223e-07
-1.16948e-07
5.23664e-05
3.94428e-08
-1.27063e-07
3.72767e-05
-7.61349e-08
1.53095e-05
3.26226e-08
5.09425e-08
1.79339e-05
1.28532e-07
9.40279e-08
4.45069e-05
2.6662e-07
9.45684e-08
6.32565e-05
3.9776e-07
6.73591e-08
7.52603e-05
4.71794e-07
2.28442e-08
8.11759e-05
4.55226e-07
-3.09417e-08
8.12847e-05
3.46309e-07
-8.55058e-08
7.55284e-05
1.87123e-07
-1.27971e-07
6.35331e-05
5.28749e-08
-1.37004e-07
4.46279e-05
-7.97456e-08
1.78851e-05
3.93559e-08
5.11209e-08
1.97741e-05
1.53493e-07
9.79849e-08
4.97574e-05
3.16394e-07
1.02023e-07
7.1291e-05
4.69735e-07
7.63841e-08
8.52396e-05
5.54884e-07
3.17735e-08
9.21514e-05
5.33359e-07
-2.27561e-08
9.22599e-05
4.04079e-07
-7.755e-08
8.55006e-05
2.17036e-07
-1.1907e-07
7.15406e-05
6.06177e-08
-1.26846e-07
4.98265e-05
-7.24639e-08
1.96792e-05
4.29485e-08
4.6199e-08
2.10771e-05
1.68703e-07
9.12715e-08
5.34909e-05
3.48355e-07
9.77965e-08
7.70372e-05
5.16909e-07
7.63723e-08
9.24104e-05
6.09451e-07
3.67211e-08
0.000100056
5.83946e-07
-1.23587e-08
0.000100158
4.40191e-07
-6.14549e-08
9.26505e-05
2.3434e-07
-9.81174e-08
7.72455e-05
6.42217e-08
-1.0483e-07
5.35015e-05
-5.9244e-08
2.09383e-05
4.43863e-08
3.7554e-08
2.19893e-05
1.76788e-07
7.59351e-08
5.61079e-05
3.66915e-07
8.3213e-08
8.10759e-05
5.45256e-07
6.71851e-08
9.74624e-05
6.4249e-07
3.57194e-08
0.000105631
6.14136e-07
-3.71566e-09
0.000105726
4.60808e-07
-4.31266e-08
9.76779e-05
2.4313e-07
-7.23831e-08
8.12413e-05
6.53094e-08
-7.79982e-08
5.60643e-05
-4.38661e-08
2.18131e-05
4.46195e-08
2.63524e-08
2.26048e-05
1.80398e-07
5.41679e-08
5.78746e-05
3.76584e-07
6.03245e-08
8.38055e-05
5.60824e-07
4.98846e-08
0.000100881
6.60889e-07
2.83261e-08
0.000109405
6.30695e-07
1.01665e-09
0.000109493
4.71483e-07
-2.63021e-08
0.000101074
2.46885e-07
-4.65651e-08
8.39347e-05
6.51555e-08
-5.07275e-08
5.77876e-05
-2.84988e-08
2.24003e-05
4.43815e-08
1.35583e-08
2.2985e-05
1.81643e-07
2.81436e-08
5.89655e-05
3.80999e-07
3.16475e-08
8.54916e-05
5.68479e-07
2.65491e-08
0.000102993
6.7012e-07
1.56476e-08
0.000111738
6.38874e-07
1.73685e-09
0.00011182
4.76384e-07
-1.21968e-08
0.000103171
2.48105e-07
-2.25421e-08
8.55951e-05
6.46283e-08
-2.47826e-08
5.88486e-05
-1.39308e-08
2.27614e-05
4.41478e-08
-2.125e-13
2.31664e-05
1.81923e-07
-2.125e-13
5.9486e-05
3.82603e-07
-3.875e-13
8.62964e-05
5.71498e-07
-4.125e-13
0.000104002
6.73838e-07
-3.5e-13
0.000112851
6.4212e-07
-2.55e-13
0.000112931
4.78188e-07
-1.625e-13
0.000104171
2.48345e-07
-5e-14
8.63866e-05
6.42459e-08
7.5e-14
5.9354e-05
-3.75e-14
2.29334e-05
4.41478e-08
-1.35587e-08
2.31664e-05
1.81923e-07
-2.8144e-08
5.9486e-05
3.82602e-07
-3.16483e-08
8.62964e-05
5.71497e-07
-2.65499e-08
0.000104002
6.73837e-07
-1.56483e-08
0.000112851
6.4212e-07
-1.73737e-09
0.000112931
4.78187e-07
1.21965e-08
0.000104171
2.48345e-07
2.2542e-08
8.63866e-05
6.4246e-08
2.47828e-08
5.9354e-05
1.39307e-08
2.29334e-05
4.43817e-08
-2.63529e-08
2.2985e-05
1.81645e-07
-5.41685e-08
5.89655e-05
3.81e-07
-6.03254e-08
8.54916e-05
5.6848e-07
-4.98855e-08
0.000102993
6.70121e-07
-2.83268e-08
0.000111738
6.38874e-07
-1.0172e-09
0.00011182
4.76384e-07
2.63017e-08
0.000103171
2.48105e-07
4.6565e-08
8.55951e-05
6.46285e-08
5.07278e-08
5.88486e-05
2.84987e-08
2.27614e-05
4.46197e-08
-3.75546e-08
2.26049e-05
1.804e-07
-7.59361e-08
5.78746e-05
3.76585e-07
-8.32142e-08
8.38055e-05
5.60824e-07
-6.71863e-08
0.000100881
6.60889e-07
-3.57203e-08
0.000109405
6.30695e-07
3.71508e-09
0.000109493
4.71483e-07
4.31261e-08
0.000101074
2.46885e-07
7.2383e-08
8.39348e-05
6.51555e-08
7.79985e-08
5.77876e-05
4.38661e-08
2.24003e-05
4.43866e-08
-4.61999e-08
2.19893e-05
1.76789e-07
-9.12729e-08
5.61079e-05
3.66918e-07
-9.77982e-08
8.10759e-05
5.45259e-07
-7.63738e-08
9.74624e-05
6.42491e-07
-3.67223e-08
0.000105631
6.14138e-07
1.23581e-08
0.000105726
4.60809e-07
6.14545e-08
9.76779e-05
2.4313e-07
9.81172e-08
8.12413e-05
6.53095e-08
1.0483e-07
5.60643e-05
5.9244e-08
2.18131e-05
4.29491e-08
-5.11224e-08
2.10771e-05
1.68704e-07
-9.79869e-08
5.34909e-05
3.48357e-07
-1.02026e-07
7.70372e-05
5.16911e-07
-7.6386e-08
9.24104e-05
6.09452e-07
-3.17748e-08
0.000100056
5.83947e-07
2.27554e-08
0.000100158
4.40192e-07
7.75496e-08
9.26505e-05
2.3434e-07
1.1907e-07
7.72455e-05
6.42219e-08
1.26846e-07
5.35015e-05
7.24639e-08
2.09383e-05
3.9357e-08
-5.0945e-08
1.97741e-05
1.53496e-07
-9.40311e-08
4.97574e-05
3.16397e-07
-9.45715e-08
7.1291e-05
4.69738e-07
-6.73613e-08
8.52396e-05
5.54886e-07
-2.28455e-08
9.21514e-05
5.3336e-07
3.0941e-08
9.22599e-05
4.04079e-07
8.55054e-08
8.55006e-05
2.17036e-07
1.27971e-07
7.15406e-05
6.06179e-08
1.37004e-07
4.98265e-05
7.97456e-08
1.96792e-05
3.26244e-08
-4.43135e-08
1.79339e-05
1.28535e-07
-7.81039e-08
4.45069e-05
2.66624e-07
-7.54133e-08
6.32565e-05
3.97763e-07
-5.07931e-08
7.52603e-05
4.71796e-07
-1.29131e-08
8.11759e-05
4.55228e-07
3.2389e-08
8.12848e-05
3.46309e-07
7.90735e-08
7.55284e-05
1.87124e-07
1.16948e-07
6.35331e-05
5.28751e-08
1.27063e-07
4.46279e-05
7.61349e-08
1.78851e-05
2.22005e-08
-3.11181e-08
1.53194e-05
9.25409e-08
-5.17191e-08
3.71292e-05
1.96835e-07
-4.7552e-08
5.20966e-05
2.97744e-07
-3.01083e-08
6.15179e-05
3.5596e-07
-4.95149e-09
6.61255e-05
3.44749e-07
2.48487e-08
6.62241e-05
2.62293e-07
5.62769e-08
6.17655e-05
1.41224e-07
8.33394e-08
5.23664e-05
3.94429e-08
9.30645e-08
3.72767e-05
5.82995e-08
1.53095e-05
9.14752e-09
-1.39599e-08
1.14955e-05
4.82191e-08
-2.11639e-08
2.66521e-05
1.10941e-07
-1.82769e-08
3.66029e-05
1.73959e-07
-1.08019e-08
4.27223e-05
2.11254e-07
-7.79648e-10
4.56861e-05
2.04908e-07
1.09609e-08
4.57589e-05
1.5392e-07
2.37029e-08
4.29068e-05
8.02016e-08
3.55222e-08
3.68106e-05
2.05016e-08
4.14625e-08
2.67789e-05
2.79237e-08
1.15054e-05
-1.98713e-09
5.48949e-06
6.91116e-09
1.14307e-05
2.57339e-08
1.50342e-05
4.6435e-08
1.71835e-05
5.90399e-08
1.82143e-05
5.67106e-08
1.82431e-05
3.9538e-08
1.72569e-05
1.65837e-08
1.51173e-05
6.65262e-10
1.14824e-05
5.49454e-06
2.80224e-09
2.24951e-08
5.46433e-06
2.70266e-08
3.32985e-08
1.1374e-05
6.84576e-08
2.84915e-08
1.49643e-05
1.12537e-07
1.73496e-08
1.71221e-05
1.41615e-07
2.70473e-09
1.81823e-05
1.42203e-07
-1.46548e-08
1.82568e-05
1.1098e-07
-3.42956e-08
1.73222e-05
6.09535e-08
-5.40226e-08
1.52228e-05
1.57905e-08
-6.66847e-08
1.15941e-05
-4.72407e-08
5.56031e-06
2.78998e-08
4.91419e-08
1.14419e-05
1.12588e-07
8.01738e-08
2.65173e-05
2.38211e-07
7.3585e-08
3.64296e-05
3.6411e-07
4.83012e-08
4.25639e-05
4.45075e-07
1.22983e-08
4.55948e-05
4.46366e-07
-3.08583e-08
4.57741e-05
3.57744e-07
-7.81386e-08
4.3041e-05
2.09641e-07
-1.22148e-07
3.70325e-05
6.79659e-08
-1.43693e-07
2.70036e-05
-9.48175e-08
1.16196e-05
5.30488e-08
6.86484e-08
1.52499e-05
1.9518e-07
1.196e-07
3.69437e-05
3.95955e-07
1.15958e-07
5.18514e-05
5.91575e-07
8.12879e-08
6.12882e-05
7.14485e-07
2.81195e-08
6.59861e-05
7.13369e-07
-3.62492e-08
6.62306e-05
5.72844e-07
-1.04895e-07
6.19335e-05
3.38019e-07
-1.64807e-07
5.26492e-05
1.11317e-07
-1.88177e-07
3.75555e-05
-1.18324e-07
1.544e-05
7.24987e-08
7.79353e-08
1.78569e-05
2.60377e-07
1.42802e-07
4.42914e-05
5.20944e-07
1.44738e-07
6.29654e-05
7.71109e-07
1.07458e-07
7.49833e-05
9.25235e-07
4.60534e-08
8.10031e-05
9.19409e-07
-2.91241e-08
8.1283e-05
7.35561e-07
-1.07851e-07
7.57151e-05
4.32214e-07
-1.73564e-07
6.38501e-05
1.41519e-07
-1.95488e-07
4.49341e-05
-1.19291e-07
1.80204e-05
8.53714e-08
7.75678e-08
1.96946e-05
3.06015e-07
1.4797e-07
4.95261e-05
6.1051e-07
1.55591e-07
7.09735e-05
9.00735e-07
1.214e-07
8.49349e-05
1.07696e-06
6.08199e-08
9.19598e-05
1.06596e-06
-1.43292e-08
9.22557e-05
8.48691e-07
-9.21794e-08
8.57024e-05
4.95164e-07
-1.55367e-07
7.18819e-05
1.60214e-07
-1.74916e-07
5.01509e-05
-1.0492e-07
1.9817e-05
9.28932e-08
6.97236e-08
2.09981e-05
3.35114e-07
1.37296e-07
5.32532e-05
6.6985e-07
1.48731e-07
7.6707e-05
9.87989e-07
1.20913e-07
9.2092e-05
1.17931e-06
6.7802e-08
9.9857e-05