/*--------------------------------*- C++ -*----------------------------------*\
  =========                 |
  \\      /  F ield         | OpenFOAM: The Open Source CFD Toolbox
   \\    /   O peration     | Website:  https://openfoam.org
    \\  /    A nd           | Version:  6
     \\/     M anipulation  |
\*---------------------------------------------------------------------------*/
FoamFile
{
    version     2.0;
    format      ascii;
    class       surfaceScalarField;
    location    "0.07";
    object      phi;
}
// * * * * * * * * * * * * * * * * * * * * * * * * * * * * * * * * * * * * * //

dimensions      [0 3 -1 0 0 0 0];

internalField   nonuniform List<scalar> 
205200
(
1.9426e-09
1.92464e-09
1.40154e-06
7.44382e-09
2.43944e-09
3.09024e-06
1.63175e-08
1.8314e-09
4.28136e-06
2.81372e-08
1.1137e-09
5.18985e-06
4.25531e-08
5.10108e-10
5.91154e-06
5.94699e-08
9.51983e-11
6.49887e-06
7.89836e-08
-1.08137e-10
6.98446e-06
1.0137e-07
-8.53447e-11
7.39014e-06
1.27078e-07
1.89443e-10
7.73089e-06
1.56721e-07
7.62151e-10
8.01673e-06
1.91052e-07
1.7037e-09
8.25356e-06
2.30885e-07
3.111e-09
8.44331e-06
2.76858e-07
5.09685e-09
8.58316e-06
3.28848e-07
7.74799e-09
8.66383e-06
3.84594e-07
1.09999e-08
8.66572e-06
4.36567e-07
1.43218e-08
8.55145e-06
4.65006e-07
1.60743e-08
8.24955e-06
4.27729e-07
1.24508e-08
7.61646e-06
2.74201e-07
-1.4085e-09
6.33226e-06
-4.52646e-09
3.56425e-06
6.56177e-09
3.80164e-09
3.09688e-06
2.21296e-08
5.3015e-09
7.56335e-06
4.59414e-08
4.29617e-09
1.09364e-05
7.68435e-08
2.76995e-09
1.35748e-05
1.14093e-07
1.38217e-09
1.56884e-05
1.5754e-07
4.02987e-10
1.7409e-05
2.07449e-07
-4.42486e-11
1.88241e-05
2.64488e-07
1.2373e-10
1.99932e-05
3.29706e-07
1.0051e-09
2.09572e-05
4.0451e-07
2.74222e-09
2.17424e-05
4.90584e-07
5.53939e-09
2.23625e-05
5.89661e-07
9.67079e-09
2.28183e-05
7.02919e-07
1.54667e-08
2.30953e-05
8.29488e-07
2.32403e-08
2.31584e-05
9.63019e-07
3.30605e-08
2.29401e-05
1.08378e-06
4.41935e-08
2.232e-05
1.14143e-06
5.39448e-08
2.1083e-05
1.03436e-06
5.53242e-08
1.88336e-05
6.51894e-07
3.49596e-08
1.48064e-05
1.26925e-09
7.42456e-06
1.04841e-08
4.76491e-09
4.29546e-06
3.45939e-08
7.14145e-09
1.09426e-05
7.06675e-08
6.14141e-09
1.61683e-05
1.16823e-07
4.16053e-09
2.0345e-05
1.71996e-07
2.22465e-09
2.37275e-05
2.36015e-07
8.38034e-10
2.64926e-05
3.09291e-07
2.73481e-10
2.8765e-05
3.9278e-07
7.23597e-10
3.0632e-05
4.87955e-07
2.3878e-09
3.21542e-05
5.96761e-07
5.52319e-09
3.33701e-05
7.21474e-07
1.04758e-08
3.42977e-05
8.64336e-07
1.76952e-08
3.49341e-05
1.02664e-06
2.77165e-08
3.52511e-05
1.20654e-06
4.10641e-08
3.51864e-05
1.39403e-06
5.79647e-08
3.46279e-05
1.55969e-06
7.76478e-08
3.33824e-05
1.63066e-06
9.68793e-08
3.11229e-05
1.46396e-06
1.07054e-07
2.72832e-05
9.10144e-07
9.06049e-08
2.08555e-05
3.84654e-08
9.96551e-06
1.35e-08
4.91898e-09
5.2035e-06
4.43377e-08
7.76706e-09
1.35638e-05
9.00939e-08
6.97598e-09
2.0313e-05
1.48202e-07
4.9095e-09
2.58011e-05
2.17266e-07
2.7727e-09
3.02919e-05
2.97072e-07
1.24059e-09
3.39824e-05
3.88135e-07
7.21059e-10
3.70178e-05
4.91634e-07
1.51471e-09
3.9504e-05
6.09369e-07
3.9168e-09
4.15147e-05
7.43679e-07
8.28123e-09
4.30965e-05
8.97257e-07
1.506e-08
4.4269e-05
1.07267e-06
2.48198e-08
4.50244e-05
1.2712e-06
3.82171e-08
4.53213e-05
1.49004e-06
5.58841e-08
4.5074e-05
1.71623e-06
7.8105e-08
4.41332e-05
1.91296e-06
1.04047e-07
4.22511e-05
1.991e-06
1.30132e-07
3.90228e-05
1.77825e-06
1.46762e-07
3.3779e-05
1.09891e-06
1.33434e-07
2.53845e-05
6.75441e-08
1.18256e-05
1.56868e-08
4.49855e-09
5.9082e-06
5.15812e-08
7.3831e-09
1.56158e-05
1.04721e-07
6.84942e-09
2.3594e-05
1.71961e-07
4.96645e-09
3.0167e-05
2.51595e-07
2.9338e-09
3.5593e-05
3.43341e-07
1.49401e-09
4.00742e-05
4.47781e-07
1.13394e-09
4.37664e-05
5.66273e-07
2.22617e-09
4.67852e-05
7.00878e-07
5.12796e-09
4.92125e-05
8.54254e-07
1.02471e-08
5.10988e-05
1.02942e-06
1.80824e-08
5.24642e-05
1.2292e-06
2.92371e-08
5.3296e-05
1.45483e-06
4.43866e-08
5.35414e-05
1.70277e-06
6.41531e-08
5.30959e-05
1.95779e-06
8.87696e-08
5.17822e-05
2.1775e-06
1.17306e-07
4.93145e-05
2.26064e-06
1.46033e-07
4.52375e-05
2.01367e-06
1.65095e-07
3.88207e-05
1.24103e-06
1.53133e-07
2.88574e-05
8.10025e-08
1.32466e-05
1.7211e-08
3.75177e-09
6.45451e-06
5.67614e-08
6.33766e-09
1.72119e-05
1.15342e-07
6.02374e-09
2.61617e-05
1.89363e-07
4.47046e-09
3.36066e-05
2.76855e-07
2.74021e-09
3.97952e-05
3.77457e-07
1.54281e-09
4.49287e-05
4.91799e-07
1.37311e-09
4.91659e-05
6.21376e-07
2.6216e-09
5.26269e-05
7.68466e-07
5.6586e-09
5.53979e-05
9.35994e-07
1.08928e-08
5.75313e-05
1.12726e-06
1.88067e-08
5.90466e-05
1.34529e-06
2.9965e-08
5.9926e-05
1.59132e-06
4.4978e-08
6.01083e-05
1.86128e-06
6.43755e-08
5.94748e-05
2.13822e-06
8.82899e-08
5.78289e-05
2.37564e-06
1.15744e-07
5.48586e-05
2.46324e-06
1.43157e-07
5.00775e-05
2.19132e-06
1.61314e-07
4.27177e-05
1.34884e-06
1.50289e-07
3.15281e-05
8.05471e-08
1.4341e-05
1.82343e-08
2.85235e-09
6.86883e-06
6.03276e-08
4.92113e-09
1.8424e-05
1.22769e-07
4.76091e-09
2.81184e-05
2.01653e-07
3.59596e-09
3.62385e-05
2.94804e-07
2.27002e-09
4.30239e-05
4.01795e-07
1.37984e-09
4.8672e-05
5.23281e-07
1.36064e-09
5.33413e-05
6.60873e-07
2.56401e-09
5.71539e-05
8.1702e-07
5.32166e-09
6.01968e-05
9.94864e-07
9.99131e-09
6.25234e-05
1.19794e-06
1.6984e-08
6.41516e-05
1.42945e-06
2.67673e-08
6.50603e-05
1.69066e-06
3.98303e-08
6.5181e-05
1.97714e-06
5.65713e-08
6.43859e-05
2.27068e-06
7.70306e-08
6.24645e-05
2.52173e-06
1.00301e-07
5.90889e-05
2.61331e-06
1.23305e-07
5.37529e-05
2.32356e-06
1.38323e-07
4.56651e-05
1.42949e-06
1.28798e-07
3.35444e-05
6.92653e-08
1.51695e-05
1.88892e-08
1.90198e-09
7.16772e-06
6.2664e-08
3.32954e-09
1.92989e-05
1.27707e-07
3.26052e-09
2.95334e-05
2.09901e-07
2.49348e-09
3.81466e-05
3.06931e-07
1.60855e-09
4.5371e-05
4.18315e-07
1.0326e-09
5.13999e-05
5.44729e-07
1.08675e-09
5.63904e-05
6.87864e-07
2.03476e-09
6.04644e-05
8.50304e-07
4.12485e-09
6.37091e-05
1.03536e-06
7.62073e-09
6.61779e-05
1.24674e-06
1.28195e-08
6.78872e-05
1.48782e-06
2.00521e-08
6.8813e-05
1.75988e-06
2.96551e-08
6.88824e-05
2.05824e-06
4.18879e-08
6.79608e-05
2.36383e-06
5.67389e-08
6.58296e-05
2.62495e-06
7.3507e-08
6.21505e-05
2.71982e-06
8.99404e-08
5.64053e-05
2.41782e-06
1.00504e-07
4.77876e-05
1.48718e-06
9.34191e-08
3.49955e-05
5.02504e-08
1.57672e-05
1.92734e-08
9.47579e-10
7.36177e-06
6.40615e-08
1.67304e-09
1.98671e-05
1.30697e-07
1.65007e-09
3.04531e-05
2.14939e-07
1.27131e-09
3.9389e-05
3.1438e-07
8.31145e-10
4.69016e-05
4.28505e-07
5.51359e-10
5.31816e-05
5.58005e-07
6.01833e-10
5.83845e-05
7.04624e-07
1.12346e-09
6.26314e-05
8.71037e-07
2.24873e-09
6.60097e-05
1.06067e-06
4.11717e-09
6.85719e-05
1.27737e-06
6.88415e-09
7.03335e-05
1.5246e-06
1.07204e-08
7.12686e-05
1.80367e-06
1.57966e-08
7.13016e-05
2.10975e-06
2.2239e-08
7.02938e-05
2.42323e-06
3.00282e-08
6.8022e-05
2.691e-06
3.87824e-08
6.41415e-05
2.78821e-06
4.73134e-08
5.81271e-05
2.47853e-06
5.27374e-08
4.91641e-05
1.52445e-06
4.89485e-08
3.59366e-05
2.63164e-08
1.61556e-05
1.94499e-08
-1.125e-14
7.45731e-06
6.47126e-08
-2.75e-14
2.01468e-05
1.32101e-07
-3.625e-14
3.09063e-05
2.17318e-07
-3.875e-14
4.00015e-05
3.17914e-07
-3.75e-14
4.76568e-05
4.33355e-07
-3.5e-14
5.40614e-05
5.64339e-07
-3.125e-14
5.937e-05
7.12639e-07
-2.375e-14
6.3703e-05
8.80976e-07
-1.625e-14
6.71478e-05
1.07284e-06
-6.25e-15
6.97563e-05
1.29213e-06
5.42101e-24
7.15435e-05
1.54236e-06
1.25e-14
7.24826e-05
1.82488e-06
2.5e-14
7.2497e-05
2.13478e-06
3.75e-14
7.14456e-05
2.45216e-06
5e-14
6.91031e-05
2.72325e-06
5e-14
6.51224e-05
2.82169e-06
5e-14
5.89748e-05
2.50831e-06
1.25e-13
4.98416e-05
1.54274e-06
3.79471e-23
3.63999e-05
0
1.6347e-05
1.94499e-08
-9.47602e-10
7.45731e-06
6.47126e-08
-1.67311e-09
2.01468e-05
1.32101e-07
-1.65015e-09
3.09062e-05
2.17318e-07
-1.27139e-09
4.00015e-05
3.17914e-07
-8.31219e-10
4.76567e-05
4.33355e-07
-5.51429e-10
5.40614e-05
5.64339e-07
-6.01894e-10
5.937e-05
7.12639e-07
-1.12351e-09
6.3703e-05
8.80976e-07
-2.24876e-09
6.71477e-05
1.07284e-06
-4.11719e-09
6.97563e-05
1.29213e-06
-6.88415e-09
7.15435e-05
1.54236e-06
-1.07204e-08
7.24826e-05
1.82488e-06
-1.57966e-08
7.2497e-05
2.13478e-06
-2.2239e-08
7.14456e-05
2.45216e-06
-3.00281e-08
6.91031e-05
2.72325e-06
-3.87823e-08
6.51224e-05
2.82169e-06
-4.73133e-08
5.89748e-05
2.50831e-06
-5.27372e-08
4.98416e-05
1.54274e-06
-4.89485e-08
3.63999e-05
-2.63164e-08
1.6347e-05
1.92734e-08
-1.90201e-09
7.36177e-06
6.40615e-08
-3.3296e-09
1.98671e-05
1.30697e-07
-3.26059e-09
3.04531e-05
2.14939e-07
-2.49356e-09
3.9389e-05
3.1438e-07
-1.60862e-09
4.69016e-05
4.28505e-07
-1.03266e-09
5.31816e-05
5.58004e-07
-1.08681e-09
5.83845e-05
7.04622e-07
-2.03481e-09
6.26314e-05
8.71037e-07
-4.12489e-09
6.60097e-05
1.06067e-06
-7.62075e-09
6.85719e-05
1.27737e-06
-1.28195e-08
7.03335e-05
1.5246e-06
-2.0052e-08
7.12686e-05
1.80367e-06
-2.96551e-08
7.13016e-05
2.10975e-06
-4.18879e-08
7.02938e-05
2.42323e-06
-5.67387e-08
6.8022e-05
2.691e-06
-7.35069e-08
6.41415e-05
2.78821e-06
-8.99403e-08
5.81271e-05
2.47853e-06
-1.00504e-07
4.91641e-05
1.52445e-06
-9.34191e-08
3.59366e-05
-5.02504e-08
1.61556e-05
1.88892e-08
-2.85237e-09
7.16773e-06
6.2664e-08
-4.92119e-09
1.92989e-05
1.27707e-07
-4.76099e-09
2.95334e-05
2.09902e-07
-3.59604e-09
3.81466e-05
3.06931e-07
-2.27009e-09
4.5371e-05
4.18315e-07
-1.3799e-09
5.13999e-05
5.44729e-07
-1.36069e-09
5.63904e-05
6.87864e-07
-2.56406e-09
6.04644e-05
8.50304e-07
-5.3217e-09
6.37091e-05
1.03536e-06
-9.99134e-09
6.61779e-05
1.24675e-06
-1.6984e-08
6.78873e-05
1.48783e-06
-2.67673e-08
6.8813e-05
1.75988e-06
-3.98303e-08
6.88824e-05
2.05824e-06
-5.65713e-08
6.79608e-05
2.36383e-06
-7.70305e-08
6.58296e-05
2.62495e-06
-1.00301e-07
6.21505e-05
2.71983e-06
-1.23305e-07
5.64053e-05
2.41782e-06
-1.38323e-07
4.77876e-05
1.48718e-06
-1.28798e-07
3.49955e-05
-6.92653e-08
1.57672e-05
1.82344e-08
-3.75181e-09
6.86883e-06
6.03278e-08
-6.33774e-09
1.8424e-05
1.22769e-07
-6.02382e-09
2.81184e-05
2.01653e-07
-4.47054e-09
3.62385e-05
2.94804e-07
-2.74029e-09
4.30239e-05
4.01795e-07
-1.54286e-09
4.8672e-05
5.23281e-07
-1.37315e-09
5.33413e-05
6.60871e-07
-2.62165e-09
5.71539e-05
8.17019e-07
-5.65862e-09
6.01968e-05
9.94864e-07
-1.08928e-08
6.25234e-05
1.19794e-06
-1.88067e-08
6.41516e-05
1.42945e-06
-2.9965e-08
6.50603e-05
1.69066e-06
-4.4978e-08
6.5181e-05
1.97714e-06
-6.43755e-08
6.43859e-05
2.27068e-06
-8.82899e-08
6.24645e-05
2.52173e-06
-1.15744e-07
5.90889e-05
2.61331e-06
-1.43157e-07
5.37529e-05
2.32356e-06
-1.61314e-07
4.56651e-05
1.42949e-06
-1.50289e-07
3.35444e-05
-8.05471e-08
1.51695e-05
1.72111e-08
-4.49861e-09
6.45451e-06
5.67615e-08
-7.3832e-09
1.72119e-05
1.15342e-07
-6.84952e-09
2.61617e-05
1.89363e-07
-4.96653e-09
3.36066e-05
2.76855e-07
-2.93386e-09
3.97952e-05
3.77457e-07
-1.49405e-09
4.49287e-05
4.91799e-07
-1.13398e-09
4.91659e-05
6.21376e-07
-2.22621e-09
5.26269e-05
7.68466e-07
-5.12799e-09
5.53979e-05
9.35994e-07
-1.02471e-08
5.75312e-05
1.12726e-06
-1.80824e-08
5.90466e-05
1.34529e-06
-2.92371e-08
5.9926e-05
1.59132e-06
-4.43866e-08
6.01082e-05
1.86128e-06
-6.41531e-08
5.94747e-05
2.13822e-06
-8.87696e-08
5.78289e-05
2.37564e-06
-1.17306e-07
5.48586e-05
2.46324e-06
-1.46033e-07
5.00775e-05
2.19132e-06
-1.65095e-07
4.27177e-05
1.34884e-06
-1.53133e-07
3.15281e-05
-8.10025e-08
1.4341e-05
1.56868e-08
-4.91909e-09
5.9082e-06
5.15813e-08
-7.76725e-09
1.56158e-05
1.04721e-07
-6.97611e-09
2.3594e-05
1.71961e-07
-4.90959e-09
3.0167e-05
2.51595e-07
-2.77275e-09
3.5593e-05
3.43341e-07
-1.24063e-09
4.00743e-05
4.47781e-07
-7.21091e-10
4.37664e-05
5.66273e-07
-1.51474e-09
4.67853e-05
7.00878e-07
-3.91682e-09
4.92125e-05
8.54254e-07
-8.28125e-09
5.10988e-05
1.02942e-06
-1.50601e-08
5.24643e-05
1.2292e-06
-2.48198e-08
5.3296e-05
1.45483e-06
-3.82171e-08
5.35414e-05
1.70278e-06
-5.58841e-08
5.30959e-05
1.95779e-06
-7.8105e-08
5.17822e-05
2.1775e-06
-1.04047e-07
4.93145e-05
2.26064e-06
-1.30132e-07
4.52375e-05
2.01367e-06
-1.46762e-07
3.88207e-05
1.24103e-06
-1.33434e-07
2.88574e-05
-6.75441e-08
1.32466e-05
1.35e-08
-4.76519e-09
5.2035e-06
4.43379e-08
-7.14181e-09
1.35638e-05
9.0094e-08
-6.14161e-09
2.0313e-05
1.48202e-07
-4.16063e-09
2.58011e-05
2.17266e-07
-2.2247e-09
3.02919e-05
2.97073e-07
-8.38069e-10
3.39824e-05
3.88135e-07
-2.73508e-10
3.70178e-05
4.91634e-07
-7.23619e-10
3.9504e-05
6.09369e-07
-2.38782e-09
4.15148e-05
7.43679e-07
-5.52321e-09
4.30965e-05
8.97258e-07
-1.04759e-08
4.4269e-05
1.07267e-06
-1.76952e-08
4.50244e-05
1.2712e-06
-2.77165e-08
4.53213e-05
1.49004e-06
-4.10641e-08
4.5074e-05
1.71623e-06
-5.79647e-08
4.41332e-05
1.91296e-06
-7.76478e-08
4.22511e-05
1.991e-06
-9.68793e-08
3.90228e-05
1.77825e-06
-1.07054e-07
3.3779e-05
1.09891e-06
-9.06049e-08
2.53845e-05
-3.84654e-08
1.18256e-05
1.04843e-08
-3.80272e-09
4.29546e-06
3.45941e-08
-5.30231e-09
1.09426e-05
7.06676e-08
-4.29645e-09
1.61683e-05
1.16824e-07
-2.77003e-09
2.0345e-05
1.71996e-07
-1.38221e-09
2.37275e-05
2.36015e-07
-4.03011e-10
2.64926e-05
3.09291e-07
4.42308e-11
2.8765e-05
3.9278e-07
-1.23745e-10
3.0632e-05
4.87955e-07
-1.00511e-09
3.21542e-05
5.96761e-07
-2.74224e-09
3.33701e-05
7.21474e-07
-5.53939e-09
3.42977e-05
8.64336e-07
-9.67079e-09
3.49341e-05
1.02664e-06
-1.54667e-08
3.52511e-05
1.20654e-06
-2.32403e-08
3.51864e-05
1.39403e-06
-3.30605e-08
3.46279e-05
1.55969e-06
-4.41935e-08
3.33824e-05
1.63066e-06
-5.39447e-08
3.11229e-05
1.46396e-06
-5.53242e-08
2.72832e-05
9.10144e-07
-3.49596e-08
2.08555e-05
-1.26926e-09
9.96551e-06
6.56254e-09
-1.92609e-09
3.09688e-06
2.21304e-08
-2.44021e-09
7.56335e-06
4.59418e-08
-1.83159e-09
1.09364e-05
7.68438e-08
-1.11375e-09
1.35748e-05
1.14093e-07
-5.10129e-10
1.56884e-05
1.5754e-07
-9.52083e-11
1.7409e-05
2.0745e-07
1.0813e-10
1.88241e-05
2.64488e-07
8.53402e-11
1.99932e-05
3.29706e-07
-1.89446e-10
2.09572e-05
4.0451e-07
-7.62155e-10
2.17424e-05
4.90584e-07
-1.7037e-09
2.23625e-05
5.89661e-07
-3.11099e-09
2.28183e-05
7.02919e-07
-5.09684e-09
2.30953e-05
8.29488e-07
-7.748e-09
2.31584e-05
9.63019e-07
-1.09999e-08
2.29401e-05
1.08378e-06
-1.43218e-08
2.232e-05
1.14143e-06
-1.60743e-08
2.1083e-05
1.03436e-06
-1.24508e-08
1.88336e-05
6.51894e-07
1.40849e-09
1.48064e-05
4.52645e-09
7.42456e-06
1.94405e-09
1.40154e-06
7.44491e-09
3.09024e-06
1.63177e-08
4.28136e-06
2.81373e-08
5.18985e-06
4.25531e-08
5.91154e-06
5.947e-08
6.49888e-06
7.89838e-08
6.98446e-06
1.0137e-07
7.39015e-06
1.27078e-07
7.73089e-06
1.56721e-07
8.01673e-06
1.91052e-07
8.25356e-06
2.30885e-07
8.44331e-06
2.76858e-07
8.58316e-06
3.28848e-07
8.66383e-06
3.84595e-07
8.66572e-06
4.36569e-07
8.55145e-06
4.65006e-07
8.24955e-06
4.27729e-07
7.61646e-06
2.74201e-07
6.33226e-06
3.56425e-06
5.08186e-09
6.42252e-09
1.39026e-06
2.01433e-08
8.8809e-09
3.06645e-06
4.48887e-08
7.60664e-09
4.24914e-06
7.82944e-08
5.73577e-09
5.15096e-06
1.19423e-07
4.02236e-09
5.86661e-06
1.68e-07
2.71748e-09
6.44776e-06
2.2428e-07
1.88019e-09
6.92648e-06
2.89036e-07
1.5176e-09
7.32406e-06
3.63562e-07
1.65002e-09
7.65495e-06
4.49671e-07
2.34118e-09
7.92859e-06
5.49674e-07
3.7178e-09
8.15026e-06
6.66277e-07
5.98548e-09
8.32125e-06
8.02221e-07
9.43542e-09
8.4383e-06
9.59271e-07
1.4414e-08
8.49245e-06
1.13581e-06
2.1179e-08
8.46645e-06
1.32091e-06
2.94673e-08
8.33029e-06
1.47863e-06
3.7582e-08
8.03143e-06
1.50586e-06
4.08229e-08
7.47104e-06
1.25938e-06
3.87328e-08
6.43305e-06
8.91183e-08
4.3236e-06
1.81657e-08
1.33853e-08
3.07276e-06
6.22781e-08
2.04301e-08
7.50674e-06
1.30715e-07
1.88974e-08
1.08562e-05
2.20464e-07
1.50759e-08
1.34755e-05
3.29498e-07
1.11386e-08
1.55721e-05
4.57372e-07
7.95875e-09
1.72758e-05
6.04793e-07
5.87284e-09
1.86727e-05
7.73594e-07
5.02704e-09
1.98209e-05
9.66734e-07
5.55836e-09
2.07602e-05
1.18825e-06
7.69343e-09
2.15156e-05
1.44311e-06
1.18152e-08
2.20996e-05
1.73683e-06
1.85189e-08
2.25119e-05
2.07429e-06
2.86537e-08
2.2738e-05
2.45694e-06
4.33029e-08
2.27449e-05
2.87619e-06
6.35785e-08
2.24732e-05
3.29769e-06
8.99679e-08
2.18238e-05
3.62216e-06
1.20923e-07
2.06319e-05
3.60009e-06
1.49421e-07
1.86137e-05
2.91869e-06
1.58323e-07
1.52422e-05
1.52655e-07
9.37716e-06
2.99569e-08
1.78907e-08
4.26262e-06
1.00097e-07
2.93534e-08
1.08622e-05
2.06323e-07
2.87969e-08
1.60518e-05
3.43482e-07
2.40747e-08
2.01989e-05
5.08584e-07
1.8571e-08
2.3555e-05
7.0108e-07
1.3886e-08
2.62942e-05
9.22011e-07
1.07723e-08
2.85391e-05
1.17394e-06
9.63087e-09
3.03755e-05
1.46089e-06
1.07996e-08
3.18622e-05
1.78825e-06
1.47258e-08
3.30359e-05
2.16245e-06
2.20859e-08
3.39134e-05
2.59026e-06
3.38837e-08
3.44909e-05
3.07689e-06
5.15201e-08
3.47411e-05
3.62161e-06
7.67815e-08
3.46064e-05
4.20795e-06
1.11584e-07
3.39879e-05
4.78085e-06
1.5713e-07
3.2726e-05
5.19223e-06
2.11905e-07
3.05674e-05
5.08859e-06
2.6672e-07
2.71034e-05
4.05101e-06
2.94318e-07
2.16409e-05
2.4784e-07
1.28278e-05
3.96652e-08
1.97209e-08
5.16421e-06
1.31589e-07
3.4077e-08
1.34655e-05
2.69419e-07
3.4908e-08
2.01686e-05
4.45894e-07
3.02648e-08
2.56186e-05
6.56966e-07
2.4165e-08
3.00753e-05
9.0187e-07
1.87388e-08
3.37326e-05
1.18183e-06
1.51168e-08
3.67336e-05
1.49987e-06
1.39677e-08
3.91817e-05
1.86073e-06
1.58419e-08
4.1149e-05
2.27061e-06
2.13935e-08
4.26801e-05
2.73677e-06
3.15384e-08
4.37936e-05
3.26647e-06
4.75771e-08
4.4481e-05
3.86452e-06
7.12746e-08
4.4703e-05
4.52768e-06
1.04834e-07
4.43809e-05
5.23243e-06
1.50575e-07
4.33834e-05
5.90741e-06
2.0992e-07
4.15053e-05
6.3689e-06
2.80894e-07
3.84324e-05
6.19038e-06
3.5195e-07
3.36822e-05
4.88046e-06
3.87684e-07
2.64811e-05
3.07599e-07
1.5384e-05
4.72693e-08
1.92377e-08
5.86399e-06
1.5671e-07
3.45389e-08
1.55038e-05
3.20199e-07
3.65514e-08
2.34284e-05
5.28595e-07
3.26105e-08
2.99565e-05
7.768e-07
2.67751e-08
3.53423e-05
1.06372e-06
2.13883e-08
3.97847e-05
1.39061e-06
1.78041e-08
4.3437e-05
1.76081e-06
1.68808e-08
4.64122e-05
2.17949e-06
1.93235e-08
4.87905e-05
2.65341e-06
2.59201e-08
5.06205e-05
3.19029e-06
3.77124e-08
5.19214e-05
3.79759e-06
5.61222e-08
5.26801e-05
4.47952e-06
8.30225e-08
5.28473e-05
5.23062e-06
1.20678e-07
5.23268e-05
6.02184e-06
1.71372e-07
5.09634e-05
6.7695e-06
2.36276e-07
4.85203e-05
7.26376e-06
3.12728e-07
4.4645e-05
7.0248e-06
3.876e-07
3.88135e-05
5.50784e-06
4.21775e-07
3.02115e-05
3.21326e-07
1.73411e-05
5.30414e-08
1.7044e-08
6.40654e-06
1.76101e-07
3.14794e-08
1.70895e-05
3.59791e-07
3.41376e-08
2.598e-05
5.93425e-07
3.11414e-08
3.33747e-05
8.70951e-07
2.61409e-08
3.95184e-05
1.19091e-06
2.13814e-08
4.46089e-05
1.55449e-06
1.82433e-08
4.88019e-05
1.9652e-06
1.7645e-08
5.22155e-05
2.42853e-06
2.03451e-08
5.49336e-05
2.95159e-06
2.71595e-08
5.70073e-05
3.54242e-06
3.91216e-08
5.84545e-05
4.20855e-06
5.75959e-08
5.92585e-05
4.95367e-06
8.43274e-08
5.93613e-05
5.7706e-06
1.21359e-07
5.86548e-05
6.62606e-06
1.70632e-07
5.69667e-05
7.42729e-06
2.32884e-07
5.4039e-05
7.9451e-06
3.05013e-07
4.9496e-05
7.6598e-06
3.7386e-07
4.27902e-05
5.98562e-06
4.01725e-07
3.3086e-05
2.97541e-07
1.88463e-05
5.72794e-08
1.36596e-08
6.81803e-06
1.9054e-07
2.57503e-08
1.82939e-05
3.89545e-07
2.84274e-08
2.79245e-05
6.42419e-07
2.63665e-08
3.59906e-05
9.42324e-07
2.25078e-08
4.27278e-05
1.28744e-06
1.87449e-08
4.83296e-05
1.67888e-06
1.62947e-08
5.29519e-05
2.12022e-06
1.59954e-08
5.67143e-05
2.61715e-06
1.85432e-08
5.97018e-05
3.17704e-06
2.46698e-08
6.19661e-05
3.80815e-06
3.5273e-08
6.35246e-05
4.51805e-06
5.15067e-08
6.43565e-05
5.31009e-06
7.48098e-08
6.43979e-05
6.17578e-06
1.06816e-07
6.35321e-05
7.07876e-06
1.48989e-07
6.15752e-05
7.91963e-06
2.01667e-07
5.82563e-05
8.455e-06
2.61833e-07
5.31855e-05
8.13544e-06
3.17961e-07
4.58021e-05
6.34394e-06
3.38144e-07
3.52571e-05
2.45654e-07
1.99827e-05
6.02373e-08
9.49195e-09
7.11491e-06
2.00733e-07
1.81439e-08
1.91633e-05
4.10704e-07
2.02757e-08
2.9331e-05
6.77429e-07
1.90239e-08
3.78875e-05
9.93481e-07
1.64326e-08
4.50611e-05
1.35675e-06
1.38605e-08
5.10416e-05
1.76824e-06
1.22068e-08
5.59831e-05
2.23156e-06
1.21058e-08
6.0005e-05
2.75256e-06
1.40868e-08
6.31927e-05
3.33875e-06
1.86981e-08
6.55979e-05
3.99857e-06
2.65982e-08
6.72362e-05
4.73964e-06
3.86166e-08
6.80847e-05
5.56502e-06
5.57683e-08
6.80754e-05
6.46537e-06
7.91765e-08
6.70853e-05
7.40221e-06
1.09799e-07
6.49237e-05
8.27142e-06
1.47723e-07
6.13114e-05
8.81956e-06
1.90571e-07
5.58505e-05
8.47586e-06
2.29853e-07
4.79724e-05
6.60065e-06
2.4263e-07
3.68195e-05
1.74052e-07
2.08007e-05
6.2106e-08
4.85523e-09
7.30766e-06
2.07223e-07
9.35595e-09
1.97279e-05
4.2425e-07
1.05298e-08
3.02452e-05
6.99929e-07
9.9471e-09
3.91226e-05
1.02644e-06
8.65261e-09
4.6583e-05
1.40147e-06
7.35366e-09
5.28131e-05
1.82594e-06
6.52643e-09
5.79658e-05
2.30348e-06
6.51136e-09
6.21596e-05
2.83999e-06
7.5936e-09
6.54799e-05
3.44314e-06
1.0066e-08
6.79775e-05
4.12146e-06
1.4276e-08
6.96676e-05
4.88257e-06
2.06559e-08
7.05255e-05
5.72942e-06
2.97285e-08
7.04801e-05
6.65211e-06
4.20625e-08
6.94055e-05
7.6108e-06
5.81262e-08
6.71066e-05
8.49837e-06
7.79165e-08
6.32993e-05
9.05491e-06
1.00128e-07
5.75814e-05
8.69584e-06
1.20271e-07
4.93801e-05
6.76665e-06
1.26394e-07
3.78324e-05
9.00221e-08
2.13311e-05
6.30096e-08
-5e-15
7.40258e-06
2.10377e-07
-2.5e-14
2.00059e-05
4.30855e-07
-2.5e-14
3.06956e-05
7.10925e-07
-2.5e-14
3.97316e-05
1.04257e-06
-3.75e-14
4.73339e-05
1.42338e-06
-5e-14
5.36881e-05
1.85423e-06
-5e-14
5.89458e-05
2.33874e-06
-5e-14
6.32251e-05
2.88286e-06
-5e-14
6.66114e-05
3.49433e-06
-3.75e-14
6.9155e-05
4.18171e-06
-2.5e-14
7.08705e-05
4.95266e-06
-1.25e-14
7.17324e-05
5.81004e-06
-4.33681e-23
7.16686e-05
6.74368e-06
-5.96311e-23
7.05513e-05
7.7131e-06
-1.24683e-22
6.81834e-05
8.60973e-06
-1.68051e-22
6.4279e-05
9.17043e-06
-1.40946e-22
5.84338e-05
8.80386e-06
0
5.0073e-05
6.8482e-06
-1.73472e-22
3.83308e-05
-1.95156e-22
2.15921e-05
6.30096e-08
-4.85525e-09
7.40257e-06
2.10377e-07
-9.356e-09
2.00059e-05
4.30855e-07
-1.05299e-08
3.06956e-05
7.10925e-07
-9.94716e-09
3.97316e-05
1.04257e-06
-8.65269e-09
4.73339e-05
1.42338e-06
-7.35375e-09
5.36881e-05
1.85422e-06
-6.52653e-09
5.89458e-05
2.33874e-06
-6.51145e-09
6.32251e-05
2.88286e-06
-7.59369e-09
6.66114e-05
3.49432e-06
-1.00661e-08
6.9155e-05
4.18171e-06
-1.4276e-08
7.08705e-05
4.95266e-06
-2.06559e-08
7.17324e-05
5.81004e-06
-2.97285e-08
7.16686e-05
6.74367e-06
-4.20625e-08
7.05513e-05
7.7131e-06
-5.81262e-08
6.81834e-05
8.60972e-06
-7.79165e-08
6.4279e-05
9.17042e-06
-1.00128e-07
5.84338e-05
8.80386e-06
-1.20271e-07
5.0073e-05
6.8482e-06
-1.26394e-07
3.83308e-05
-9.00221e-08
2.15921e-05
6.2106e-08
-9.49196e-09
7.30766e-06
2.07223e-07
-1.81439e-08
1.97279e-05
4.2425e-07
-2.02758e-08
3.02452e-05
6.99929e-07
-1.9024e-08
3.91226e-05
1.02644e-06
-1.64327e-08
4.6583e-05
1.40147e-06
-1.38606e-08
5.28131e-05
1.82594e-06
-1.22069e-08
5.79658e-05
2.30348e-06
-1.21059e-08
6.21596e-05
2.83999e-06
-1.40869e-08
6.54799e-05
3.44314e-06
-1.86981e-08
6.79775e-05
4.12146e-06
-2.65982e-08
6.96676e-05
4.88257e-06
-3.86166e-08
7.05255e-05
5.72942e-06
-5.57683e-08
7.04801e-05
6.65211e-06
-7.91765e-08
6.94055e-05
7.6108e-06
-1.09799e-07
6.71066e-05
8.49837e-06
-1.47723e-07
6.32993e-05
9.05491e-06
-1.90571e-07
5.75814e-05
8.69584e-06
-2.29853e-07
4.93801e-05
6.76665e-06
-2.4263e-07
3.78324e-05
-1.74052e-07
2.13311e-05
6.02374e-08
-1.36597e-08
7.11491e-06
2.00733e-07
-2.57503e-08
1.91633e-05
4.10704e-07
-2.84274e-08
2.9331e-05
6.77429e-07
-2.63665e-08
3.78875e-05
9.93481e-07
-2.25078e-08
4.50611e-05
1.35675e-06
-1.8745e-08
5.10416e-05
1.76824e-06
-1.62948e-08
5.59831e-05
2.23156e-06
-1.59955e-08
6.0005e-05
2.75256e-06
-1.85433e-08
6.31928e-05
3.33875e-06
-2.46699e-08
6.55979e-05
3.99858e-06
-3.52731e-08
6.72363e-05
4.73964e-06
-5.15067e-08
6.80848e-05
5.56503e-06
-7.48098e-08
6.80754e-05
6.46538e-06
-1.06816e-07
6.70853e-05
7.40221e-06
-1.48989e-07
6.49237e-05
8.27143e-06
-2.01667e-07
6.13114e-05
8.81956e-06
-2.61833e-07
5.58505e-05
8.47586e-06
-3.17961e-07
4.79724e-05
6.60065e-06
-3.38144e-07
3.68195e-05
-2.45654e-07
2.08007e-05
5.72794e-08
-1.7044e-08
6.81803e-06
1.9054e-07
-3.14794e-08
1.82939e-05
3.89545e-07
-3.41376e-08
2.79245e-05
6.42419e-07
-3.11415e-08
3.59906e-05
9.42324e-07
-2.61409e-08
4.27278e-05
1.28744e-06
-2.13815e-08
4.83296e-05
1.67888e-06
-1.82433e-08
5.29519e-05
2.12022e-06
-1.76451e-08
5.67143e-05
2.61715e-06
-2.03451e-08
5.97018e-05
3.17704e-06
-2.71595e-08
6.19661e-05
3.80815e-06
-3.91217e-08
6.35246e-05
4.51805e-06
-5.75959e-08
6.43565e-05
5.31009e-06
-8.43274e-08
6.43979e-05
6.17578e-06
-1.21359e-07
6.35321e-05
7.07876e-06
-1.70632e-07
6.15752e-05
7.91963e-06
-2.32884e-07
5.82563e-05
8.455e-06
-3.05013e-07
5.31855e-05
8.13544e-06
-3.7386e-07
4.58021e-05
6.34394e-06
-4.01726e-07
3.52571e-05
-2.97541e-07
1.99827e-05
5.30414e-08
-1.92377e-08
6.40654e-06
1.76101e-07
-3.45389e-08
1.70895e-05
3.59791e-07
-3.65514e-08
2.598e-05
5.93425e-07
-3.26108e-08
3.33747e-05
8.70951e-07
-2.67753e-08
3.95184e-05
1.19091e-06
-2.13884e-08
4.46089e-05
1.55449e-06
-1.78042e-08
4.88019e-05
1.96521e-06
-1.68809e-08
5.22155e-05
2.42853e-06
-1.93235e-08
5.49336e-05
2.95159e-06
-2.59201e-08
5.70072e-05
3.54242e-06
-3.77124e-08
5.84545e-05
4.20855e-06
-5.61222e-08
5.92585e-05
4.95367e-06
-8.30225e-08
5.93612e-05
5.7706e-06
-1.20678e-07
5.86547e-05
6.62606e-06
-1.71372e-07
5.69667e-05
7.42729e-06
-2.36276e-07
5.4039e-05
7.9451e-06
-3.12728e-07
4.9496e-05
7.6598e-06
-3.876e-07
4.27902e-05
5.98562e-06
-4.21776e-07
3.3086e-05
-3.21326e-07
1.88463e-05
4.72694e-08
-1.97209e-08
5.86399e-06
1.5671e-07
-3.40771e-08
1.55038e-05
3.20199e-07
-3.49081e-08
2.34284e-05
5.28595e-07
-3.02649e-08
2.99565e-05
7.768e-07
-2.41651e-08
3.53423e-05
1.06372e-06
-1.87388e-08
3.97848e-05
1.39061e-06
-1.51168e-08
4.3437e-05
1.76081e-06
-1.39677e-08
4.64123e-05
2.17949e-06
-1.5842e-08
4.87905e-05
2.65341e-06
-2.13935e-08
5.06205e-05
3.19029e-06
-3.15384e-08
5.19214e-05
3.79759e-06
-4.75771e-08
5.26801e-05
4.47953e-06
-7.12747e-08
5.28473e-05
5.23063e-06
-1.04833e-07
5.23268e-05
6.02184e-06
-1.50575e-07
5.09634e-05
6.7695e-06
-2.09919e-07
4.85203e-05
7.26376e-06
-2.80894e-07
4.4645e-05
7.0248e-06
-3.5195e-07
3.88135e-05
5.50784e-06
-3.87684e-07
3.02115e-05
-3.07599e-07
1.73411e-05
3.96652e-08
-1.78908e-08
5.16421e-06
1.31589e-07
-2.93538e-08
1.34655e-05
2.69419e-07
-2.87972e-08
2.01687e-05
4.45894e-07
-2.40747e-08
2.56186e-05
6.56966e-07
-1.85711e-08
3.00753e-05
9.0187e-07
-1.3886e-08
3.37326e-05
1.18183e-06
-1.07723e-08
3.67336e-05
1.49987e-06
-9.63089e-09
3.91818e-05
1.86073e-06
-1.07997e-08
4.1149e-05
2.27061e-06
-1.47258e-08
4.26801e-05
2.73677e-06
-2.20859e-08
4.37936e-05
3.26648e-06
-3.38839e-08
4.4481e-05
3.86453e-06
-5.15203e-08
4.4703e-05
4.52768e-06
-7.67815e-08
4.43809e-05
5.23243e-06
-1.11584e-07
4.33834e-05
5.90741e-06
-1.5713e-07
4.15053e-05
6.3689e-06
-2.11905e-07
3.84324e-05
6.19038e-06
-2.6672e-07
3.36822e-05
4.88046e-06
-2.94318e-07
2.64811e-05
-2.4784e-07
1.5384e-05
2.9957e-08
-1.33857e-08
4.26262e-06
1.00097e-07
-2.04307e-08
1.08622e-05
2.06323e-07
-1.88976e-08
1.60518e-05
3.43482e-07
-1.5076e-08
2.01989e-05
5.08584e-07
-1.11386e-08
2.35549e-05
7.0108e-07
-7.95876e-09
2.62942e-05
9.22011e-07
-5.87286e-09
2.85391e-05
1.17394e-06
-5.02704e-09
3.03755e-05
1.46089e-06
-5.55838e-09
3.18622e-05
1.78825e-06
-7.69345e-09
3.30359e-05
2.16245e-06
-1.18152e-08
3.39134e-05
2.59026e-06
-1.85191e-08
3.44909e-05
3.07689e-06
-2.86537e-08
3.47411e-05
3.62161e-06
-4.33029e-08
3.46064e-05
4.20795e-06
-6.35785e-08
3.39879e-05
4.78085e-06
-8.99679e-08
3.2726e-05
5.19222e-06
-1.20923e-07
3.05674e-05
5.08859e-06
-1.49421e-07
2.71034e-05
4.05101e-06
-1.58323e-07
2.16409e-05
-1.52655e-07
1.28278e-05
1.81662e-08
-6.42296e-09
3.07276e-06
6.22786e-08
-8.88132e-09
7.50674e-06
1.30715e-07
-7.60678e-09
1.08562e-05
2.20464e-07
-5.7358e-09
1.34755e-05
3.29498e-07
-4.02238e-09
1.55721e-05
4.57373e-07
-2.71748e-09
1.72758e-05
6.04793e-07
-1.8802e-09
1.86727e-05
7.73594e-07
-1.5176e-09
1.98209e-05
9.66734e-07
-1.65002e-09
2.07602e-05
1.18825e-06
-2.3412e-09
2.15156e-05
1.44311e-06
-3.7178e-09
2.20996e-05
1.73683e-06
-5.98548e-09
2.25119e-05
2.07429e-06
-9.43541e-09
2.2738e-05
2.45694e-06
-1.4414e-08
2.27449e-05
2.87619e-06
-2.1179e-08
2.24732e-05
3.29769e-06
-2.94672e-08
2.18238e-05
3.62216e-06
-3.7582e-08
2.06319e-05
3.60009e-06
-4.08229e-08
1.86137e-05
2.91869e-06
-3.87328e-08
1.52422e-05
-8.91184e-08
9.37716e-06
5.08232e-09
1.39026e-06
2.01437e-08
3.06645e-06
4.48889e-08
4.24914e-06
7.82944e-08
5.15096e-06
1.19423e-07
5.86661e-06
1.68e-07
6.44776e-06
2.2428e-07
6.92648e-06
2.89036e-07
7.32406e-06
3.63563e-07
7.65495e-06
4.49671e-07
7.92859e-06
5.49674e-07
8.15026e-06
6.66279e-07
8.32125e-06
8.02223e-07
8.4383e-06
9.59271e-07
8.49245e-06
1.13581e-06
8.46645e-06
1.32091e-06
8.33029e-06
1.47863e-06
8.03143e-06
1.50586e-06
7.47104e-06
1.25938e-06
6.43305e-06
4.3236e-06
7.98815e-09
1.06991e-08
1.37194e-06
3.19868e-08
1.5025e-08
3.02772e-06
7.16035e-08
1.31314e-08
4.19664e-06
1.25228e-07
1.01666e-08
5.08761e-06
1.9132e-07
7.39198e-09
5.79353e-06
2.69355e-07
5.22774e-09
6.36484e-06
3.59629e-07
3.76703e-09
6.83275e-06
4.63241e-07
3.00775e-09
7.21777e-06
5.82099e-07
2.9618e-09
7.53354e-06
7.1893e-07
3.70765e-09
7.7886e-06
8.7733e-07
5.43082e-09
7.98726e-06
1.06181e-06
8.47499e-09
8.12961e-06
1.27779e-06
1.34247e-08
8.21114e-06
1.53155e-06
2.12512e-08
8.22154e-06
1.82995e-06
3.35859e-08
8.14265e-06
2.17955e-06
5.32582e-08
7.94499e-06
2.58382e-06
8.55483e-08
7.58093e-06
3.03737e-06
1.40531e-07
6.97245e-06
3.5771e-06
2.35455e-07
5.98721e-06
3.17814e-07
4.39393e-06
3.21781e-06
2.90165e-08
2.25191e-08
3.03351e-06
9.99202e-08
3.4889e-08
7.41443e-06
2.10287e-07
3.28859e-08
1.07252e-05
3.55282e-07
2.68851e-08
1.33135e-05
5.31541e-07
2.0504e-08
1.53824e-05
7.38147e-07
1.51916e-08
1.70591e-05
9.7595e-07
1.1485e-08
1.84271e-05
1.24754e-06
9.58202e-09
1.95428e-05
1.55721e-06
9.64346e-09
2.0444e-05
1.91097e-06
1.19585e-08
2.11538e-05
2.31641e-06
1.70659e-08
2.16828e-05
2.78256e-06
2.58824e-08
2.20289e-05
3.3193e-06
3.98746e-08
2.21761e-05
3.93608e-06
6.13175e-08
2.20909e-05
4.63934e-06
9.36945e-08
2.17169e-05
5.42669e-06
1.42371e-07
2.09654e-05
6.27451e-06
2.15846e-07
1.97e-05
7.11145e-06
3.26823e-07
1.77137e-05
7.894e-06
4.88664e-07
1.47031e-05
6.65426e-07
1.02766e-05
6.68695e-06
4.82311e-08
3.04305e-08
4.20909e-06
1.61676e-07
5.06215e-08
1.07308e-05