/*--------------------------------*- C++ -*----------------------------------*\
  =========                 |
  \\      /  F ield         | OpenFOAM: The Open Source CFD Toolbox
   \\    /   O peration     | Website:  https://openfoam.org
    \\  /    A nd           | Version:  6
     \\/     M anipulation  |
\*---------------------------------------------------------------------------*/
FoamFile
{
    version     2.0;
    format      ascii;
    class       volScalarField;
    location    "0.06";
    object      X;
}
// * * * * * * * * * * * * * * * * * * * * * * * * * * * * * * * * * * * * * //

dimensions      [0 1 0 0 0 0 0];

internalField   nonuniform List<scalar> 
56000
(
-0.00548123
-0.00649681
-0.0081842
-0.010182
-0.0121513
-0.013798
-0.0148843
-0.0152359
-0.0147448
-0.0133693
-0.0111321
-0.00811586
-0.00445695
-0.000338197
0.00401918
0.00836349
0.01242
0.0158982
0.0184999
0.0199323
-0.00682373
-0.0080302
-0.00997197
-0.0122295
-0.0144346
-0.0162772
-0.0175108
-0.0179569
-0.0175061
-0.0161181
-0.0138187
-0.0106957
-0.00689131
-0.00259529
0.00196418
0.00652823
0.0108141
0.0145204
0.01733
0.0189111
-0.00916435
-0.010628
-0.0129405
-0.0155956
-0.0181735
-0.0203329
-0.021809
-0.0224129
-0.0220313
-0.0206247
-0.0182239
-0.0149245
-0.0108797
-0.00629127
-0.00140049
0.0035197
0.00817049
0.0122289
0.0153445
0.0171282
-0.0121369
-0.0138686
-0.0165868
-0.019693
-0.022705
-0.0252405
-0.0270087
-0.0278051
-0.0275095
-0.0260817
-0.0235579
-0.0200435
-0.0157054
-0.0107615
-0.00547096
-0.00012606
0.00495237
0.00941332
0.0128664
0.0148626
-0.0153902
-0.0173739
-0.0204856
-0.0240405
-0.0274931
-0.0304166
-0.0324897
-0.0334894
-0.0332854
-0.0318358
-0.0291816
-0.0254389
-0.0207897
-0.0154703
-0.00976065
-0.0039752
0.00154013
0.006404
0.0101861
0.0123828
-0.0186075
-0.0208129
-0.0242778
-0.0282428
-0.0321045
-0.0353926
-0.0377554
-0.0389496
-0.0388339
-0.0373635
-0.0345833
-0.0306199
-0.0256705
-0.0199903
-0.0138804
-0.00767832
-0.001755
0.00347913
0.00755767
0.00993114
-0.0215165
-0.0239054
-0.0276664
-0.0319798
-0.0361928
-0.0397972
-0.0424131
-0.0437783
-0.0437407
-0.0422518
-0.0393596
-0.0352001
-0.0299843
-0.0239851
-0.0175234
-0.0109579
-0.00468222
0.000867698
0.00519549
0.0077152
-0.0238953
-0.0264247
-0.0304147
-0.0349997
-0.0394889
-0.0433436
-0.0461611
-0.0476632
-0.0476883
-0.0461842
-0.0432017
-0.0388837
-0.0334531
-0.0271975
-0.0204541
-0.0135994
-0.00704562
-0.00124864
0.00327215
0.00590386
-0.0255756
-0.0281998
-0.0323452
-0.0371159
-0.0417948
-0.0458223
-0.0487795
-0.0503768
-0.0504454
-0.0489308
-0.0458849
-0.041456
-0.0358752
-0.0294405
-0.0225012
-0.0154461
-0.00870063
-0.00273444
0.0019176
0.00462493
-0.0264441
-0.029116
-0.0333401
-0.0382048
-0.0429801
-0.0470957
-0.0501243
-0.0517703
-0.0518612
-0.0503412
-0.0472627
-0.0427768
-0.0371188
-0.0305922
-0.0235525
-0.016395
-0.00955184
-0.00349978
0.00121861
0.003964
-0.0264441
-0.029116
-0.0333401
-0.0382048
-0.0429801
-0.0470957
-0.0501243
-0.0517703
-0.0518612
-0.0503412
-0.0472627
-0.0427768
-0.0371188
-0.0305922
-0.0235525
-0.016395
-0.00955184
-0.00349978
0.00121861
0.003964
-0.0255756
-0.0281998
-0.0323452
-0.0371159
-0.0417948
-0.0458223
-0.0487795
-0.0503768
-0.0504454
-0.0489308
-0.0458849
-0.041456
-0.0358752
-0.0294405
-0.0225012
-0.0154461
-0.00870063
-0.00273444
0.0019176
0.00462492
-0.0238954
-0.0264247
-0.0304147
-0.0349997
-0.0394889
-0.0433436
-0.0461611
-0.0476633
-0.0476883
-0.0461842
-0.0432017
-0.0388837
-0.0334531
-0.0271975
-0.0204541
-0.0135994
-0.00704562
-0.00124864
0.00327215
0.00590386
-0.0215165
-0.0239054
-0.0276664
-0.0319798
-0.0361928
-0.0397972
-0.0424131
-0.0437784
-0.0437407
-0.0422518
-0.0393596
-0.0352001
-0.0299843
-0.0239851
-0.0175234
-0.0109579
-0.00468223
0.000867696
0.00519549
0.0077152
-0.0186075
-0.0208129
-0.0242778
-0.0282429
-0.0321045
-0.0353926
-0.0377554
-0.0389496
-0.0388339
-0.0373635
-0.0345833
-0.0306199
-0.0256705
-0.0199903
-0.0138804
-0.00767832
-0.00175501
0.00347912
0.00755767
0.00993114
-0.0153902
-0.0173739
-0.0204856
-0.0240405
-0.0274931
-0.0304166
-0.0324897
-0.0334894
-0.0332854
-0.0318358
-0.0291816
-0.0254389
-0.0207897
-0.0154703
-0.00976066
-0.00397521
0.00154012
0.006404
0.0101861
0.0123828
-0.0121369
-0.0138686
-0.0165868
-0.019693
-0.022705
-0.0252405
-0.0270087
-0.0278051
-0.0275095
-0.0260817
-0.0235579
-0.0200435
-0.0157054
-0.0107615
-0.00547097
-0.000126063
0.00495237
0.00941332
0.0128664
0.0148626
-0.00916435
-0.010628
-0.0129405
-0.0155956
-0.0181735
-0.0203329
-0.021809
-0.0224129
-0.0220313
-0.0206247
-0.0182239
-0.0149245
-0.0108797
-0.00629127
-0.00140049
0.0035197
0.00817049
0.0122289
0.0153445
0.0171282
-0.00682373
-0.0080302
-0.00997197
-0.0122295
-0.0144346
-0.0162772
-0.0175108
-0.0179569
-0.0175061
-0.0161181
-0.0138187
-0.0106957
-0.00689132
-0.00259529
0.00196418
0.00652823
0.0108141
0.0145204
0.01733
0.0189111
-0.00548123
-0.00649682
-0.0081842
-0.010182
-0.0121513
-0.013798
-0.0148843
-0.015236
-0.0147448
-0.0133693
-0.0111321
-0.00811587
-0.00445695
-0.0003382
0.00401918
0.00836349
0.01242
0.0158982
0.0184999
0.0199323
-0.0056641
-0.00668639
-0.00838845
-0.0104104
-0.012415
-0.0141094
-0.0152569
-0.0156837
-0.0152811
-0.014006
-0.0118783
-0.00897669
-0.00543287
-0.00142448
0.00283228
0.00709006
0.0110772
0.0145048
0.0170746
0.0184922
-0.00700131
-0.00821373
-0.0101691
-0.0124496
-0.0146889
-0.0165784
-0.017873
-0.0183946
-0.0180336
-0.0167479
-0.0145608
-0.0115557
-0.00787007
-0.00368783
0.000768194
0.0052438
0.00945955
0.0131155
0.0158942
0.0174617
-0.00933256
-0.0108011
-0.0131255
-0.0158018
-0.0184121
-0.020617
-0.0221534
-0.0228332
-0.0225432
-0.0212422
-0.0189581
-0.0157822
-0.011862
-0.00739302
-0.00261044
0.00221805
0.0067972
0.0108055
0.0138916
0.0156631
-0.012293
-0.0140284
-0.0167566
-0.0198817
-0.0229238
-0.025503
-0.0273305
-0.0282033
-0.0280011
-0.0266826
-0.0242809
-0.0208966
-0.0166904
-0.011873
-0.00669663
-0.00144761
0.0035571
0.0079678
0.0113925
0.0133779
-0.0155329
-0.0175192
-0.0206389
-0.0242101
-0.0276904
-0.0306554
-0.0327866
-0.0338626
-0.0337538
-0.0324173
-0.0298908
-0.0262853
-0.0217758
-0.0165906
-0.0110016
-0.00531672
0.000122384
0.00493553
0.00869011
0.0108772
-0.0187369
-0.0209437
-0.0244147
-0.0283937
-0.0322805
-0.0356079
-0.0380272
-0.0392975
-0.0392785
-0.0379245
-0.0352773
-0.0314579
-0.0266558
-0.0211174
-0.0151347
-0.00903804
-0.00319366
0.00198897
0.00604057
0.00840524
-0.0216338
-0.024023
-0.0277885
-0.0321137
-0.0363495
-0.039991
-0.042662
-0.0441029
-0.044163
-0.0427932
-0.0400386
-0.0360291
-0.0309674
-0.0251169
-0.0187885
-0.0123328
-0.00613879
-0.000641296
0.00365982
0.00617134
-0.0240026
-0.0265316
-0.0305246
-0.0351198
-0.0396298
-0.0435198
-0.0463909
-0.0479681
-0.0480915
-0.0467088
-0.0438674
-0.0397043
-0.0344335
-0.0283321
-0.0217271
-0.0149861
-0.00851617
-0.00277252
0.00172165
0.00434558
-0.0256757
-0.0282991
-0.0324467
-0.0372261
-0.0419244
-0.0459859
-0.0489957
-0.0506676
-0.050835
-0.0494431
-0.0465408
-0.0422702
-0.0368531
-0.0305766
-0.0237792
-0.0168406
-0.0101807
-0.00426858
0.000356818
0.00305659
-0.0265405
-0.0292114
-0.0334371
-0.0383099
-0.0431039
-0.0472527
-0.0503334
-0.0520538
-0.0522436
-0.050847
-0.0479134
-0.0435874
-0.0380951
-0.0317289
-0.0248329
-0.0177934
-0.0110367
-0.00503914
-0.000347425
0.00239052
-0.0265405
-0.0292114
-0.0334371
-0.0383099
-0.0431039
-0.0472527
-0.0503334
-0.0520538
-0.0522436
-0.050847
-0.0479134
-0.0435874
-0.0380951
-0.0317289
-0.0248329
-0.0177934
-0.0110367
-0.00503914
-0.000347425
0.00239052
-0.0256757
-0.0282991
-0.0324467
-0.0372261
-0.0419244
-0.0459859
-0.0489957
-0.0506676
-0.050835
-0.0494431
-0.0465408
-0.0422702
-0.0368531
-0.0305766
-0.0237792
-0.0168406
-0.0101807
-0.00426859
0.000356818
0.00305659
-0.0240026
-0.0265316
-0.0305247
-0.0351198
-0.0396298
-0.0435198
-0.0463909
-0.0479682
-0.0480915
-0.0467088
-0.0438674
-0.0397043
-0.0344335
-0.0283321
-0.0217271
-0.0149861
-0.00851617
-0.00277253
0.00172165
0.00434558
-0.0216338
-0.024023
-0.0277885
-0.0321137
-0.0363495
-0.039991
-0.042662
-0.0441029
-0.044163
-0.0427932
-0.0400386
-0.0360291
-0.0309675
-0.0251169
-0.0187885
-0.0123328
-0.00613879
-0.000641298
0.00365981
0.00617134
-0.0187369
-0.0209437
-0.0244147
-0.0283937
-0.0322805
-0.0356079
-0.0380272
-0.0392975
-0.0392785
-0.0379245
-0.0352773
-0.0314579
-0.0266558
-0.0211174
-0.0151347
-0.00903804
-0.00319366
0.00198897
0.00604057
0.00840524
-0.0155329
-0.0175192
-0.0206389
-0.0242101
-0.0276904
-0.0306554
-0.0327866
-0.0338626
-0.0337539
-0.0324173
-0.0298908
-0.0262853
-0.0217758
-0.0165906
-0.0110016
-0.00531672
0.000122381
0.00493553
0.00869011
0.0108772
-0.012293
-0.0140284
-0.0167567
-0.0198817
-0.0229238
-0.025503
-0.0273305
-0.0282033
-0.0280011
-0.0266826
-0.0242809
-0.0208966
-0.0166904
-0.011873
-0.00669663
-0.00144761
0.0035571
0.00796779
0.0113925
0.0133779
-0.00933256
-0.0108011
-0.0131255
-0.0158018
-0.0184121
-0.020617
-0.0221534
-0.0228332
-0.0225432
-0.0212422
-0.0189581
-0.0157822
-0.011862
-0.00739303
-0.00261044
0.00221805
0.0067972
0.0108055
0.0138916
0.0156631
-0.00700131
-0.00821373
-0.0101691
-0.0124496
-0.0146889
-0.0165784
-0.017873
-0.0183946
-0.0180336
-0.0167479
-0.0145608
-0.0115558
-0.00787007
-0.00368783
0.00076819
0.00524379
0.00945955
0.0131155
0.0158942
0.0174617
-0.0056641
-0.00668639
-0.00838845
-0.0104104
-0.012415
-0.0141094
-0.0152569
-0.0156837
-0.0152811
-0.014006
-0.0118783
-0.0089767
-0.00543287
-0.00142448
0.00283228
0.00709005
0.0110772
0.0145048
0.0170746
0.0184922
-0.00586162
-0.00689077
-0.00860777
-0.0106542
-0.0126941
-0.014436
-0.0156441
-0.0161446
-0.0158282
-0.0146501
-0.0126273
-0.00983473
-0.00639968
-0.00249496
0.00166782
0.00584516
0.00976816
0.0131491
0.0156894
0.0170934
-0.00719365
-0.00841221
-0.0103815
-0.0126854
-0.0149591
-0.0168955
-0.0182505
-0.0188462
-0.0185726
-0.0173859
-0.0153064
-0.0124136
-0.00883998
-0.00476453
-0.000405035
0.00398845
0.00813935
0.0117489
0.0144993
0.0160543
-0.00951569
-0.0109893
-0.0133261
-0.016024
-0.018667
-0.0209177
-0.0225141
-0.0232688
-0.023068
-0.0218692
-0.0196971
-0.0166386
-0.012836
-0.00847897
-0.0037972
0.000946281
0.00545932
0.00942152
0.0124805
0.0142408
-0.0124643
-0.0142036
-0.0169424
-0.0200869
-0.0231597
-0.0257831
-0.0276699
-0.0286181
-0.0285073
-0.0272948
-0.0250102
-0.0217497
-0.0176679
-0.0129689
-0.00789875
-0.00273844
0.00219839
0.00656297
0.00996171
0.0119373
-0.015691
-0.0176801
-0.0208083
-0.0243968
-0.0279055
-0.0309129
-0.0331025
-0.0342543
-0.034239
-0.0330121
-0.0306082
-0.0271332
-0.0227554
-0.0176956
-0.0122188
-0.00662677
-0.00125769
0.00350902
0.00723851
0.0094168
-0.0188818
-0.0210903
-0.0245681
-0.028562
-0.032475
-0.0358428
-0.0383194
-0.0396656
-0.0397418
-0.0385009
-0.0359816
-0.0322991
-0.0276359
-0.0222298
-0.0163652
-0.0103657
-0.00459369
0.000541923
0.004569
0.00692569
-0.0217666
-0.0241567
-0.0279273
-0.0322655
-0.0365253
-0.0402054
-0.0429324
-0.0444491
-0.0446056
-0.043352
-0.0407298
-0.0368629
-0.0319466
-0.0262347
-0.0200298
-0.0136754
-0.00755598
-0.00210623
0.00217068
0.0046748
-0.0241255
-0.0266546
-0.0306515
-0.0352579
-0.0397902
-0.0437171
-0.0466432
-0.048296
-0.0485168
-0.0472525
-0.044547
-0.0405313
-0.0354109
-0.0294535
-0.0229765
-0.01634
-0.00994679
-0.00425163
0.000218463
0.00283537
-0.0257916
-0.0284145
-0.0325651
-0.0373546
-0.0420739
-0.0461711
-0.049235
-0.0509823
-0.0512476
-0.0499756
-0.0472117
-0.0430917
-0.0378288
-0.0317
-0.0250339
-0.0182022
-0.0116205
-0.00575746
-0.00115613
0.00153686
-0.0266528
-0.029323
-0.0335511
-0.0384334
-0.0432478
-0.0474317
-0.050566
-0.0523615
-0.0526496
-0.0513736
-0.0485797
-0.044406
-0.0390698
-0.0328532
-0.0260901
-0.0191589
-0.0124812
-0.00653299
-0.00186536
0.0008659
-0.0266528
-0.029323
-0.0335511
-0.0384334
-0.0432478
-0.0474317
-0.050566
-0.0523615
-0.0526496
-0.0513736
-0.0485797
-0.044406
-0.0390698
-0.0328532
-0.0260901
-0.0191589
-0.0124812
-0.00653299
-0.00186536
0.0008659
-0.0257916
-0.0284145
-0.0325651
-0.0373546
-0.0420739
-0.0461711
-0.049235
-0.0509823
-0.0512476
-0.0499756
-0.0472117
-0.0430917
-0.0378288
-0.0317
-0.0250339
-0.0182022
-0.0116205
-0.00575746
-0.00115613
0.00153686
-0.0241255
-0.0266546
-0.0306515
-0.0352579
-0.0397902
-0.0437171
-0.0466432
-0.048296
-0.0485168
-0.0472525
-0.044547
-0.0405313
-0.0354109
-0.0294535
-0.0229765
-0.01634
-0.00994679
-0.00425163
0.000218461
0.00283537
-0.0217666
-0.0241567
-0.0279273
-0.0322655
-0.0365253
-0.0402054
-0.0429324
-0.0444491
-0.0446056
-0.043352
-0.0407298
-0.036863
-0.0319466
-0.0262348
-0.0200298
-0.0136754
-0.00755598
-0.00210623
0.00217067
0.00467479
-0.0188818
-0.0210903
-0.0245681
-0.028562
-0.032475
-0.0358428
-0.0383194
-0.0396656
-0.0397418
-0.0385009
-0.0359816
-0.0322991
-0.0276359
-0.0222298
-0.0163653
-0.0103657
-0.0045937
0.000541921
0.004569
0.00692568
-0.015691
-0.0176801
-0.0208083
-0.0243968
-0.0279055
-0.0309129
-0.0331025
-0.0342543
-0.034239
-0.0330121
-0.0306082
-0.0271332
-0.0227554
-0.0176956
-0.0122188
-0.00662677
-0.0012577
0.00350902
0.00723851
0.0094168
-0.0124643
-0.0142036
-0.0169424
-0.0200869
-0.0231597
-0.0257831
-0.0276699
-0.0286181
-0.0285073
-0.0272948
-0.0250102
-0.0217497
-0.0176679
-0.0129689
-0.00789876
-0.00273844
0.00219839
0.00656297
0.00996171
0.0119373
-0.0095157
-0.0109893
-0.0133261
-0.016024
-0.018667
-0.0209177
-0.0225141
-0.0232688
-0.023068
-0.0218692
-0.0196971
-0.0166386
-0.012836
-0.00847898
-0.00379721
0.000946277
0.00545932
0.00942152
0.0124805
0.0142408
-0.00719365
-0.00841221
-0.0103815
-0.0126854
-0.0149591
-0.0168955
-0.0182505
-0.0188462
-0.0185726
-0.0173859
-0.0153064
-0.0124136
-0.00883998
-0.00476453
-0.000405038
0.00398845
0.00813935
0.0117489
0.0144993
0.0160543
-0.00586163
-0.00689077
-0.00860778
-0.0106542
-0.0126941
-0.014436
-0.0156441
-0.0161446
-0.0158282
-0.0146501
-0.0126273
-0.00983473
-0.00639968
-0.00249496
0.00166782
0.00584516
0.00976816
0.0131491
0.0156894
0.0170934
-0.00607252
-0.00710867
-0.00884083
-0.0109119
-0.0129872
-0.0147765
-0.0160444
-0.0166172
-0.0163848
-0.0153004
-0.0133784
-0.01069
-0.00735802
-0.00355099
0.000523739
0.00462612
0.00848957
0.0118274
0.0143407
0.0157322
-0.0073995
-0.00862438
-0.0106079
-0.0129354
-0.0152437
-0.0172268
-0.0186416
-0.0193102
-0.0191218
-0.0180309
-0.0160548
-0.013269
-0.00980166
-0.00582675
-0.00155762
0.00275941
0.00685022
0.010417
0.0131412
0.0146848
-0.00971257
-0.0111915
-0.013541
-0.0162609
-0.0189371
-0.0212335
-0.0228895
-0.0237179
-0.0236044
-0.0225045
-0.0204399
-0.0174935
-0.0138022
-0.00955052
-0.00496299
-0.000298525
0.00415335
0.00807308
0.0111071
0.0128573
-0.0126495
-0.0143931
-0.0171428
-0.0203073
-0.0234114
-0.0260793
-0.0280253
-0.029048
-0.0290268
-0.0279169
-0.025745
-0.0226025
-0.0186383
-0.0140507
-0.00907959
-0.00400159
0.000872557
0.00519474
0.00856969
0.0105362
-0.0158634
-0.0178555
-0.0209929
-0.0245993
-0.0281372
-0.0311875
-0.0334356
-0.0346626
-0.034739
-0.0336188
-0.0313329
-0.0279822
-0.0237289
-0.0187869
-0.0134145
-0.00790849
-0.00260395
0.00212017
0.00582673
0.00799699
-0.0190412
-0.0212518
-0.024737
-0.0287467
-0.0326868
-0.0360959
-0.0386302
-0.040052
-0.0402218
-0.0390911
-0.0366948
-0.033143
-0.0286109
-0.023329
-0.0175742
-0.0116645
-0.00595905
-0.000866468
0.00313826
0.00548767
-0.0219142
-0.0243055
-0.0280819
-0.032434
-0.036719
-0.0404387
-0.0432225
-0.044815
-0.0450667
-0.0439263
-0.0414316
-0.0377009
-0.0329217
-0.0273398
-0.0212497
-0.0149886
-0.00893779
-0.00353165
0.000723221
0.00322062
-0.0242633
-0.0267929
-0.0307944
-0.0354131
-0.039969
-0.0439342
-0.0469163
-0.0486448
-0.0489619
-0.0478131
-0.0452387
-0.0413635
-0.0363853
-0.0305627
-0.0242045
-0.0176645
-0.0113415
-0.00569057
-0.00124236
0.00136819
-0.0259225
-0.0285454
-0.0326997
-0.0375005
-0.0422422
-0.0463766
-0.0494958
-0.0513187
-0.0516811
-0.0505262
-0.0478958
-0.0439195
-0.0388022
-0.0328116
-0.0262673
-0.0195342
-0.0130241
-0.00720574
-0.00262623
6.06097e-05
-0.02678
-0.02945
-0.0336814
-0.0385744
-0.0434105
-0.0476312
-0.0508204
-0.0526915
-0.053077
-0.0519189
-0.0492597
-0.0452314
-0.0400426
-0.0339658
-0.0273262
-0.0204947
-0.0138892
-0.00798602
-0.00334021
-0.000614996
-0.02678
-0.02945
-0.0336814
-0.0385744
-0.0434105
-0.0476312
-0.0508204
-0.0526915
-0.053077
-0.0519189
-0.0492597
-0.0452314
-0.0400426
-0.0339658
-0.0273262
-0.0204947
-0.0138892
-0.00798602
-0.00334021
-0.000614996
-0.0259225
-0.0285454
-0.0326997
-0.0375005
-0.0422422
-0.0463766
-0.0494958
-0.0513187
-0.0516811
-0.0505262
-0.0478958
-0.0439195
-0.0388022
-0.0328116
-0.0262673
-0.0195342
-0.0130241
-0.00720574
-0.00262623
6.06088e-05
-0.0242633
-0.0267929
-0.0307944
-0.0354131
-0.039969
-0.0439342
-0.0469163
-0.0486448
-0.0489619
-0.0478131
-0.0452387
-0.0413635
-0.0363853
-0.0305627
-0.0242045
-0.0176645
-0.0113415
-0.00569058
-0.00124236
0.00136819
-0.0219142
-0.0243055
-0.0280819
-0.032434
-0.036719
-0.0404387
-0.0432225
-0.044815
-0.0450667
-0.0439263
-0.0414316
-0.0377009
-0.0329217
-0.0273398
-0.0212497
-0.0149886
-0.00893779
-0.00353166
0.00072322
0.00322061
-0.0190412
-0.0212518
-0.024737
-0.0287467
-0.0326868
-0.0360959
-0.0386302
-0.040052
-0.0402218
-0.0390911
-0.0366948
-0.033143
-0.0286109
-0.023329
-0.0175742
-0.0116645
-0.00595906
-0.00086647
0.00313825
0.00548766
-0.0158634
-0.0178555
-0.0209929
-0.0245993
-0.0281372
-0.0311875
-0.0334356
-0.0346626
-0.034739
-0.0336188
-0.0313329
-0.0279822
-0.0237289
-0.0187869
-0.0134145
-0.00790849
-0.00260395
0.00212017
0.00582673
0.00799699
-0.0126495
-0.0143931
-0.0171428
-0.0203073
-0.0234114
-0.0260793
-0.0280253
-0.029048
-0.0290268
-0.0279169
-0.025745
-0.0226025
-0.0186384
-0.0140507
-0.00907959
-0.0040016
0.000872554
0.00519474
0.00856969
0.0105362
-0.00971257
-0.0111915
-0.013541
-0.0162609
-0.0189371
-0.0212336
-0.0228895
-0.0237179
-0.0236044
-0.0225045
-0.02044
-0.0174935
-0.0138022
-0.00955052
-0.00496299
-0.000298528
0.00415335
0.00807307
0.0111071
0.0128573
-0.0073995
-0.00862439
-0.0106079
-0.0129354
-0.0152437
-0.0172268
-0.0186416
-0.0193102
-0.0191219
-0.0180309
-0.0160548
-0.013269
-0.00980166
-0.00582676
-0.00155762
0.0027594
0.00685021
0.010417
0.0131412
0.0146848
-0.00607252
-0.00710867
-0.00884083
-0.0109119
-0.0129873
-0.0147765
-0.0160444
-0.0166172
-0.0163848
-0.0153004
-0.0133784
-0.01069
-0.00735803
-0.00355099
0.000523736
0.00462611
0.00848957
0.0118274
0.0143407
0.0157322
-0.00629517
-0.00733847
-0.00908599
-0.0111818
-0.0132927
-0.015129
-0.016456
-0.0170999
-0.0169495
-0.0159562
-0.0141313
-0.0115425
-0.00830866
-0.00459397
-0.000601967
0.0034304
0.00723857
0.0105366
0.013025
0.0144051
-0.00761728
-0.00884867
-0.0108466
-0.013198
-0.015541
-0.0175707
-0.0190447
-0.0197851
-0.01968
-0.018682
-0.0168055
-0.0141223
-0.0107559
-0.00687598
-0.00269167
0.001554
0.00558906
0.00911639
0.0118167
0.0133498
-0.00992165
-0.0114062
-0.0137687
-0.0165109
-0.0192205
-0.0215628
-0.0232779
-0.024179
-0.0241508
-0.0231471
-0.0211862
-0.018347
-0.0147615
-0.0106092
-0.00611004
-0.00151922
0.00287599
0.00675659
0.00976786
0.0115088
-0.0128473
-0.0145955
-0.0173565
-0.0205415
-0.0236773
-0.0263899
-0.0283949
-0.0294913
-0.0295578
-0.0285478
-0.0264846
-0.023455
-0.0196026
-0.0151198
-0.0102415
-0.00524012
-0.000423943
0.00385926
0.00721247
0.00917085
-0.0160486
-0.0180442
-0.0211913
-0.0248161
-0.0283839
-0.0314776
-0.0337843
-0.0350859
-0.0352524
-0.0342359
-0.0320638
-0.0288322
-0.024697
-0.0198658
-0.0145911
-0.00916508
-0.00392012
0.000764901
0.00445054
0.00661353
-0.0192138
-0.0214269
-0.02492
-0.0289463
-0.0329143
-0.0363654
-0.0389577
-0.0404548
-0.0407168
-0.0396935
-0.037416
-0.0339891
-0.0295814
-0.0244163
-0.0187641
-0.0129377
-0.00729363
-0.00224048
0.00174388
0.0040867
-0.0220752
-0.0244681
-0.0282511
-0.0326179
-0.0369291
-0.0406894
-0.0435306
-0.0451987
-0.0455444
-0.0445144
-0.042143
-0.0385425
-0.0338933
-0.0284336
-0.0224506
-0.016276
-0.0102882
-0.004922
-0.000687165
0.00180414
-0.0244148
-0.0269453
-0.0309521
-0.0355841
-0.0401647
-0.0441693
-0.0472081
-0.0490125
-0.0494248
-0.0483889
-0.0459413
-0.0422006
-0.037357
-0.031661
-0.0254136
-0.0189628
-0.0127044
-0.00709388
-0.00266554
-6.07646e-05
-0.0260672
-0.0286905
-0.0328493
-0.0376623
-0.0424276
-0.0466006
-0.0497761
-0.0516749
-0.0521333
-0.051093
-0.0485918
-0.044753
-0.0397736
-0.0339127
-0.0274819
-0.02084
-0.0143955
-0.00861798
-0.0040583
-0.00137704
-0.0269212
-0.0295913
-0.0338268
-0.0387315
-0.0435907
-0.0478494
-0.0510946
-0.0530417
-0.0535236
-0.0524809
-0.0499521
-0.0460628
-0.0410136
-0.0350683
-0.0285435
-0.0218041
-0.015265
-0.00940283
-0.00477682
-0.0020571
-0.0269212
-0.0295913
-0.0338268
-0.0387315
-0.0435907
-0.0478494
-0.0510946
-0.0530417
-0.0535236
-0.0524809
-0.0499521
-0.0460628
-0.0410136
-0.0350683
-0.0285435
-0.0218041
-0.015265
-0.00940283
-0.00477682
-0.0020571
-0.0260672
-0.0286905
-0.0328493
-0.0376623
-0.0424276
-0.0466006
-0.0497761
-0.0516749
-0.0521333
-0.051093
-0.0485918
-0.044753
-0.0397736
-0.0339127
-0.0274819
-0.02084
-0.0143955
-0.00861799
-0.0040583
-0.00137704
-0.0244148
-0.0269453
-0.0309521
-0.0355841
-0.0401647
-0.0441693
-0.0472081
-0.0490125
-0.0494248
-0.0483889
-0.0459413
-0.0422006
-0.037357
-0.0316609
-0.0254136
-0.0189628
-0.0127044
-0.00709388
-0.00266554
-6.07661e-05
-0.0220752
-0.0244681
-0.0282511
-0.0326179
-0.0369291
-0.0406894
-0.0435306
-0.0451987
-0.0455444
-0.0445144
-0.042143
-0.0385425
-0.0338933
-0.0284336
-0.0224506
-0.016276
-0.0102882
-0.004922
-0.000687167
0.00180413
-0.0192138
-0.0214269
-0.02492
-0.0289463
-0.0329143
-0.0363654
-0.0389577
-0.0404548
-0.0407168
-0.0396935
-0.037416
-0.0339891
-0.0295814
-0.0244163
-0.0187641
-0.0129377
-0.00729363
-0.00224048
0.00174388
0.0040867
-0.0160486
-0.0180442
-0.0211913
-0.0248161
-0.0283839
-0.0314776
-0.0337843
-0.0350859
-0.0352524
-0.0342359
-0.0320638
-0.0288322
-0.024697
-0.0198658
-0.0145911
-0.00916508
-0.00392012
0.000764899
0.00445054
0.00661353
-0.0128473
-0.0145955
-0.0173565
-0.0205415
-0.0236774
-0.02639
-0.0283949
-0.0294913
-0.0295578
-0.0285478
-0.0264846
-0.023455
-0.0196026
-0.0151198
-0.0102415
-0.00524012
-0.000423946
0.00385925
0.00721247
0.00917084
-0.00992166
-0.0114062
-0.0137687
-0.0165109
-0.0192205
-0.0215628
-0.0232779
-0.024179
-0.0241508
-0.0231471
-0.0211863
-0.018347
-0.0147615
-0.0106092
-0.00611004
-0.00151923
0.00287599
0.00675659
0.00976786
0.0115088
-0.00761728
-0.00884867
-0.0108466
-0.013198
-0.015541
-0.0175707
-0.0190447
-0.0197851
-0.01968
-0.0186821
-0.0168056
-0.0141223
-0.0107559
-0.00687598
-0.00269168
0.001554
0.00558906
0.00911639
0.0118167
0.0133498
-0.00629517
-0.00733847
-0.009086
-0.0111818
-0.0132927
-0.015129
-0.016456
-0.0170999
-0.0169496
-0.0159562
-0.0141313
-0.0115425
-0.00830866
-0.00459397
-0.00060197
0.00343039
0.00723857
0.0105366
0.013025
0.0144051
-0.00652764
-0.00757823
-0.00934131
-0.0114621
-0.0136085
-0.0154917
-0.0168773
-0.0175913
-0.0175212
-0.0166164
-0.0148855
-0.0123925
-0.00925238
-0.00562528
-0.00171121
0.00225571
0.00601261
0.00927399
0.0117398
0.0131096
-0.00784507
-0.00908314
-0.0110958
-0.0134713
-0.0158491
-0.0179253
-0.019458
-0.0202692
-0.0202458
-0.0193383
-0.0175582
-0.0149735
-0.0117035
-0.0079137
-0.00380926
0.000369743
0.00435312
0.0078442
0.0105228
0.0120465
-0.0101411
-0.0116314
-0.0140073
-0.0167722
-0.0195154
-0.0219035
-0.0236774
-0.0246504
-0.024706
-0.0237959
-0.0219355
-0.0191992
-0.0157148
-0.0116567
-0.00724064
-0.00271858
0.00162415
0.00546885
0.00845946
0.0101921
-0.0130559
-0.0148088
-0.0175816
-0.0207876
-0.0239555
-0.026713
-0.0287768
-0.0299462
-0.030099
-0.0291865
-0.0272284
-0.0243074
-0.0205615
-0.016178
-0.011387
-0.00645705
-0.00169452
0.00255295
0.00588649
0.0078376
-0.016245
-0.0182444
-0.0214015
-0.0250454
-0.0286436
-0.0317811
-0.0341465
-0.0355222
-0.0357775
-0.0348623
-0.0328005
-0.0296833
-0.0256607
-0.0209344
-0.0157514
-0.0103998
-0.0052099
-0.000560679
0.00310603
0.00526256
-0.0193979
-0.0216138
-0.0251155
-0.029159
-0.0331557
-0.0366494
-0.0393
-0.040872
-0.0412251
-0.0403067
-0.0381445
-0.0348376
-0.0305484
-0.0254937
-0.0199377
-0.0141888
-0.00860134
-0.00358427
0.000381653
0.00271862
-0.0222481
-0.024643
-0.0284331
-0.0328154
-0.0371537
-0.0409554
-0.0438545
-0.0455982
-0.0460368
-0.0451149
-0.042863
-0.0393876
-0.0348623
-0.0295179
-0.0236352
-0.017541
-0.0116114
-0.00628162
-0.00206493
0.000420922
-0.0245784
-0.0271102
-0.031123
-0.0357691
-0.0403754
-0.0444204
-0.0475167
-0.0493971
-0.0499037
-0.0489784
-0.0466537
-0.0430422
-0.0383269
-0.0327502
-0.0266066
-0.0202385
-0.0140397
-0.00846603
-0.00405571
-0.00145611
-0.0262242
-0.0288484
-0.0330123
-0.0378385
-0.0426285
-0.0468411
-0.0500736
-0.0520487
-0.0526023
-0.0516744
-0.0492985
-0.0455917
-0.0407436
-0.0350051
-0.0286804
-0.022123
-0.0157391
-0.00999878
-0.00545706
-0.00278083
-0.0270748
-0.0297455
-0.0339858
-0.0389031
-0.0437865
-0.0480844
-0.0513864
-0.0534098
-0.0539875
-0.053058
-0.0506557
-0.0469
-0.0419836
-0.0361621
-0.0297448
-0.0230908
-0.0166127
-0.010788
-0.00617997
-0.00346522
-0.0270748
-0.0297455
-0.0339858
-0.0389031
-0.0437865
-0.0480844
-0.0513864
-0.0534098
-0.0539875
-0.053058
-0.0506557
-0.0469
-0.0419836
-0.0361621
-0.0297448
-0.0230908
-0.0166127
-0.010788
-0.00617997
-0.00346522
-0.0262242
-0.0288484
-0.0330123
-0.0378385
-0.0426285
-0.0468411
-0.0500736
-0.0520487
-0.0526023
-0.0516744
-0.0492985
-0.0455917
-0.0407436
-0.0350051
-0.0286804
-0.022123
-0.0157391
-0.00999878
-0.00545706
-0.00278083
-0.0245784
-0.0271102
-0.031123
-0.0357691
-0.0403754
-0.0444204
-0.0475167
-0.0493971
-0.0499037
-0.0489784
-0.0466537
-0.0430422
-0.0383269
-0.0327502
-0.0266066
-0.0202385
-0.0140397
-0.00846603
-0.00405571
-0.00145612
-0.0222481
-0.024643
-0.0284331
-0.0328154
-0.0371537
-0.0409554
-0.0438545
-0.0455982
-0.0460368
-0.0451149
-0.042863
-0.0393876
-0.0348623
-0.0295179
-0.0236352
-0.017541
-0.0116114
-0.00628162
-0.00206493
0.00042092
-0.0193979
-0.0216138
-0.0251155
-0.029159
-0.0331557
-0.0366494
-0.0393001
-0.040872
-0.0412251
-0.0403067
-0.0381445
-0.0348376
-0.0305484
-0.0254937
-0.0199377
-0.0141888
-0.00860135
-0.00358427
0.000381651
0.00271862
-0.016245
-0.0182444
-0.0214015
-0.0250454
-0.0286436
-0.0317812
-0.0341465
-0.0355222
-0.0357775
-0.0348623
-0.0328005
-0.0296833
-0.0256607
-0.0209344
-0.0157514
-0.0103998
-0.0052099
-0.000560682
0.00310602
0.00526256
-0.0130559
-0.0148088
-0.0175816
-0.0207876
-0.0239555
-0.026713
-0.0287768
-0.0299462
-0.030099
-0.0291865
-0.0272284
-0.0243074
-0.0205615
-0.016178
-0.011387
-0.00645706
-0.00169452
0.00255295
0.00588648
0.0078376
-0.0101411
-0.0116314
-0.0140073
-0.0167722
-0.0195154
-0.0219035
-0.0236774
-0.0246504
-0.024706
-0.0237959
-0.0219355
-0.0191992
-0.0157148
-0.0116567
-0.00724064
-0.00271859
0.00162415
0.00546885
0.00845946
0.0101921
-0.00784507
-0.00908314
-0.0110958
-0.0134713
-0.0158491
-0.0179253
-0.019458
-0.0202692
-0.0202458
-0.0193383
-0.0175582
-0.0149735
-0.0117035
-0.0079137
-0.00380927
0.000369739
0.00435312
0.0078442
0.0105228
0.0120465
-0.00652764
-0.00757823
-0.00934132
-0.0114621
-0.0136085
-0.0154917
-0.0168773
-0.0175913
-0.0175212
-0.0166164
-0.0148855
-0.0123925
-0.00925238
-0.00562529
-0.00171121
0.0022557
0.00601261
0.00927398
0.0117398
0.0131096
-0.00676761
-0.00782563
-0.00960449
-0.0117505
-0.0139325
-0.0158624
-0.0173063
-0.0180895
-0.0180984
-0.0172802
-0.0156406
-0.0132402
-0.0101899
-0.00664623
-0.00280569
0.00110008
0.00480966
0.00803772
0.0104833
0.0118441
-0.00808057
-0.00932551
-0.0113531
-0.013753
-0.0161657
-0.0182885
-0.0198796
-0.0207607
-0.0208176
-0.0199988
-0.0183125
-0.0158229
-0.0126455
-0.0089414
-0.00491233
-0.000795617
0.00314006
0.00659818
0.00925734
0.010773
-0.0103685
-0.0118649
-0.0142545
-0.0170424
-0.0198195
-0.0222536
-0.0240861
-0.0251302
-0.0252685
-0.0244501
-0.0226874
-0.0200507
-0.0166631
-0.0126946
-0.00835705
-0.00389924
0.00039505
0.00420713
0.00717937
0.00890496
-0.0132728
-0.0150308
-0.0178159
-0.0210432
-0.0242437
-0.0270464
-0.0291689
-0.0304109
-0.0306488
-0.0298318
-0.0279762
-0.02516
-0.0215163
-0.0172274
-0.0125186
-0.00765542
-0.0029424
0.00127259
0.00458866
0.00653361
-0.0164502
-0.0184537
-0.0216215
-0.025285
-0.0289142
-0.0320959
-0.0345201
-0.0359695
-0.0363126
-0.0354968
-0.0335426
-0.0305358
-0.0266211
-0.0219946
-0.016898
-0.011616
-0.00647692
-0.00186026
0.00178963
0.00394069
-0.0195913
-0.0218104
-0.0253212
-0.0293826
-0.0334086
-0.0369455
-0.0396549
-0.0413017
-0.0417449
-0.0409297
-0.0388797
-0.0356888
-0.0315132
-0.0265633
-0.0210979
-0.0154214
-0.00988614
-0.0049019
-0.000952389
0.00137958
-0.0224306
-0.0248279
-0.0286258
-0.0330243
-0.0373905
-0.0412344
-0.044192
-0.0460113
-0.046542
-0.0457265
-0.043591
-0.0402365
-0.0358298
-0.030595
-0.0248066
-0.0187873
-0.0129114
-0.00761486
-0.00341438
-0.000933225
-0.024752
-0.0272856
-0.031305
-0.0359661
-0.0405989
-0.0446852
-0.0478396
-0.0497962
-0.0503965
-0.0495801
-0.0473752
-0.0438886
-0.039296
-0.0338327
-0.0277866
-0.0214956
-0.0153516
-0.00981158
-0.00541739
-0.00282232
-0.0263914
-0.0290169
-0.0331867
-0.0380268
-0.0428426
-0.0470957
-0.0503862
-0.0524377
-0.0530861
-0.0522688
-0.0500151
-0.046436
-0.0417134
-0.036091
-0.029866
-0.0233873
-0.0170591
-0.0113528
-0.0068272
-0.00415541
-0.0272387
-0.0299105
-0.0341562
-0.039087
-0.0439956
-0.0483337
-0.0516936
-0.0537936
-0.0544665
-0.0536485
-0.0513697
-0.0477429
-0.0429537
-0.0372497
-0.0309333
-0.0243588
-0.0179369
-0.0121463
-0.00755443
-0.00484407
-0.0272387
-0.0299105
-0.0341562
-0.039087
-0.0439956
-0.0483337
-0.0516936
-0.0537936
-0.0544665
-0.0536485
-0.0513697
-0.0477429
-0.0429537
-0.0372497
-0.0309333
-0.0243588
-0.0179369
-0.0121463
-0.00755443
-0.00484407
-0.0263914
-0.0290169
-0.0331867
-0.0380268
-0.0428426
-0.0470957
-0.0503862
-0.0524377
-0.0530861
-0.0522688
-0.0500151
-0.046436
-0.0417134
-0.036091
-0.029866
-0.0233873
-0.0170591
-0.0113528
-0.0068272
-0.00415541
-0.024752
-0.0272856
-0.031305
-0.0359661
-0.0405989
-0.0446852
-0.0478396
-0.0497962
-0.0503965
-0.0495802
-0.0473752
-0.0438886
-0.039296
-0.0338327
-0.0277866
-0.0214956
-0.0153516
-0.00981158
-0.00541739
-0.00282233
-0.0224307
-0.0248279
-0.0286258
-0.0330243
-0.0373905
-0.0412344
-0.044192