/*--------------------------------*- C++ -*----------------------------------*\
  =========                 |
  \\      /  F ield         | OpenFOAM: The Open Source CFD Toolbox
   \\    /   O peration     | Website:  https://openfoam.org
    \\  /    A nd           | Version:  6
     \\/     M anipulation  |
\*---------------------------------------------------------------------------*/
FoamFile
{
    version     2.0;
    format      ascii;
    class       volVectorField;
    location    "0.084";
    object      U;
}
// * * * * * * * * * * * * * * * * * * * * * * * * * * * * * * * * * * * * * //

dimensions      [0 1 -1 0 0 0 0];

internalField   nonuniform List<vector> 
48800
(
(-4.0978e-09 1.16714e-08 0.0455321)
(1.02395e-08 1.86124e-08 0.100783)
(6.50568e-08 9.28185e-09 0.139791)
(1.56383e-07 1.1413e-08 0.169204)
(2.70213e-07 6.44926e-09 0.191897)
(3.99749e-07 3.58855e-09 0.209385)
(5.25124e-07 2.79745e-09 0.222576)
(6.3248e-07 1.17085e-09 0.232049)
(7.106e-07 3.9671e-10 0.238179)
(7.49795e-07 1.84419e-12 0.24119)
(7.4591e-07 -5.08567e-10 0.241189)
(6.99297e-07 -9.4316e-10 0.238177)
(6.1487e-07 -1.80117e-09 0.232047)
(5.03121e-07 -3.52203e-09 0.222572)
(3.75957e-07 -4.38291e-09 0.209381)
(2.47686e-07 -7.29274e-09 0.191892)
(1.38022e-07 -1.21224e-08 0.169198)
(5.30386e-08 -9.87308e-09 0.139785)
(4.9377e-09 -1.86746e-08 0.100778)
(-4.6739e-09 -1.12833e-08 0.0455294)
(4.42778e-09 5.63994e-08 0.100783)
(7.56457e-08 9.30486e-08 0.246968)
(2.5982e-07 9.1542e-08 0.35734)
(5.29906e-07 7.91754e-08 0.442707)
(8.55701e-07 5.93473e-08 0.509272)
(1.21141e-06 4.17908e-08 0.560828)
(1.55193e-06 2.76031e-08 0.599821)
(1.84171e-06 1.57011e-08 0.627868)
(2.05155e-06 6.82329e-09 0.646031)
(2.15767e-06 -3.52595e-10 0.654959)
(2.14915e-06 -7.26337e-09 0.654957)
(2.02672e-06 -1.48202e-08 0.646028)
(1.80283e-06 -2.44034e-08 0.627862)
(1.50295e-06 -3.71767e-08 0.599812)
(1.15782e-06 -5.21645e-08 0.560818)
(8.04078e-07 -7.01286e-08 0.509259)
(4.86766e-07 -8.94218e-08 0.442693)
(2.30398e-07 -9.98561e-08 0.357327)
(6.17307e-08 -9.77022e-08 0.246958)
(2.45581e-09 -5.68996e-08 0.100778)
(9.33646e-09 1.00233e-07 0.139791)
(1.52666e-07 1.79162e-07 0.357341)
(4.66684e-07 1.85765e-07 0.52827)
(9.07765e-07 1.65451e-07 0.663386)
(1.42404e-06 1.29676e-07 0.77003)
(1.97927e-06 9.45867e-08 0.853211)
(2.50517e-06 6.38763e-08 0.916387)
(2.95023e-06 3.76081e-08 0.961946)
(3.27206e-06 1.66227e-08 0.991497)
(3.43545e-06 -1.21026e-09 1.00603)
(3.42449e-06 -1.84415e-08 1.00603)
(3.24e-06 -3.71388e-08 0.991492)
(2.89974e-06 -5.96993e-08 0.961938)
(2.44102e-06 -8.79191e-08 0.916376)
(1.90831e-06 -1.20446e-07 0.853196)
(1.35479e-06 -1.56472e-07 0.770013)
(8.49003e-07 -1.91168e-07 0.663368)
(4.25913e-07 -2.07431e-07 0.528252)
(1.33007e-07 -1.93165e-07 0.357326)
(6.59915e-09 -1.04398e-07 0.139784)
(1.66868e-08 1.3143e-07 0.169205)
(2.24793e-07 2.44044e-07 0.442708)
(6.57067e-07 2.64599e-07 0.663388)
(1.25042e-06 2.40125e-07 0.840914)
(1.93662e-06 1.94505e-07 0.982627)
(2.66492e-06 1.45426e-07 1.09397)
(3.34958e-06 9.96565e-08 1.17895)
(3.927e-06 5.9906e-08 1.24041)
(4.34378e-06 2.67221e-08 1.28035)
(4.55602e-06 -2.39757e-09 1.30002)
(4.54396e-06 -3.06612e-08 1.30002)
(4.30842e-06 -6.11438e-08 1.28035)
(3.87097e-06 -9.6798e-08 1.2404)
(3.27776e-06 -1.39593e-07 1.17893)
(2.58465e-06 -1.88144e-07 1.09396)
(1.8574e-06 -2.3856e-07 0.982607)
(1.18246e-06 -2.82514e-07 0.840892)
(6.09479e-07 -3.00905e-07 0.663367)
(2.01703e-07 -2.68928e-07 0.442692)
(1.35689e-08 -1.40368e-07 0.169197)
(2.08955e-08 1.43866e-07 0.191899)
(2.85404e-07 2.76543e-07 0.509275)
(8.19001e-07 3.08242e-07 0.770033)
(1.54373e-06 2.85883e-07 0.982629)
(2.37499e-06 2.36939e-07 1.15397)
(3.249e-06 1.80027e-07 1.28949)
(4.06732e-06 1.25039e-07 1.39339)
(4.75577e-06 7.62103e-08 1.46877)
(5.25183e-06 3.40781e-08 1.51786)
(5.50507e-06 -3.67511e-09 1.54206)
(5.49267e-06 -4.04884e-08 1.54206)
(5.21535e-06 -7.99754e-08 1.51785)
(4.69761e-06 -1.25241e-07 1.46876)
(3.99215e-06 -1.7791e-07 1.39337)
(3.16417e-06 -2.36347e-07 1.28947)
(2.29046e-06 -2.94826e-07 1.15394)
(1.47056e-06 -3.41643e-07 0.982605)
(7.67409e-07 -3.56454e-07 0.77001)
(2.60269e-07 -3.10515e-07 0.509256)
(1.75419e-08 -1.56934e-07 0.19189)
(2.39109e-08 1.40503e-07 0.209387)
(3.33462e-07 2.76635e-07 0.560833)
(9.49321e-07 3.14897e-07 0.853216)
(1.78127e-06 2.96848e-07 1.09398)
(2.73122e-06 2.49545e-07 1.28949)
(3.72479e-06 1.91917e-07 1.44501)
(4.65269e-06 1.34778e-07 1.56472)
(5.43176e-06 8.28471e-08 1.65182)
(5.99241e-06 3.69935e-08 1.70863)
(6.27923e-06 -4.68415e-09 1.73667)
(6.26686e-06 -4.54978e-08 1.73667)
(5.95586e-06 -8.90699e-08 1.70863)
(5.37314e-06 -1.38339e-07 1.65181)
(4.57635e-06 -1.9443e-07 1.5647)
(3.63789e-06 -2.55265e-07 1.44499)
(2.6439e-06 -3.14514e-07 1.28947)
(1.70511e-06 -3.59469e-07 1.09395)
(8.95301e-07 -3.69328e-07 0.85319)
(3.0704e-07 -3.15508e-07 0.560812)
(2.03864e-08 -1.55908e-07 0.209378)
(2.61416e-08 1.23239e-07 0.222579)
(3.69353e-07 2.47053e-07 0.599827)
(1.04837e-06 2.85469e-07 0.916394)
(1.9636e-06 2.72272e-07 1.17895)
(3.00666e-06 2.31447e-07 1.39339)
(4.09407e-06 1.79803e-07 1.56472)
(5.10791e-06 1.27307e-07 1.69702)
(5.958e-06 7.86802e-08 1.79352)
(6.56932e-06 3.50554e-08 1.85656)
(6.88256e-06 -5.03416e-09 1.8877)
(6.87032e-06 -4.44453e-08 1.8877)
(6.53307e-06 -8.6345e-08 1.85656)
(5.89956e-06 -1.33225e-07 1.79351)
(5.0313e-06 -1.85801e-07 1.69701)
(4.00624e-06 -2.4178e-07 1.5647)
(2.91778e-06 -2.94915e-07 1.39337)
(1.88561e-06 -3.33458e-07 1.17892)
(9.92771e-07 -3.38791e-07 0.916367)
(3.4205e-07 -2.85381e-07 0.599805)
(2.24874e-08 -1.38634e-07 0.222569)
(2.7428e-08 9.52977e-08 0.232053)
(3.94419e-07 1.93559e-07 0.627875)
(1.11892e-06 2.25998e-07 0.961955)
(2.09484e-06 2.1747e-07 1.24042)
(3.20612e-06 1.86389e-07 1.46878)
(4.36241e-06 1.45805e-07 1.65182)
(5.43945e-06 1.03787e-07 1.79352)
(6.34187e-06 6.43615e-08 1.89706)
(6.99053e-06 2.8598e-08 1.96478)
(7.32326e-06 -4.53927e-09 1.99825)
(7.31116e-06 -3.72135e-08 1.99825)
(6.95463e-06 -7.18399e-08 1.96477)
(6.28373e-06 -1.10276e-07 1.89704)
(5.36284e-06 -1.52933e-07 1.79351)
(4.27409e-06 -1.97788e-07 1.6518)
(3.11629e-06 -2.39561e-07 1.46876)
(2.01564e-06 -2.68721e-07 1.24039)
(1.06223e-06 -2.7071e-07 0.961927)
(3.66489e-07 -2.25791e-07 0.627853)
(2.36758e-08 -1.08325e-07 0.232043)
(2.81677e-08 6.00646e-08 0.238183)
(4.10207e-07 1.23002e-07 0.64604)
(1.16396e-06 1.44591e-07 0.991508)
(2.17926e-06 1.39921e-07 1.28036)
(3.33505e-06 1.20511e-07 1.51787)
(4.53644e-06 9.4649e-08 1.70864)
(5.655e-06 6.75817e-08 1.85657)
(6.59181e-06 4.19786e-08 1.96478)
(7.26502e-06 1.85809e-08 2.03562)
(7.61055e-06 -3.21652e-09 2.07065)
(7.59856e-06 -2.47497e-08 2.07065)
(7.22935e-06 -4.75217e-08 2.03561)
(6.5339e-06 -7.26661e-08 1.96477)
(5.57842e-06 -1.00375e-07 1.85655)
(4.44784e-06 -1.29281e-07 1.70862)
(3.24461e-06 -1.55894e-07 1.51784)
(2.09927e-06 -1.74006e-07 1.28033)
(1.10655e-06 -1.7433e-07 0.991479)
(3.81858e-07 -1.44465e-07 0.646017)
(2.4349e-08 -6.87634e-08 0.238172)
(2.85195e-08 2.04912e-08 0.241195)
(4.17808e-07 4.21279e-08 0.654969)
(1.18582e-06 4.9679e-08 1.00605)
(2.22045e-06 4.81879e-08 1.30003)
(3.39819e-06 4.15748e-08 1.54207)
(4.62187e-06 3.26859e-08 1.73668)
(5.76098e-06 2.33369e-08 1.88771)
(6.71483e-06 1.44578e-08 1.99825)
(7.4002e-06 6.31378e-09 2.07065)
(7.75207e-06 -1.29202e-09 2.10646)
(7.74012e-06 -8.81019e-09 2.10646)
(7.36464e-06 -1.67501e-08 2.07064)
(6.65703e-06 -2.54908e-08 1.99824)
(5.68441e-06 -3.50847e-08 1.88769)
(4.53312e-06 -4.50478e-08 1.73666)
(3.30743e-06 -5.41651e-08 1.54204)
(2.14006e-06 -6.02879e-08 1.3)
(1.12805e-06 -6.02225e-08 1.00602)
(3.89245e-07 -4.97353e-08 0.654945)
(2.46665e-08 -2.3577e-08 0.241184)
(2.85199e-08 -2.05206e-08 0.241195)
(4.17807e-07 -4.2191e-08 0.654969)
(1.18582e-06 -4.97759e-08 1.00605)
(2.22044e-06 -4.83335e-08 1.30003)
(3.39818e-06 -4.17795e-08 1.54207)
(4.62188e-06 -3.29504e-08 1.73668)
(5.76099e-06 -2.3656e-08 1.88771)
(6.71484e-06 -1.48241e-08 1.99825)
(7.40021e-06 -6.71907e-09 2.07065)
(7.75208e-06 8.55831e-10 2.10646)
(7.74013e-06 8.35104e-09 2.10646)
(7.36465e-06 1.62763e-08 2.07064)
(6.65704e-06 2.50116e-08 1.99824)
(5.68442e-06 3.46108e-08 1.88769)
(4.53313e-06 4.45929e-08 1.73666)
(3.30743e-06 5.37433e-08 1.54204)
(2.14006e-06 5.99126e-08 1.3)
(1.12805e-06 5.99121e-08 1.00602)
(3.89242e-07 4.95203e-08 0.654946)
(2.46659e-08 2.34956e-08 0.241184)
(2.81691e-08 -6.00824e-08 0.238183)
(4.10201e-07 -1.23037e-07 0.64604)
(1.16394e-06 -1.44664e-07 0.991508)
(2.17924e-06 -1.40053e-07 1.28036)
(3.33505e-06 -1.20708e-07 1.51787)
(4.53645e-06 -9.49055e-08 1.70864)
(5.65502e-06 -6.78905e-08 1.85657)
(6.59184e-06 -4.23324e-08 1.96478)
(7.26505e-06 -1.89718e-08 2.03562)
(7.61059e-06 2.79698e-09 2.07065)
(7.59859e-06 2.43098e-08 2.07065)
(7.22939e-06 4.70687e-08 2.03561)
(6.53393e-06 7.22071e-08 1.96477)
(5.57845e-06 9.99214e-08 1.85655)
(4.44786e-06 1.28847e-07 1.70862)
(3.24462e-06 1.55491e-07 1.51784)
(2.09927e-06 1.7364e-07 1.28033)
(1.10653e-06 1.74017e-07 0.991479)
(3.81847e-07 1.44241e-07 0.646017)
(2.43473e-08 6.86782e-08 0.238172)
(2.74304e-08 -9.5295e-08 0.232053)
(3.94404e-07 -1.93562e-07 0.627875)
(1.11889e-06 -2.2605e-07 0.961955)
(2.09481e-06 -2.17593e-07 1.24042)
(3.20611e-06 -1.86575e-07 1.46878)
(4.36242e-06 -1.46046e-07 1.65182)
(5.43948e-06 -1.04075e-07 1.79352)
(6.34191e-06 -6.46907e-08 1.89706)
(6.99059e-06 -2.89606e-08 1.96478)
(7.32332e-06 4.15215e-09 1.99825)
(7.31122e-06 3.68094e-08 1.99825)
(6.95468e-06 7.14237e-08 1.96477)
(6.28379e-06 1.09854e-07 1.89704)
(5.3629e-06 1.52519e-07 1.79351)
(4.27414e-06 1.97396e-07 1.6518)
(3.1163e-06 2.39197e-07 1.46876)
(2.01562e-06 2.68383e-07 1.24039)
(1.06219e-06 2.70407e-07 0.961927)
(3.66467e-07 2.25564e-07 0.627853)
(2.36747e-08 1.08238e-07 0.232043)
(2.61449e-08 -1.23229e-07 0.222579)
(3.6933e-07 -2.47068e-07 0.599827)
(1.04832e-06 -2.85543e-07 0.916394)
(1.96355e-06 -2.72402e-07 1.17895)
(3.00663e-06 -2.31622e-07 1.39339)
(4.09408e-06 -1.80022e-07 1.56472)
(5.10795e-06 -1.27567e-07 1.69703)
(5.95806e-06 -7.89746e-08 1.79352)
(6.56939e-06 -3.53773e-08 1.85656)
(6.88264e-06 4.69291e-09 1.8877)
(6.8704e-06 4.40901e-08 1.8877)
(6.53316e-06 8.59792e-08 1.85656)
(5.89965e-06 1.32857e-07 1.79351)
(5.03138e-06 1.85441e-07 1.69701)
(4.0063e-06 2.41439e-07 1.5647)
(2.91779e-06 2.94604e-07 1.39337)
(1.88557e-06 3.33179e-07 1.17892)
(9.92705e-07 3.38544e-07 0.916367)
(3.42021e-07 2.85198e-07 0.599805)
(2.24927e-08 1.38563e-07 0.222569)
(2.39162e-08 -1.40531e-07 0.209387)
(3.33436e-07 -2.76738e-07 0.560833)
(9.49243e-07 -3.15039e-07 0.853216)
(1.78119e-06 -2.96995e-07 1.09398)
(2.73118e-06 -2.49705e-07 1.28949)
(3.7248e-06 -1.9211e-07 1.44501)
(4.65275e-06 -1.35006e-07 1.56472)
(5.43184e-06 -8.31027e-08 1.65182)
(5.9925e-06 -3.7268e-08 1.70863)
(6.27933e-06 4.39638e-09 1.73667)
(6.26696e-06 4.51999e-08 1.73667)
(5.95597e-06 8.87667e-08 1.70863)
(5.37325e-06 1.38036e-07 1.65181)
(4.57645e-06 1.94132e-07 1.5647)
(3.63794e-06 2.54981e-07 1.44499)
(2.64389e-06 3.14266e-07 1.28947)
(1.70504e-06 3.5928e-07 1.09395)
(8.95214e-07 3.69204e-07 0.853191)
(3.07011e-07 3.15439e-07 0.560813)
(2.04008e-08 1.55886e-07 0.209378)
(2.08956e-08 -1.43946e-07 0.191899)
(2.85362e-07 -2.7672e-07 0.509275)
(8.18895e-07 -3.08412e-07 0.770033)
(1.54362e-06 -2.86017e-07 0.982629)
(2.37492e-06 -2.37079e-07 1.15397)
(3.24901e-06 -1.80202e-07 1.28949)
(4.06739e-06 -1.25244e-07 1.39339)
(4.75588e-06 -7.64312e-08 1.46877)
(5.25194e-06 -3.43061e-08 1.51786)
(5.50518e-06 3.4422e-09 1.54206)
(5.49279e-06 4.02526e-08 1.54206)
(5.21548e-06 7.97429e-08 1.51785)
(4.69774e-06 1.25019e-07 1.46876)
(3.99226e-06 1.77698e-07 1.39337)
(3.16421e-06 2.36143e-07 1.28947)
(2.29041e-06 2.94647e-07 1.15394)
(1.47045e-06 3.41543e-07 0.982605)
(7.67308e-07 3.5644e-07 0.77001)
(2.60231e-07 3.1055e-07 0.509256)
(1.75523e-08 1.56961e-07 0.19189)
(1.6667e-08 -1.31477e-07 0.169205)
(2.24702e-07 -2.44108e-07 0.442709)
(6.56923e-07 -2.64644e-07 0.663388)
(1.25027e-06 -2.4018e-07 0.840914)
(1.93653e-06 -1.9462e-07 0.982627)
(2.66493e-06 -1.45598e-07 1.09397)
(3.34966e-06 -9.98538e-08 1.17895)
(3.92712e-06 -6.01051e-08 1.24041)
(4.34391e-06 -2.6913e-08 1.28035)
(4.55614e-06 2.21558e-09 1.30002)
(4.54409e-06 3.04883e-08 1.30002)
(4.30857e-06 6.09871e-08 1.28035)
(3.87112e-06 9.66729e-08 1.2404)
(3.27789e-06 1.39502e-07 1.17893)
(2.58467e-06 1.88059e-07 1.09396)
(1.85731e-06 2.38461e-07 0.982607)
(1.18229e-06 2.82412e-07 0.840892)
(6.09339e-07 3.00841e-07 0.663367)
(2.0163e-07 2.68897e-07 0.442692)
(1.35583e-08 1.40364e-07 0.169197)
(9.30148e-09 -1.00109e-07 0.139791)
(1.52515e-07 -1.78902e-07 0.357341)
(4.66462e-07 -1.85534e-07 0.52827)
(9.07551e-07 -1.65369e-07 0.663387)
(1.42391e-06 -1.29758e-07 0.77003)
(1.97927e-06 -9.47655e-08 0.853211)
(2.50526e-06 -6.40811e-08 0.916387)
(2.95036e-06 -3.78011e-08 0.961947)
(3.27219e-06 -1.679e-08 0.991497)
(3.43557e-06 1.07008e-09 1.00603)
(3.42461e-06 1.83296e-08 1.00603)
(3.24015e-06 3.70663e-08 0.991492)
(2.89992e-06 5.96861e-08 0.961939)
(2.44116e-06 8.79726e-08 0.916376)
(1.90832e-06 1.20518e-07 0.853197)
(1.35463e-06 1.56447e-07 0.770013)
(8.48734e-07 1.90987e-07 0.663368)
(4.25677e-07 2.07128e-07 0.528252)
(1.32875e-07 1.92848e-07 0.357327)
(6.57834e-09 1.04247e-07 0.139784)
(4.41848e-09 -5.61519e-08 0.100783)
(7.54858e-08 -9.26453e-08 0.246968)
(2.59504e-07 -9.11952e-08 0.35734)
(5.29596e-07 -7.90198e-08 0.442707)
(8.55516e-07 -5.9368e-08 0.509272)
(1.21138e-06 -4.19141e-08 0.560828)
(1.55202e-06 -2.77575e-08 0.599821)
(1.84183e-06 -1.5847e-08 0.627868)
(2.05167e-06 -6.94353e-09 0.646031)
(2.15777e-06 2.6511e-10 0.654959)
(2.14926e-06 7.21622e-09 0.654958)
(2.02687e-06 1.48236e-08 0.646028)
(1.80302e-06 2.44663e-08 0.627862)
(1.5031e-06 3.72965e-08 0.599813)
(1.15781e-06 5.22855e-08 0.560818)
(8.03837e-07 7.01359e-08 0.509259)
(4.86365e-07 8.9223e-08 0.442693)
(2.30019e-07 9.94742e-08 0.357327)
(6.156e-08 9.72743e-08 0.246958)
(2.46942e-09 5.66464e-08 0.100778)
(-4.10591e-09 -1.1503e-08 0.0455321)
(1.01401e-08 -1.83398e-08 0.100783)
(6.47846e-08 -9.08577e-09 0.139791)
(1.56121e-07 -1.1337e-08 0.169204)
(2.70056e-07 -6.46269e-09 0.191897)
(3.99714e-07 -3.64501e-09 0.209385)
(5.25167e-07 -2.8608e-09 0.222576)
(6.32549e-07 -1.22516e-09 0.232049)
(7.10663e-07 -4.37455e-10 0.238179)
(7.49846e-07 -2.80449e-11 0.24119)
(7.45966e-07 4.99955e-10 0.24119)
(6.99384e-07 9.59597e-10 0.238177)
(6.14986e-07 1.84773e-09 0.232047)
(5.03212e-07 3.59806e-09 0.222572)
(3.75935e-07 4.47026e-09 0.209381)
(2.47496e-07 7.33275e-09 0.191892)
(1.37697e-07 1.20483e-08 0.169198)
(5.27138e-08 9.66907e-09 0.139785)
(4.82448e-09 1.84118e-08 0.100778)
(-4.65575e-09 1.11372e-08 0.0455294)
(-1.65695e-08 2.43293e-08 0.045532)
(-2.98954e-08 3.84082e-08 0.100783)
(2.29228e-08 2.91836e-08 0.13979)
(1.53085e-07 2.8501e-08 0.169204)
(3.45748e-07 1.99589e-08 0.191897)
(5.80893e-07 1.36187e-08 0.209385)
(8.20185e-07 9.79679e-09 0.222576)
(1.03043e-06 5.63649e-09 0.232049)
(1.18342e-06 2.7249e-09 0.238179)
(1.25724e-06 4.2587e-10 0.24119)
(1.24186e-06 -1.9398e-09 0.24119)
(1.13889e-06 -4.3647e-09 0.238177)
(9.61629e-07 -7.51481e-09 0.232047)
(7.35154e-07 -1.19585e-08 0.222572)
(4.90229e-07 -1.60125e-08 0.209381)
(2.61409e-07 -2.24315e-08 0.191892)
(8.61791e-08 -3.05804e-08 0.169198)
(-1.90913e-08 -3.04306e-08 0.139785)
(-4.71551e-08 -3.77681e-08 0.100778)
(-1.77199e-08 -2.22878e-08 0.0455294)
(-1.22379e-08 1.32385e-07 0.100783)
(4.54811e-08 2.39159e-07 0.246968)
(3.04246e-07 2.55286e-07 0.35734)
(7.55795e-07 2.32666e-07 0.442706)
(1.35762e-06 1.89658e-07 0.509271)
(2.0475e-06 1.44523e-07 0.560827)
(2.73229e-06 1.02651e-07 0.59982)
(3.32646e-06 6.46385e-08 0.627867)
(3.75683e-06 3.13983e-08 0.646031)
(3.96769e-06 9.7502e-10 0.654959)
(3.93249e-06 -2.90635e-08 0.654958)
(3.65474e-06 -6.06656e-08 0.646028)
(3.16809e-06 -9.60069e-08 0.627862)
(2.53522e-06 -1.3647e-07 0.599813)
(1.83521e-06 -1.80248e-07 0.560818)
(1.15701e-06 -2.25524e-07 0.50926)
(5.92611e-07 -2.65285e-07 0.442694)
(1.97045e-07 -2.79867e-07 0.357328)
(-2.6957e-09 -2.50561e-07 0.246958)
(-1.7841e-08 -1.31068e-07 0.100778)
(-4.85346e-09 2.55413e-07 0.139791)
(1.79728e-07 4.85188e-07 0.35734)
(6.90001e-07 5.37831e-07 0.528269)
(1.49146e-06 5.0399e-07 0.663386)
(2.50262e-06 4.23731e-07 0.770029)
(3.62863e-06 3.3085e-07 0.85321)
(4.72776e-06 2.38845e-07 0.916386)
(5.67322e-06 1.52306e-07 0.961946)
(6.35655e-06 7.32984e-08 0.991496)
(6.69446e-06 -9.98836e-10 1.00603)
(6.6472e-06 -7.47314e-08 1.00603)
(6.2192e-06 -1.51684e-07 0.991492)
(5.45935e-06 -2.35371e-07 0.961939)
(4.46007e-06 -3.273e-07 0.916376)
(3.33799e-06 -4.23415e-07 0.853197)
(2.22516e-06 -5.16451e-07 0.770014)
(1.26267e-06 -5.89639e-07 0.663369)
(5.36913e-07 -6.06498e-07 0.528253)
(1.09164e-07 -5.26312e-07 0.357327)
(-1.32938e-08 -2.65159e-07 0.139784)
(7.51678e-09 3.54805e-07 0.169205)
(3.28833e-07 6.93272e-07 0.442708)
(1.09635e-06 7.90942e-07 0.663387)
(2.24115e-06 7.54829e-07 0.840913)
(3.64521e-06 6.48246e-07 0.982626)
(5.17767e-06 5.14449e-07 1.09397)
(6.65652e-06 3.75291e-07 1.17894)
(7.9211e-06 2.41102e-07 1.24041)
(8.83328e-06 1.15114e-07 1.28035)
(9.28753e-06 -5.46566e-09 1.30002)
(9.23327e-06 -1.25595e-07 1.30002)
(8.67532e-06 -2.50301e-07 1.28035)
(7.67423e-06 -3.83519e-07 1.2404)
(6.34592e-06 -5.25963e-07 1.17893)
(4.83821e-06 -6.71274e-07 1.09396)
(3.31865e-06 -8.05043e-07 0.982608)
(1.96955e-06 -9.00741e-07 0.840893)
(9.12985e-07 -9.11168e-07 0.663367)
(2.43575e-07 -7.71598e-07 0.442692)
(-2.60766e-09 -3.80338e-07 0.169197)
(1.68775e-08 4.07985e-07 0.191898)
(4.6864e-07 8.16996e-07 0.509274)
(1.4757e-06 9.50769e-07 0.770032)
(2.93766e-06 9.2231e-07 0.982628)
(4.69946e-06 8.04245e-07 1.15396)
(6.5968e-06 6.4559e-07 1.28949)
(8.41449e-06 4.74952e-07 1.39339)
(9.96229e-06 3.0661e-07 1.46877)
(1.1077e-05 1.45189e-07 1.51786)
(1.16351e-05 -1.1246e-08 1.54206)
(1.15769e-05 -1.67606e-07 1.54206)
(1.09074e-05 -3.29236e-07 1.51785)
(9.69635e-06 -4.99724e-07 1.46877)
(8.07833e-06 -6.78344e-07 1.39337)
(6.22733e-06 -8.56492e-07 1.28947)
(4.34183e-06 -1.01481e-06 1.15394)
(2.63841e-06 -1.11905e-06 0.982606)
(1.27257e-06 -1.11524e-06 0.770011)
(3.73813e-07 -9.28252e-07 0.509256)
(5.68135e-09 -4.48115e-07 0.19189)
(2.44123e-08 4.13033e-07 0.209387)
(5.88599e-07 8.42312e-07 0.560832)
(1.80349e-06 9.95262e-07 0.853215)
(3.54052e-06 9.77522e-07 1.09398)
(5.61188e-06 8.61502e-07 1.28949)
(7.82421e-06 6.97591e-07 1.44501)
(9.93348e-06 5.16612e-07 1.56471)
(1.1724e-05 3.345e-07 1.65182)
(1.30122e-05 1.57128e-07 1.70863)
(1.36598e-05 -1.63558e-08 1.73667)
(1.35995e-05 -1.90225e-07 1.73667)
(1.28361e-05 -3.69343e-07 1.70863)
(1.14471e-05 -5.56519e-07 1.65181)
(9.58195e-06 -7.49668e-07 1.5647)
(7.43601e-06 -9.38574e-07 1.44499)
(5.23426e-06 -1.10181e-06 1.28947)
(3.22304e-06 -1.20252e-06 1.09395)
(1.58711e-06 -1.18483e-06 0.853191)
(4.87309e-07 -9.72949e-07 0.560813)
(1.24706e-08 -4.62234e-07 0.209378)
(3.0224e-08 3.72639e-07 0.222578)
(6.84287e-07 7.7051e-07 0.599826)
(2.06793e-06 9.20701e-07 0.916393)
(4.02961e-06 9.12658e-07 1.17895)
(6.35468e-06 8.10928e-07 1.39339)
(8.82498e-06 6.6113e-07 1.56472)
(1.11727e-05 4.92011e-07 1.69702)
(1.31616e-05 3.19163e-07 1.79352)
(1.45915e-05 1.48877e-07 1.85656)
(1.53124e-05 -1.88527e-08 1.8877)
(1.52509e-05 -1.87326e-07 1.8877)
(1.44117e-05 -3.60412e-07 1.85656)
(1.2878e-05 -5.39991e-07 1.79351)
(1.08115e-05 -7.23243e-07 1.69701)
(8.42462e-06 -8.99717e-07 1.5647)
(5.96368e-06 -1.0486e-06 1.39337)
(3.69967e-06 -1.13539e-06 1.17893)
(1.84235e-06 -1.10914e-06 0.916368)
(5.78429e-07 -9.01609e-07 0.599806)
(1.77298e-08 -4.23046e-07 0.222569)
(3.41049e-08 2.94346e-07 0.232053)
(7.54883e-07 6.1475e-07 0.627875)
(2.26545e-06 7.40456e-07 0.961954)
(4.39728e-06 7.38977e-07 1.24042)
(6.91508e-06 6.60514e-07 1.46878)
(9.58153e-06 5.41093e-07 1.65182)
(1.21107e-05 4.04031e-07 1.79352)
(1.42506e-05 2.62389e-07 1.89705)
(1.57884e-05 1.217e-07 1.96478)
(1.65652e-05 -1.75968e-08 1.99825)
(1.6503e-05 -1.5774e-07 1.99825)
(1.56063e-05 -3.01429e-07 1.96477)
(1.39628e-05 -4.49722e-07 1.89705)
(1.17433e-05 -5.99837e-07 1.79351)
(9.17305e-06 -7.42807e-07 1.6518)
(6.51497e-06 -8.61273e-07 1.46876)
(4.05871e-06 -9.27177e-07 1.24039)
(2.03341e-06 -9.00014e-07 0.961928)
(6.45765e-07 -7.263e-07 0.627854)
(2.11978e-08 -3.37684e-07 0.232043)
(3.65106e-08 1.88079e-07 0.238183)
(8.01143e-07 3.9533e-07 0.64604)
(2.39607e-06 4.78633e-07 0.991506)
(4.64161e-06 4.79763e-07 1.28036)
(7.28867e-06 4.30421e-07 1.51787)
(1.00869e-05 3.53656e-07 1.70864)
(1.27381e-05 2.64625e-07 1.85657)
(1.49796e-05 1.71958e-07 1.96478)
(1.659e-05 7.94172e-08 2.03562)
(1.74045e-05 -1.25185e-08 2.07065)
(1.73419e-05 -1.05109e-07 2.07065)
(1.64065e-05 -1.99918e-07 2.03561)
(1.46893e-05 -2.97424e-07 1.96477)
(1.23668e-05 -3.95604e-07 1.85655)
(9.67326e-06 -4.88436e-07 1.70862)
(6.88269e-06 -5.64468e-07 1.51784)
(4.29744e-06 -6.0542e-07 1.28034)
(2.1598e-06 -5.85268e-07 0.99148)
(6.89866e-07 -4.70062e-07 0.646018)
(2.33219e-08 -2.17263e-07 0.238173)
(3.76733e-08 6.46202e-08 0.241195)
(8.23977e-07 1.36254e-07 0.654968)
(2.46092e-06 1.6538e-07 1.00604)
(4.76331e-06 1.66111e-07 1.30003)
(7.47516e-06 1.49279e-07 1.54207)
(1.03396e-05 1.22814e-07 1.73668)
(1.30521e-05 9.19662e-08 1.88771)
(1.53446e-05 5.97441e-08 1.99825)
(1.69916e-05 2.74808e-08 2.07065)
(1.7825e-05 -4.62314e-09 2.10646)
(1.77622e-05 -3.69702e-08 2.10646)
(1.68074e-05 -7.00683e-08 2.07065)
(1.50531e-05 -1.04047e-07 1.99824)
(1.26788e-05 -1.38166e-07 1.88769)
(9.92334e-06 -1.70306e-07 1.73666)
(7.06625e-06 -1.96474e-07 1.54204)
(4.41633e-06 -2.10334e-07 1.30001)
(2.22253e-06 -2.02914e-07 1.00602)
(7.1161e-07 -1.62584e-07 0.654946)
(2.43398e-08 -7.49251e-08 0.241184)
(3.76742e-08 -6.46296e-08 0.241195)
(8.23977e-07 -1.36268e-07 0.654968)
(2.46091e-06 -1.65407e-07 1.00604)
(4.7633e-06 -1.66172e-07 1.30003)
(7.47515e-06 -1.49387e-07 1.54207)
(1.03396e-05 -1.22974e-07 1.73668)
(1.30521e-05 -9.21739e-08 1.88771)
(1.53447e-05 -5.99945e-08 1.99825)
(1.69916e-05 -2.77674e-08 2.07065)
(1.7825e-05 4.30721e-09 2.10646)
(1.77622e-05 3.66319e-08 2.10646)
(1.68074e-05 6.97149e-08 2.07065)
(1.50531e-05 1.03686e-07 1.99824)
(1.26788e-05 1.37807e-07 1.88769)
(9.92335e-06 1.69959e-07 1.73666)
(7.06626e-06 1.96149e-07 1.54204)
(4.41633e-06 2.10041e-07 1.30001)
(2.22252e-06 2.02667e-07 1.00602)
(7.11607e-07 1.6241e-07 0.654946)
(2.43397e-08 7.48592e-08 0.241184)
(3.65137e-08 -1.88078e-07 0.238183)
(8.01139e-07 -3.95321e-07 0.64604)
(2.39605e-06 -4.78643e-07 0.991506)
(4.6416e-06 -4.79817e-07 1.28036)
(7.28867e-06 -4.30528e-07 1.51787)
(1.00869e-05 -3.53813e-07 1.70864)
(1.27381e-05 -2.64829e-07 1.85657)
(1.49796e-05 -1.72202e-07 1.96478)
(1.65901e-05 -7.9696e-08 2.03562)
(1.74046e-05 1.22126e-08 2.07065)
(1.7342e-05 1.04784e-07 2.07065)
(1.64066e-05 1.99578e-07 2.03561)
(1.46893e-05 2.97077e-07 1.96477)
(1.23668e-05 3.95258e-07 1.85655)
(9.67328e-06 4.88104e-07 1.70862)
(6.8827e-06 5.64157e-07 1.51784)
(4.29743e-06 6.05133e-07 1.28034)
(2.15978e-06 5.85016e-07 0.99148)
(6.89855e-07 4.69878e-07 0.646018)
(2.33212e-08 2.17193e-07 0.238173)
(3.41093e-08 -2.94329e-07 0.232053)
(7.54871e-07 -6.14718e-07 0.627875)
(2.26542e-06 -7.40456e-07 0.961954)
(4.39725e-06 -7.39033e-07 1.24042)
(6.91507e-06 -6.60622e-07 1.46878)
(9.58154e-06 -5.41246e-07 1.65182)
(1.21107e-05 -4.04226e-07 1.79352)
(1.42506e-05 -2.62621e-07 1.89705)
(1.57884e-05 -1.21963e-07 1.96478)
(1.65653e-05 1.73108e-08 1.99825)
(1.65031e-05 1.57438e-07 1.99825)
(1.56063e-05 3.01114e-07 1.96477)
(1.39629e-05 4.494e-07 1.89705)
(1.17433e-05 5.9952e-07 1.79351)
(9.1731e-06 7.42506e-07 1.6518)
(6.51499e-06 8.60991e-07 1.46876)
(4.05869e-06 9.26911e-07 1.24039)
(2.03337e-06 8.99769e-07 0.961929)
(6.45744e-07 7.26113e-07 0.627854)
(2.11981e-08 3.37613e-07 0.232043)
(3.02289e-08 -3.7262e-07 0.222578)
(6.84267e-07 -7.705e-07 0.599826)
(2.06788e-06 -9.20735e-07 0.916393)
(4.02957e-06 -9.12734e-07 1.17895)
(6.35466e-06 -8.11038e-07 1.39339)
(8.825e-06 -6.61275e-07 1.56472)
(1.11727e-05 -4.92192e-07 1.69702)
(1.31617e-05 -3.19376e-07 1.79352)
(1.45916e-05 -1.49116e-07 1.85656)
(1.53125e-05 1.85966e-08 1.8877)
(1.5251e-05 1.87057e-07 1.8877)
(1.44118e-05 3.60132e-07 1.85656)
(1.28781e-05 5.39708e-07 1.79351)
(1.08116e-05 7.22965e-07 1.69701)
(8.42468e-06 8.99453e-07 1.5647)
(5.9637e-06 1.04836e-06 1.39337)
(3.69963e-06 1.13517e-06 1.17893)
(1.84229e-06 1.10895e-06 0.916368)
(5.78401e-07 9.01464e-07 0.599806)
(1.77359e-08 4.22991e-07 0.222569)
(2.44171e-08 -4.13057e-07 0.209387)
(5.88574e-07 -8.42397e-07 0.560832)
(1.80341e-06 -9.95373e-07 0.853215)
(3.54045e-06 -9.77625e-07 1.09398)
(5.61184e-06 -8.6161e-07 1.28949)
(7.82423e-06 -6.97726e-07 1.44501)
(9.93354e-06 -5.16779e-07 1.56471)
(1.17241e-05 -3.34692e-07 1.65182)
(1.30123e-05 -1.57337e-07 1.70863)
(1.36599e-05 1.61352e-08 1.73667)
(1.35996e-05 1.89995e-07 1.73667)
(1.28362e-05 3.69109e-07 1.70863)
(1.14472e-05 5.56285e-07 1.65181)
(9.58205e-06 7.49436e-07 1.5647)
(7.43607e-06 9.38351e-07 1.44499)
(5.23425e-06 1.10162e-06 1.28947)
(3.22297e-06 1.20238e-06 1.09395)
(1.58703e-06 1.18475e-06 0.853192)
(4.8728e-07 9.72909e-07 0.560813)
(1.24837e-08 4.62225e-07 0.209378)
(1.68765e-08 -4.08061e-07 0.191898)
(4.686e-07 -8.17155e-07 0.509274)
(1.47561e-06 -9.50911e-07 0.770032)
(2.93755e-06 -9.22409e-07 0.982628)
(4.6994e-06 -8.04346e-07 1.15396)
(6.5968e-06 -6.45722e-07 1.28949)
(8.41456e-06 -4.75112e-07 1.39339)
(9.96239e-06 -3.06784e-07 1.46877)
(1.10771e-05 -1.45368e-07 1.51786)
(1.16352e-05 1.1063e-08 1.54206)
(1.15771e-05 1.67421e-07 1.54206)
(1.09075e-05 3.29055e-07 1.51786)
(9.69649e-06 4.99553e-07 1.46877)
(8.07844e-06 6.78181e-07 1.39337)
(6.22737e-06 8.56334e-07 1.28947)
(4.34179e-06 1.01468e-06 1.15395)
(2.63831e-06 1.11898e-06 0.982606)
(1.27247e-06 1.11525e-06 0.770011)
(3.73774e-07 9.28307e-07 0.509257)
(5.68879e-09 4.48148e-07 0.19189)
(7.49714e-09 -3.54846e-07 0.169205)
(3.28746e-07 -6.9332e-07 0.442708)
(1.09621e-06 -7.90964e-07 0.663387)
(2.241e-06 -7.5486e-07 0.840913)
(3.64513e-06 -6.48335e-07 0.982626)
(5.17767e-06 -5.14591e-07 1.09397)
(6.6566e-06 -3.75456e-07 1.17894)
(7.92122e-06 -2.41269e-07 1.24041)
(8.83341e-06 -1.15272e-07 1.28035)
(9.28766e-06 5.31762e-09 1.30002)
(9.23341e-06 1.25457e-07 1.30002)
(8.67548e-06 2.50181e-07 1.28035)
(7.6744e-06 3.83429e-07 1.2404)
(6.34605e-06 5.25906e-07 1.17893)
(4.83824e-06 6.71221e-07 1.09396)
(3.31855e-06 8.04969e-07 0.982609)
(1.96939e-06 9.00665e-07 0.840893)
(9.12853e-07 9.11124e-07 0.663368)
(2.43503e-07 7.71579e-07 0.442692)
(-2.62161e-09 3.80337e-07 0.169197)
(-4.88423e-09 -2.55289e-07 0.139791)
(1.7958e-07 -4.84916e-07 0.357341)
(6.89783e-07 -5.37588e-07 0.52827)
(1.49126e-06 -5.03896e-07 0.663386)
(2.5025e-06 -4.23798e-07 0.770029)
(3.62862e-06 -3.31011e-07 0.85321)
(4.72785e-06 -2.39031e-07 0.916386)
(5.67335e-06 -1.52481e-07 0.961946)
(6.35668e-06 -7.34468e-08 0.991497)
(6.69459e-06 8.78458e-10 1.00603)
(6.64733e-06 7.4641e-08 1.00603)
(6.21937e-06 1.51634e-07 0.991493)
(5.45954e-06 2.3538e-07 0.961939)
(4.46022e-06 3.27375e-07 0.916377)
(3.33801e-06 4.23501e-07 0.853198)
(2.225e-06 5.16437e-07 0.770014)
(1.26242e-06 5.89469e-07 0.663369)
(5.36687e-07 6.06206e-07 0.528253)
(1.09033e-07 5.26003e-07 0.357327)
(-1.33181e-08 2.65013e-07 0.139784)
(-1.22456e-08 -1.32132e-07 0.100783)
(4.53118e-08 -2.38742e-07 0.246968)
(3.03934e-07 -2.5494e-07 0.35734)
(7.55491e-07 -2.32509e-07 0.442706)
(1.35744e-06 -1.89676e-07 0.509271)
(2.04748e-06 -1.44643e-07 0.560828)
(2.73237e-06 -1.02801e-07 0.59982)
(3.32658e-06 -6.47785e-08 0.627867)
(3.75694e-06 -3.15114e-08 0.646031)
(3.96779e-06 -1.05463e-09 0.654959)
(3.9326e-06 2.90239e-08 0.654958)
(3.6549e-06 6.06762e-08 0.646028)
(3.16828e-06 9.60771e-08 0.627863)
(2.53537e-06 1.36595e-07 0.599813)
(1.8352e-06 1.80375e-07 0.560818)
(1.15678e-06 2.25536e-07 0.50926)
(5.92221e-07 2.65088e-07 0.442694)
(1.96676e-07 2.79485e-07 0.357328)
(-2.86242e-09 2.50135e-07 0.246958)
(-1.78318e-08 1.30817e-07 0.100778)
(-1.65637e-08 -2.41745e-08 0.045532)
(-2.99964e-08 -3.81368e-08 0.100783)
(2.26579e-08 -2.89887e-08 0.13979)
(1.52828e-07 -2.84272e-08 0.169204)
(3.45594e-07 -1.99756e-08 0.191897)
(5.80857e-07 -1.36789e-08 0.209385)
(8.20224e-07 -9.86343e-09 0.222576)
(1.03049e-06 -5.69307e-09 0.232049)
(1.18348e-06 -2.76703e-09 0.238179)
(1.2573e-06 -4.52925e-10 0.24119)
(1.24192e-06 1.93041e-09 0.24119)
(1.13898e-06 4.38036e-09 0.238177)
(9.61749e-07 7.56161e-09 0.232047)
(7.35244e-07 1.20363e-08 0.222573)
(4.90202e-07 1.61015e-08 0.209381)
(2.61217e-07 2.24705e-08 0.191892)
(8.5858e-08 3.05031e-08 0.169198)
(-1.94078e-08 3.02195e-08 0.139785)
(-4.72615e-08 3.74995e-08 0.100778)
(-1.76995e-08 2.21426e-08 0.0455294)
(-2.97022e-08 3.95461e-08 0.0455319)
(-6.44588e-08 6.13295e-08 0.100783)
(1.25155e-09 5.16349e-08 0.13979)
(1.9267e-07 4.74911e-08 0.169203)
(4.91348e-07 3.47963e-08 0.191896)
(8.61009e-07 2.45228e-08 0.209384)
(1.24183e-06 1.73311e-08 0.222575)
(1.57852e-06 1.03892e-08 0.232049)
(1.82358e-06 5.15572e-09 0.238178)
(1.94114e-06 8.0166e-10 0.24119)
(1.91425e-06 -3.56741e-09 0.24119)
(1.74564e-06 -8.16094e-09 0.238178)
(1.45773e-06 -1.38437e-08 0.232047)
(1.09186e-06 -2.13389e-08 0.222573)
(7.00219e-07 -2.90236e-08 0.209381)
(3.40867e-07 -3.95035e-08 0.191892)
(7.26242e-08 -5.16171e-08 0.169199)
(-7.44876e-08 -5.421e-08 0.139785)
(-9.56751e-08 -6.05056e-08 0.100779)
(-3.1765e-08 -3.60258e-08 0.0455294)
(-2.79342e-08 2.2043e-07 0.100783)
(3.92423e-08 4.04221e-07 0.246968)
(4.18511e-07 4.37196e-07 0.357339)
(1.11565e-06 4.01124e-07 0.442705)
(2.0686e-06 3.31257e-07 0.50927)
(3.17124e-06 2.55157e-07 0.560826)
(4.27482e-06 1.82746e-07 0.599819)
(5.23689e-06 1.16284e-07 0.627866)
(5.93435e-06 5.67217e-08 0.64603)
(6.27509e-06 1.275e-09 0.654958)
(6.21421e-06 -5.36996e-08 0.654958)
(5.75747e-06 -1.11405e-07 0.646029)
(4.9615e-06 -1.75007e-07 0.627863)
(3.93037e-06 -2.46243e-07 0.599814)
(2.79793e-06 -3.22507e-07 0.560819)
(1.71356e-06 -3.9923e-07 0.509261)
(8.25117e-07 -4.63497e-07 0.442695)
(2.26711e-07 -4.84997e-07 0.357328)
(-4.73438e-08 -4.27647e-07 0.246958)
(-3.79452e-08 -2.19373e-07 0.100778)
(-1.64292e-08 4.30977e-07 0.139791)
(2.49565e-07 8.26094e-07 0.35734)