/*--------------------------------*- C++ -*----------------------------------*\
  =========                 |
  \\      /  F ield         | OpenFOAM: The Open Source CFD Toolbox
   \\    /   O peration     | Website:  https://openfoam.org
    \\  /    A nd           | Version:  6
     \\/     M anipulation  |
\*---------------------------------------------------------------------------*/
FoamFile
{
    version     2.0;
    format      ascii;
    class       volVectorField;
    location    "200";
    object      U;
}
// * * * * * * * * * * * * * * * * * * * * * * * * * * * * * * * * * * * * * //

dimensions      [0 1 -1 0 0 0 0];

internalField   nonuniform List<vector> 
7000
(
(0.000598469 0.000593004 0.997875)
(0.000754588 0.00059311 0.999417)
(0.000210235 0.000591943 0.998952)
(7.82032e-05 0.000590953 0.998954)
(1.65075e-05 0.00058974 0.998957)
(-4.48584e-05 0.000588389 0.998958)
(-0.000102896 0.000587039 0.998957)
(-0.000228688 0.000585854 0.998958)
(-0.000768338 0.000585255 0.999426)
(-0.000604753 0.000582871 0.997884)
(0.000598574 0.000746193 0.999407)
(0.000753237 0.000744855 1.00095)
(0.000208193 0.000743461 1.00048)
(7.58439e-05 0.000741633 1.00048)
(1.38666e-05 0.000739486 1.00048)
(-4.75975e-05 0.000737137 1.00048)
(-0.000105367 0.000734797 1.00048)
(-0.000230636 0.000732724 1.00048)
(-0.000771096 0.000730794 1.00094)
(-0.00060717 0.000727829 0.999396)
(0.000597428 0.000204069 0.998947)
(0.000751858 0.000202088 1.00049)
(0.000206893 0.000200779 1.00002)
(7.41915e-05 0.000199033 1.00002)
(1.19521e-05 0.00019689 1.00003)
(-4.9623e-05 0.000194518 1.00003)
(-0.000107378 0.00019209 1.00002)
(-0.000232619 0.000189731 1.00002)
(-0.000773337 0.000187343 1.00049)
(-0.000608086 0.000184596 0.998943)
(0.000596473 7.09011e-05 0.998948)
(0.000750041 6.86509e-05 1.00049)
(0.000205123 6.69374e-05 1.00002)
(7.19625e-05 6.4682e-05 1.00002)
(9.34034e-06 6.18605e-05 1.00003)
(-5.24268e-05 5.86702e-05 1.00003)
(-0.000110195 5.5337e-05 1.00002)
(-0.000235391 5.20749e-05 1.00002)
(-0.000776427 4.88583e-05 1.00049)
(-0.000609876 4.4955e-05 0.99894)
(0.000595317 7.80443e-06 0.998951)
(0.000747897 5.31728e-06 1.00049)
(0.000202896 3.29646e-06 1.00003)
(6.91123e-05 6.35558e-07 1.00003)
(5.93733e-06 -2.74567e-06 1.00003)
(-5.61498e-05 -6.63347e-06 1.00003)
(-0.000113975 -1.07536e-05 1.00002)
(-0.000239074 -1.47867e-05 1.00002)
(-0.000780562 -1.86734e-05 1.00049)
(-0.000612212 -2.34717e-05 0.998939)
(0.000594049 -5.4359e-05 0.998952)
(0.000745564 -5.69088e-05 1.00049)
(0.000200432 -5.9024e-05 1.00003)
(6.59201e-05 -6.18106e-05 1.00003)
(2.07067e-06 -6.53975e-05 1.00003)
(-6.04349e-05 -6.95736e-05 1.00003)
(-0.000118348 -7.40366e-05 1.00002)
(-0.000243303 -7.83908e-05 1.00002)
(-0.000785248 -8.25103e-05 1.00049)
(-0.000614829 -8.75897e-05 0.998934)
(0.000592801 -0.00011257 0.998949)
(0.000743293 -0.000114826 1.00048)
(0.000198006 -0.000116792 1.00002)
(6.27413e-05 -0.000119383 1.00002)
(-1.82405e-06 -0.000122754 1.00002)
(-6.4787e-05 -0.000126714 1.00002)
(-0.000122792 -0.00013097 1.00002)
(-0.000247561 -0.000135088 1.00002)
(-0.000789917 -0.00013892 1.00049)
(-0.00061741 -0.000143688 0.998927)
(0.000591741 -0.000238403 0.998949)
(0.000741421 -0.00024011 1.00048)
(0.000195904 -0.000241808 1.00002)
(5.99611e-05 -0.000244019 1.00002)
(-5.25832e-06 -0.000246909 1.00002)
(-6.86476e-05 -0.00025032 1.00002)
(-0.00012672 -0.00025399 1.00002)
(-0.000251284 -0.000257507 1.00001)
(-0.000794005 -0.000260648 1.00049)
(-0.000619613 -0.000264796 0.998924)
(0.0005913 -0.000780348 0.999422)
(0.000739869 -0.000782526 1.00095)
(0.000194114 -0.000784136 1.00049)
(5.76347e-05 -0.00078628 1.00049)
(-8.11361e-06 -0.000789158 1.0005)
(-7.18366e-05 -0.00079251 1.0005)
(-0.000129932 -0.000796056 1.00049)
(-0.000254208 -0.00079947 1.00049)
(-0.000797217 -0.000802448 1.00097)
(-0.000621807 -0.000805864 0.999401)
(0.000589348 -0.000611835 0.997867)
(0.000737746 -0.000613815 0.999396)
(0.000192317 -0.000614318 0.998936)
(5.50239e-05 -0.000615542 0.998935)
(-1.13674e-05 -0.000617127 0.998936)
(-7.53891e-05 -0.00061893 0.998934)
(-0.000133505 -0.000620792 0.998928)
(-0.000257633 -0.00062253 0.998925)
(-0.000800357 -0.000624486 0.9994)
(-0.000622751 -0.000625463 0.997832)
(0.00145642 0.00144947 0.994402)
(0.00169912 0.00145323 0.999241)
(0.00039378 0.00144906 0.997379)
(0.000217297 0.00144784 0.997368)
(2.65774e-05 0.00144588 0.997357)
(-0.000172849 0.00144387 0.997355)
(-0.000349836 0.00144212 0.997362)
(-0.000498669 0.00144048 0.997367)
(-0.00177978 0.00144284 0.999248)
(-0.00149315 0.0014356 0.994376)
(0.00146001 0.00169867 0.999207)
(0.00169782 0.00169764 1.00405)
(0.000389937 0.00169483 1.00218)
(0.000213264 0.00169227 1.00216)
(2.20709e-05 0.00168938 1.00215)
(-0.000177262 0.00168651 1.00214)
(-0.00035346 0.00168399 1.00214)
(-0.000500382 0.00168234 1.00214)
(-0.0017841 0.00168234 1.00402)
(-0.00150021 0.00167745 0.999137)
(0.00145569 0.000409145 0.997362)
(0.00169477 0.000405424 1.0022)
(0.000388601 0.000404016 1.00033)
(0.000211385 0.000401527 1.00032)
(2.00621e-05 0.000398694 1.00031)
(-0.000179215 0.0003958 1.0003)
(-0.000355106 0.000393033 1.00031)
(-0.00050174 0.000390819 1.00031)
(-0.00178459 0.000388698 1.0022)
(-0.00149838 0.000384937 0.997312)
(0.00145411 0.000236934 0.997354)
(0.0016916 0.000232631 1.00218)
(0.000385858 0.000230144 1.00032)
(0.000207844 0.000226266 1.00031)
(1.6172e-05 0.000221594 1.0003)
(-0.000183153 0.000216539 1.00029)
(-0.000358702 0.000211401 1.0003)
(-0.000504747 0.000206855 1.0003)
(-0.00178864 0.000202879 1.00219)
(-0.00150161 0.000194799 0.997295)
(0.00145147 4.88347e-05 0.997345)
(0.00168744 4.34559e-05 1.00217)
(0.000382076 4.01806e-05 1.00031)
(0.0002028 3.52374e-05 1.0003)
(1.03026e-05 2.90248e-05 1.00028)
(-0.000189427 2.2032e-05 1.00028)
(-0.000364797 1.46744e-05 1.00028)
(-0.000510049 7.86234e-06 1.00028)
(-0.00179561 2.06437e-06 1.00218)
(-0.00150626 -9.20727e-06 0.997272)
(0.00144842 -0.000149408 0.997346)
(0.00168257 -0.000155424 1.00216)
(0.000377544 -0.000159207 1.00031)
(0.000196669 -0.000164776 1.00029)
(2.95395e-06 -0.000171954 1.00028)
(-0.0001975 -0.000180229 1.00027)
(-0.000372857 -0.000189092 1.00027)
(-0.000517181 -0.00019746 1.00027)
(-0.00180482 -0.000204451 1.00218)
(-0.00151228 -0.000217649 0.997253)
(0.00144525 -0.000326845 0.997356)
(0.00167747 -0.00033274 1.00217)
(0.000372709 -0.000336515 1.00031)
(0.000190049 -0.000341996 1.0003)
(-5.14593e-06 -0.000349233 1.00028)
(-0.000206545 -0.000357729 1.00027)
(-0.000382002 -0.000366923 1.00027)
(-0.000525303 -0.000375678 1.00027)
(-0.00181515 -0.000382823 1.00218)
(-0.00151898 -0.000396247 0.99724)
(0.00144195 -0.000478925 0.997365)
(0.00167295 -0.000483136 1.00217)
(0.000368338 -0.000486513 1.00032)
(0.000183953 -0.000491237 1.0003)
(-1.27706e-05 -0.00049755 1.00028)
(-0.000215167 -0.000505012 1.00027)
(-0.000390779 -0.000513117 1.00027)
(-0.000533056 -0.000520817 1.00027)
(-0.00182504 -0.000526726 1.00218)
(-0.0015249 -0.000539323 0.997227)
(0.00144284 -0.00177451 0.999264)
(0.00167054 -0.00178203 1.00407)
(0.000364656 -0.00178487 1.00222)
(0.000179022 -0.0017907 1.00221)
(-1.88393e-05 -0.00179836 1.0022)
(-0.000221949 -0.00180723 1.00219)
(-0.000397589 -0.00181663 1.00219)
(-0.000538737 -0.00182553 1.00219)
(-0.00183395 -0.00183404 1.00411)
(-0.00153323 -0.00184511 0.999152)
(0.0014337 -0.00149667 0.99436)
(0.00166258 -0.00150566 0.999142)
(0.000359122 -0.00150523 0.997297)
(0.000170527 -0.00150945 0.997276)
(-2.90162e-05 -0.00151432 0.997252)
(-0.000232955 -0.00151988 0.997235)
(-0.00040843 -0.00152567 0.997225)
(-0.000549309 -0.00153065 0.997214)
(-0.00184423 -0.0015385 0.999128)
(-0.0015351 -0.00154045 0.994143)
(0.0019781 0.00195903 0.990289)
(0.00212078 0.00196672 0.998925)
(0.00039396 0.00195686 0.995663)
(0.000361273 0.0019547 0.995639)
(5.51216e-05 0.00195024 0.995577)
(-0.000244385 0.00194591 0.995572)
(-0.000534479 0.00194223 0.995625)
(-0.000529282 0.00193805 0.995634)
(-0.00223187 0.00194512 0.998937)
(-0.00203428 0.00192861 0.990209)
(0.00198555 0.00210102 0.99885)
(0.00211877 0.00209916 1.00748)
(0.00038719 0.00209172 1.00421)
(0.000353953 0.00208647 1.00418)
(4.62908e-05 0.00208012 1.0041)
(-0.000253235 0.00207383 1.00408)
(-0.000542438 0.00206832 1.00413)
(-0.000532404 0.00206428 1.00413)
(-0.00224149 0.00206784 1.00744)
(-0.0020502 0.00205607 0.998679)
(0.00197545 0.000391223 0.995626)
(0.00211095 0.000384119 1.00425)
(0.000384268 0.000381 1.00098)
(0.000349695 0.000375087 1.00096)
(4.1906e-05 0.000368547 1.00089)
(-0.000257371 0.000361814 1.00088)
(-0.00054566 0.000355452 1.00092)
(-0.000534056 0.000350637 1.00093)
(-0.00223984 0.000348106 1.00425)
(-0.00204515 0.0003394 0.995498)
(0.00197268 0.00035739 0.995605)
(0.00210466 0.000348893 1.00422)
(0.000377903 0.000343475 1.00096)
(0.000341306 0.000334522 1.00093)
(3.27195e-05 0.000323863 1.00086)
(-0.000266645 0.000312307 1.00085)
(-0.000553966 0.000300688 1.00089)
(-0.000539814 0.000290589 1.0009)
(-0.00224851 0.000284052 1.00423)
(-0.00205303 0.000265879 0.995455)
(0.00196704 5.17477e-05 0.995546)
(0.00209605 4.05168e-05 1.00414)
(0.000369721 3.37753e-05 1.00089)
(0.000330029 2.28084e-05 1.00086)
(1.9627e-05 9.12863e-06 1.00079)
(-0.000280583 -6.23726e-06 1.00077)
(-0.000567398 -2.22742e-05 1.00082)
(-0.000550436 -3.70728e-05 1.00082)
(-0.00226286 -4.75265e-05 1.00416)
(-0.00206315 -7.20134e-05 0.995358)
(0.00196082 -0.000245535 0.995547)
(0.00208617 -0.000258098 1.00413)
(0.000360104 -0.000265684 1.00088)
(0.000316644 -0.000277792 1.00085)
(3.65314e-06 -0.00029328 1.00077)
(-0.000298048 -0.000311048 1.00075)
(-0.000584786 -0.00032998 1.00079)
(-0.000564849 -0.000347918 1.00079)
(-0.00228218 -0.000361172 1.00414)
(-0.0020766 -0.000389789 0.995306)
(0.00195462 -0.000532004 0.995608)
(0.00207596 -0.000544877 1.00417)
(0.000349982 -0.00055224 1.00093)
(0.00030244 -0.00056394 1.00089)
(-1.36188e-05 -0.00057933 1.00082)
(-0.000317255 -0.000597292 1.00079)
(-0.000604218 -0.000616673 1.00083)
(-0.000581437 -0.00063532 1.00082)
(-0.00230411 -0.000649493 1.00418)
(-0.00209164 -0.000677815 0.995303)
(0.00194738 -0.000523087 0.995629)
(0.00206649 -0.00053226 1.00417)
(0.00034107 -0.000538568 1.00094)
(0.000289561 -0.000548082 1.0009)
(-2.96909e-05 -0.000560896 1.00082)
(-0.000335379 -0.000575971 1.00079)
(-0.000622781 -0.000592318 1.00082)
(-0.000597601 -0.000608219 1.00081)
(-0.00232473 -0.000619986 1.00418)
(-0.00210411 -0.000645606 0.995263)
(0.00195096 -0.00224359 0.998973)
(0.00206406 -0.00225883 1.00752)
(0.000334264 -0.00226207 1.0043)
(0.000280199 -0.00227387 1.00427)
(-4.13443e-05 -0.00228871 1.00419)
(-0.000348483 -0.00230598 1.00418)
(-0.000636201 -0.00232448 1.00422)
(-0.000608868 -0.00234188 1.00421)
(-0.00234467 -0.00236052 1.00761)
(-0.00212278 -0.002382 0.998665)
(0.00193227 -0.00205022 0.990183)
(0.0020479 -0.00206841 0.998681)
(0.000322615 -0.00206572 0.995459)
(0.0002624 -0.00207463 0.995406)
(-6.18412e-05 -0.00208395 0.995308)
(-0.000370625 -0.00209487 0.995263)
(-0.000657708 -0.0021066 0.995271)
(-0.000629694 -0.0021161 0.995238)
(-0.00236463 -0.00213333 0.998615)
(-0.00212584 -0.0021364 0.989607)
(0.00231886 0.00228362 0.985207)
(0.00230084 0.00229504 0.998093)
(0.000330087 0.002278 0.99356)
(0.000468051 0.00227467 0.993537)
(4.27541e-05 0.00226651 0.993416)
(-0.000293632 0.00225918 0.993409)
(-0.000701666 0.00225372 0.993514)
(-0.000510122 0.00224649 0.993512)
(-0.00245155 0.00225986 0.998116)
(-0.00239997 0.0022354 0.985051)
(0.00232987 0.00225883 0.997951)
(0.00229695 0.00225504 1.01083)
(0.000319524 0.00224162 1.00627)
(0.000456353 0.00223306 1.00623)
(2.80617e-05 0.00222215 1.00609)
(-0.000307964 0.00221188 1.00606)
(-0.000714776 0.00220365 1.00614)
(-0.000514538 0.00219755 1.00613)
(-0.002464 0.00220687 1.01077)
(-0.00242337 0.00219111 0.997649)
(0.00231252 0.000310928 0.993487)
(0.00228301 0.000299474 1.00633)
(0.000315012 0.000294493 1.0018)
(0.000449264 0.000284107 1.00177)
(2.1241e-05 0.000273059 1.00164)
(-0.0003139 0.000261738 1.00162)
(-0.000718549 0.000251172 1.00172)
(-0.000515401 0.000243956 1.00171)
(-0.00245759 0.000241486 1.00635)
(-0.00241323 0.00022699 0.993261)
(0.00230822 0.000441999 0.993468)
(0.00227268 0.00042786 1.0063)
(0.000303813 0.000418555 1.00177)
(0.000434492 0.000402848 1.00174)
(5.11118e-06 0.000384275 1.0016)
(-0.000330202 0.000364047 1.00158)
(-0.000732944 0.000343646 1.00168)
(-0.000524346 0.000326107 1.00167)
(-0.00247268 0.000316433 1.00632)
(-0.00242765 0.000282605 0.993201)
(0.00229806 1.56859e-05 0.993352)
(0.00225787 -3.67155e-06 1.00615)
(0.000289927 -1.48492e-05 1.00164)
(0.000414923 -3.3941e-05 1.0016)
(-1.76748e-05 -5.76993e-05 1.00146)
(-0.000354606 -8.45961e-05 1.00143)
(-0.000756535 -0.000112886 1.00152)
(-0.000542423 -0.000139215 1.00151)
(-0.00249825 -0.000156807 1.00618)
(-0.00244613 -0.000202887 0.993006)
(0.00228748 -0.000316451 0.993356)
(0.0022413 -0.000337974 1.00612)
(0.000273583 -0.000350317 1.00162)
(0.000391672 -0.000371372 1.00158)
(-4.55594e-05 -0.000398279 1.00143)
(-0.000385389 -0.000429437 1.0014)
(-0.000787525 -0.000463002 1.00148)
(-0.000568099 -0.000495449 1.00146)
(-0.00253424 -0.00051916 1.00615)
(-0.00247173 -0.000573753 0.992892)
(0.00227748 -0.000714811 0.993475)
(0.00222455 -0.000737458 1.00621)
(0.000256364 -0.000749212 1.00172)
(0.000367013 -0.000769539 1.00167)
(-7.57023e-05 -0.000796291 1.00152)
(-0.000419284 -0.000827804 1.00147)
(-0.000822429 -0.000862221 1.00154)
(-0.000598168 -0.000896326 1.00151)
(-0.00257595 -0.00092243 1.00623)
(-0.00250121 -0.000976055 0.992872)
(0.00226465 -0.000512878 0.993496)
(0.00220826 -0.000529011 1.00619)
(0.000241405 -0.000539158 1.00171)
(0.000344624 -0.000555109 1.00166)
(-0.000103818 -0.000576964 1.0015)
(-0.00045135 -0.000602934 1.00145)
(-0.000856009 -0.000631541 1.00151)
(-0.000628097 -0.000660655 1.00146)
(-0.00261459 -0.000681821 1.0062)
(-0.00252489 -0.000729741 0.992759)
(0.00227156 -0.00248022 0.99818)
(0.00220611 -0.00250509 1.01089)
(0.000230493 -0.00250874 1.00642)
(0.000329583 -0.0025288 1.00638)
(-0.000123097 -0.0025532 1.00624)
(-0.0004737 -0.00258231 1.00621)
(-0.000879886 -0.00261437 1.00629)
(-0.000648112 -0.00264469 1.00626)
(-0.00265231 -0.00267872 1.01105)
(-0.00255949 -0.00271793 0.99755)
(0.0022412 -0.00242982 0.985007)
(0.00217945 -0.00245896 0.997622)
(0.000210318 -0.00245369 0.993164)
(0.000298836 -0.00246919 0.993082)
(-0.000157882 -0.00248429 0.992888)
(-0.000511741 -0.00250277 0.992796)
(-0.000916794 -0.00252345 0.99281)
(-0.000684394 -0.00253959 0.992719)
(-0.00268782 -0.00257031 0.997469)
(-0.00256621 -0.00257688 0.983824)
(0.00257473 0.00251864 0.979668)
(0.00240768 0.00253309 0.997052)
(0.000283424 0.00250817 0.99128)
(0.000553958 0.00250336 0.991253)
(-4.7945e-07 0.00249045 0.991093)
(-0.000323348 0.00247994 0.991084)
(-0.000860748 0.00247356 0.991224)
(-0.000522727 0.00246407 0.991212)
(-0.00260721 0.00248794 0.997078)
(-0.00268307 0.00245677 0.979414)
(0.00258844 0.00233838 0.996809)
(0.0024004 0.00233111 1.01417)
(0.000268173 0.0023114 1.00835)
(0.000536999 0.0022989 1.0083)
(-2.17288e-05 0.00228257 1.0081)
(-0.00034277 0.00226841 1.00805)
(-0.000877575 0.00225891 1.00817)
(-0.000523339 0.00225255 1.00814)
(-0.0026168 0.00227395 1.01409)
(-0.00271217 0.00225736 0.996354)
(0.00256307 0.000245622 0.991151)
(0.00237993 0.000228387 1.00846)
(0.00026231 0.000221527 1.00269)
(0.000526713 0.000205449 1.00265)
(-3.08012e-05 0.000188907 1.00247)
(-0.000349571 0.000172141 1.00244)
(-0.000880274 0.00015715 1.00258)
(-0.000520499 0.000147618 1.00256)
(-0.00260174 0.000148705 1.00849)
(-0.00269452 0.000128208 0.990829)
(0.00255653 0.000501789 0.991128)
(0.00236426 0.00047991 1.00841)
(0.000244769 0.000465486 1.00265)
(0.000503576 0.00044079 1.0026)
(-5.60956e-05 0.000411546 1.00242)
(-0.000374885 0.000379556 1.00239)
(-0.000902499 0.000347444 1.00252)
(-0.000531956 0.00031922 1.0025)
(-0.00262368 0.000307516 1.00846)
(-0.00271777 0.000251189 0.990742)
(0.00254 -5.46652e-05 0.990975)
(0.00234097 -8.50891e-05 1.0082)
(0.00022333 -0.000102125 1.00246)
(0.000472699 -0.000132393 1.00241)
(-9.22382e-05 -0.0001702 1.00221)
(-0.000413806 -0.000213441 1.00217)
(-0.000940654 -0.000259424 1.00229)
(-0.000560365 -0.000303677 1.00227)
(-0.00266535 -0.000330984 1.00826)
(-0.00274951 -0.000412808 0.990439)
(0.00252351 -0.000369486 0.990982)
(0.00231539 -0.000402993 1.00815)
(0.000197786 -0.000421699 1.00243)
(0.000435631 -0.000455257 1.00237)
(-0.000137142 -0.000498392 1.00216)
(-0.000464123 -0.000549087 1.00211)
(-0.000992645 -0.000604846 1.00221)
(-0.000603512 -0.000660822 1.00217)
(-0.00272911 -0.00070104 1.00821)
(-0.00279669 -0.000802252 0.990214)
(0.0025086 -0.000888707 0.991146)
(0.00229001 -0.000924351 1.00825)
(0.000170694 -0.000941975 1.00255)
(0.00039616 -0.000974562 1.00248)
(-0.000185975 -0.00101761 1.00227)
(-0.000520185 -0.00106914 1.00219)
(-0.00105213 -0.00112685 1.00227)
(-0.00065583 -0.00118603 1.00221)
(-0.00280568 -0.00123242 1.00829)
(-0.0028521 -0.00133212 0.9901)
(0.00248833 -0.000527403 0.991177)
(0.00226447 -0.000552821 1.00822)
(0.000147265 -0.00056849 1.00254)
(0.00036008 -0.000593534 1.00247)
(-0.000231742 -0.00062845 1.00223)
(-0.000573502 -0.000670652 1.00215)
(-0.00110948 -0.000718283 1.00221)
(-0.000708755 -0.000768651 1.00212)
(-0.00287599 -0.000806563 1.00824)
(-0.00289622 -0.000892387 0.989868)
(0.00249817 -0.00265179 0.997195)
(0.0022614 -0.00268826 1.01427)
(0.000130419 -0.0026938 1.0086)
(0.000337128 -0.00272522 1.00855)
(-0.000262146 -0.00276283 1.00835)
(-0.000609911 -0.00280902 1.00829)
(-0.00114982 -0.0028615 1.00838)
(-0.000743643 -0.00291179 1.00832)
(-0.00294061 -0.0029687 1.01455)
(-0.00295314 -0.00303738 0.996053)
(0.00245412 -0.00273151 0.979345)
(0.00222167 -0.00277304 0.996255)
(9.85861e-05 -0.00276589 0.990609)
(0.000288431 -0.00279028 0.990479)
(-0.000317168 -0.00281316 0.990188)
(-0.000671321 -0.00284235 0.990026)
(-0.00121023 -0.00287629 0.989997)
(-0.000803938 -0.00290278 0.989824)
(-0.00300218 -0.00295159 0.995962)
(-0.00296899 -0.00296691 0.977208)
(0.00276833 0.00268653 0.974064)
(0.00246835 0.00270285 0.996049)
(0.000250342 0.00266951 0.989019)
(0.000619468 0.0026627 0.988968)
(-6.73876e-05 0.00264429 0.988789)
(-0.000347136 0.00263092 0.988778)
(-0.00102326 0.00262597 0.988932)
(-0.000575821 0.00261753 0.988921)
(-0.00274138 0.00265898 0.996071)
(-0.00291597 0.00263483 0.97363)
(0.00278337 0.00236689 0.995666)
(0.00245584 0.00235425 1.01761)
(0.000229547 0.00232808 1.0105)
(0.000596489 0.00231084 1.01042)
(-9.51678e-05 0.00228855 1.01017)
(-0.000369092 0.00227138 1.01011)
(-0.00103834 0.0022639 1.01024)
(-0.000562172 0.00226336 1.01022)
(-0.00272735 0.00230906 1.01751)
(-0.00293737 0.00231396 0.995059)
(0.00274934 0.000192168 0.988813)
(0.0024285 0.000167435 1.01067)
(0.000222426 0.000158408 1.00365)
(0.000582704 0.000135114 1.00358)
(-0.000105958 0.000111808 1.00336)
(-0.000375291 8.8684e-05 1.00333)
(-0.00103619 6.90927e-05 1.00349)
(-0.000547686 6.04628e-05 1.00349)
(-0.00269016 7.26513e-05 1.01073)
(-0.00290632 5.56128e-05 0.988406)
(0.00273937 0.000537907 0.988767)
(0.00240562 0.000505506 1.01058)
(0.000196599 0.000484357 1.00357)
(0.000548551 0.000447599 1.00349)
(-0.000143328 0.000403844 1.00327)
(-0.000412224 0.00035581 1.00323)
(-0.00106704 0.000307728 1.00338)
(-0.000558842 0.000266787 1.00339)
(-0.00271529 0.000255478 1.01068)
(-0.00293804 0.000167269 0.988279)
(0.0027143 -0.00015038 0.988596)
(0.00237099 -0.000195604 1.01032)
(0.000164995 -0.000220467 1.00334)
(0.000502134 -0.000266205 1.00325)
(-0.000198047 -0.00032369 1.00302)
(-0.000471618 -0.000390468 1.00296)
(-0.00112523 -0.000462647 1.00309)
(-0.000600019 -0.000532759 1.00308)
(-0.00278181 -0.000574978 1.01044)
(-0.00299045 -0.000719908 0.987857)
(0.00268984 -0.000414939 0.98861)
(0.00233329 -0.000464269 1.01023)
(0.000126733 -0.000491756 1.00329)
(0.000445607 -0.000542817 1.00319)
(-0.000267592 -0.000609147 1.00294)
(-0.000551252 -0.000688887 1.00286)
(-0.00120916 -0.000778921 1.00296)
(-0.000671448 -0.000871934 1.00291)
(-0.00289496 -0.000942434 1.01035)
(-0.00307478 -0.00112832 0.987448)
(0.00266836 -0.00105611 0.988807)
(0.00229627 -0.00110868 1.01034)
(8.58369e-05 -0.00113444 1.00343)
(0.000385084 -0.00118438 1.00331)
(-0.00034393 -0.00125083 1.00304)
(-0.000641282 -0.00133236 1.00292)
(-0.00130776 -0.00142632 1.00298)
(-0.000762457 -0.00152674 1.00289)
(-0.00303484 -0.00161071 1.01041)
(-0.00317592 -0.00179548 0.987117)
(0.00263858 -0.000564564 0.988875)
(0.00225842 -0.000602172 1.0103)
(5.04256e-05 -0.000625478 1.00343)
(0.000329345 -0.000663444 1.0033)
(-0.000415633 -0.000717248 1.00301)
(-0.00072708 -0.000783723 1.00287)
(-0.00140347 -0.000861039 1.00289)
(-0.00085546 -0.000947282 1.00275)
(-0.00316352 -0.00101601 1.01034)
(-0.00325843 -0.00117495 0.986698)
(0.00265063 -0.00278611 0.996275)
(0.00225277 -0.00283656 1.01776)
(2.53572e-05 -0.00284618 1.01089)
(0.000295127 -0.00289286 1.0108)
(-0.000462395 -0.00294877 1.01055)
(-0.000784897 -0.00301931 1.01046)
(-0.00147073 -0.00310203 1.01054)
(-0.000916699 -0.00318396 1.01045)
(-0.0032764 -0.003276 1.01822)
(-0.00335323 -0.0033967 0.994349)
(0.00259057 -0.00297799 0.973593)
(0.00219654 -0.00303338 0.994812)
(-2.23037e-05 -0.00302565 0.987984)
(0.000222075 -0.00306151 0.987771)
(-0.000545658 -0.00309495 0.987377)
(-0.000880081 -0.00313902 0.987114)
(-0.00156634 -0.00319187 0.986987)
(-0.00101431 -0.00323414 0.986705)
(-0.00337786 -0.00330805 0.994325)
(-0.00338515 -0.00333775 0.969993)
(0.00290642 0.00279385 0.968478)
(0.00248323 0.00281068 0.99511)
(0.000215505 0.00276857 0.986826)
(0.000661636 0.00275926 0.98674)
(-0.000153485 0.00273531 0.986556)
(-0.000375088 0.00272105 0.986542)
(-0.00119152 0.0027223 0.986689)
(-0.000667074 0.00272385 0.986673)
(-0.00287441 0.00279755 0.995055)
(-0.00311774 0.00280737 0.96764)
(0.00292116 0.00234495 0.994542)
(0.00246372 0.00232498 1.02111)
(0.00018883 0.00229234 1.01271)
(0.000632774 0.00226973 1.01257)
(-0.000185417 0.00224201 1.0123)
(-0.000392819 0.00222477 1.01222)
(-0.00119134 0.00222639 1.01237)
(-0.000615577 0.00224523 1.01237)
(-0.00279656 0.00233503 1.021)
(-0.0031061 0.00240371 0.993769)
(0.00287785 0.00013551 0.986517)
(0.00242919 0.000101381 1.01296)
(0.000180583 8.97021e-05 1.00468)
(0.000615633 5.75638e-05 1.00457)
(-0.000196558 2.61646e-05 1.00434)
(-0.000395102 -4.08023e-06 1.0043)
(-0.00117719 -2.63373e-05 1.00447)
(-0.000579097 -2.949e-05 1.00451)
(-0.00271796 9.6658e-06 1.01304)
(-0.00303961 1.29324e-05 0.986092)
(0.00286274 0.000547184 0.986439)
(0.00239664 0.000500776 1.0128)
(0.000144188 0.000470936 1.00456)
(0.000567172 0.000418175 1.00443)
(-0.00024966 0.000354734 1.00419)
(-0.000445917 0.000284771 1.00414)
(-0.00121736 0.000215561 1.0043)
(-0.000579722 0.000156911 1.00435)
(-0.00273293 0.000155752 1.01296)
(-0.00307124 3.30087e-05 0.985979)
(0.00282661 -0.000266209 0.986266)
(0.00234726 -0.000330826 1.01249)
(9.89817e-05 -0.000366048 1.00429)
(0.000499449 -0.000433029 1.00415)
(-0.000330358 -0.00051825 1.00389)
(-0.000534591 -0.000619226 1.00382)
(-0.00130497 -0.00073104 1.00395)
(-0.000639077 -0.000843859 1.00397)
(-0.00283178 -0.000910157 1.0127)
(-0.00315851 -0.00115433 0.985427)
(0.00279163 -0.000460094 0.986295)
(0.00229343 -0.000530067 1.01237)
(4.32368e-05 -0.000569619 1.00423)
(0.00041544 -0.000645024 1.00407)
(-0.000435864 -0.00074473 1.00377)
(-0.000658903 -0.000867896 1.00366)
(-0.00144163 -0.0010123 1.00373)
(-0.000759569 -0.00117082 1.00369)
(-0.00303185 -0.00129508 1.01257)
(-0.00331455 -0.00164033 0.984709)
(0.00276128 -0.0012158 0.986518)
(0.00224072 -0.00129004 1.01245)
(-1.67874e-05 -0.00132708 1.00435)
(0.000324951 -0.0014013 1.00417)
(-0.000552827 -0.00150143 1.00384)
(-0.000802008 -0.00162793 1.00368)
(-0.00160687 -0.00178029 1.00368)
(-0.000920608 -0.00195221 1.00356)
(-0.00329329 -0.00210583 1.01259)
(-0.00351005 -0.00245987 0.983946)
(0.00271968 -0.00061057 0.986648)
(0.00218684 -0.00066419 1.01243)
(-6.89918e-05 -0.00069777 1.00439)
(0.000241243 -0.000753995 1.00418)
(-0.000662613 -0.000834965 1.00382)
(-0.000938482 -0.00093791 1.00362)
(-0.00176582 -0.00106267 1.00356)
(-0.0010854 -0.00120812 1.00336)
(-0.00353513 -0.00133592 1.0125)
(-0.00367009 -0.00162324 0.983165)
(0.00273275 -0.00288462 0.995459)
(0.00217637 -0.00295184 1.02132)
(-0.000105197 -0.00296816 1.01328)
(0.000190921 -0.00303486 1.01315)
(-0.000733591 -0.00311596 1.01285)
(-0.00102912 -0.00322082 1.01272)
(-0.00187568 -0.00334729 1.01275)
(-0.00119287 -0.00347696 1.01261)
(-0.00372079 -0.00362298 1.02205)
(-0.0038192 -0.0038206 0.992251)
(0.00265428 -0.00317649 0.967845)
(0.0020997 -0.00324695 0.993307)
(-0.000173899 -0.00324026 0.985332)
(8.55743e-05 -0.00329043 0.985004)
(-0.000855375 -0.00333805 0.984493)
(-0.00117159 -0.00340216 0.984091)
(-0.00202189 -0.00348078 0.983797)
(-0.00134444 -0.00354582 0.983357)
(-0.00388386 -0.0036534 0.992542)
(-0.00387705 -0.00370662 0.962028)
(0.00300183 0.00285278 0.962902)
(0.0024676 0.00286851 0.994203)
(0.000180099 0.00281764 0.984694)
(0.000684561 0.00280538 0.984569)
(-0.000253204 0.00277685 0.984391)
(-0.000413993 0.00276548 0.98437)
(-0.00138422 0.0027824 0.984485)
(-0.000848527 0.00280894 0.984422)
(-0.00311276 0.00294489 0.994003)
(-0.00335111 0.00304747 0.961293)
(0.00301432 0.00228664 0.993399)
(0.00243925 0.00225715 1.02459)
(0.000147551 0.00221829 1.01493)
(0.000650997 0.00218975 1.01473)
(-0.000284144 0.0021581 1.01444)
(-0.000414041 0.00214617 1.01436)
(-0.00134441 0.00216967 1.01451)
(-0.000713439 0.00222926 1.01457)
(-0.00288294 0.00241658 1.02453)
(-0.00325411 0.00265563 0.992615)
(0.00296129 7.48424e-05 0.984254)
(0.00239728 2.89323e-05 1.01528)
(0.000138233 1.38093e-05 1.00579)
(0.000630729 -2.93949e-05 1.00562)
(-0.000293557 -7.08455e-05 1.00538)
(-0.00040739 -0.000108927 1.00535)
(-0.00130807 -0.000132225 1.00553)
(-0.000624533 -0.000118736 1.00562)
(-0.00268512 -1.0837e-05 1.01534)
(-0.00312519 0.000108662 0.983892)
(0.00293876 0.000530994 0.984144)
(0.00235184 0.000466146 1.01505)
(8.81775e-05 0.000425029 1.0056)
(0.000563386 0.000350803 1.00543)
(-0.000367288 0.000260565 1.00517)
(-0.000476365 0.000160289 1.00512)
(-0.00135525 6.1079e-05 1.0053)
(-0.000592231 -1.69951e-05 1.0054)
(-0.00263379 2.23119e-05 1.01527)
(-0.00314127 -0.000108517 0.983891)
(0.00288863 -0.00039833 0.983989)
(0.00228348 -0.000487972 1.01469)
(2.46338e-05 -0.000536987 1.00531)
(0.000466442 -0.000633054 1.00512)
(-0.000484578 -0.000757173 1.00483)
(-0.000607336 -0.000908238 1.00474)
(-0.00148496 -0.00108073 1.00487)
(-0.000663361 -0.00125812 1.00494)
(-0.00275286 -0.00134861 1.01501)
(-0.00323031 -0.00175777 0.98327)
(0.00283994 -0.00051037 0.984041)
(0.00220841 -0.000606961 1.01452)
(-5.50309e-05 -0.000662955 1.00522)
(0.000343884 -0.0007719 1.005)
(-0.000642427 -0.000919102 1.00467)
(-0.000800354 -0.00110723 1.00451)
(-0.00170445 -0.00133778 1.00455)
(-0.000861794 -0.00160181 1.00452)
(-0.00309904 -0.00182608 1.01484)
(-0.0034846 -0.00247686 0.981999)
(0.0027977 -0.00137054 0.98429)
(0.00213476 -0.0014721 1.01457)
(-0.000141181 -0.00152458 1.00533)
(0.000211271 -0.00163212 1.00508)
(-0.000819082 -0.00177992 1.00469)
(-0.00102582 -0.00197336 1.00446)
(-0.00197765 -0.00221705 1.00438)
(-0.0011514 -0.00250889 1.0042)
(-0.00359863 -0.00280572 1.01479)
(-0.0038362 -0.0035063 0.980393)
(0.00274166 -0.00066561 0.984501)
(0.00206037 -0.00073957 1.01455)
(-0.000216406 -0.000786619 1.0054)
(8.86934e-05 -0.000868031 1.00512)
(-0.000983887 -0.000987209 1.00469)
(-0.00123887 -0.00114368 1.0044)
(-0.0022398 -0.00134163 1.00422)
(-0.00145175 -0.00158877 1.0039)
(-0.00407852 -0.00184207 1.0147)
(-0.00415464 -0.00241741 0.978948)
(0.00275424 -0.00296154 0.99473)
(0.00204245 -0.00304865 1.02489)
(-0.000267344 -0.0030749 1.01575)
(1.58617e-05 -0.00316715 1.01556)
(-0.00108957 -0.00328175 1.01523)
(-0.00137851 -0.00343281 1.01506)
(-0.00241922 -0.00362024 1.01501)
(-0.00164848 -0.00382214 1.01478)
(-0.00443433 -0.00405758 1.02607)
(-0.00442358 -0.00439657 0.989521)
(0.00265447 -0.00333901 0.962106)
(0.00194056 -0.00342587 0.991693)
(-0.000363012 -0.00342238 0.982641)
(-0.000130863 -0.00348982 0.982175)
(-0.00126149 -0.00355565 0.981529)
(-0.0015837 -0.0036452 0.980946)
(-0.00263375 -0.00375678 0.980409)
(-0.00187485 -0.00385159 0.979729)
(-0.00466131 -0.00400112 0.990645)
(-0.00450679 -0.00406868 0.953013)
(0.0030673 0.00287658 0.957358)
(0.00243729 0.00288952 0.993327)
(0.0001478 0.00283043 0.982629)
(0.000692327 0.00281525 0.982465)
(-0.000364079 0.00278478 0.982304)
(-0.000473476 0.00278373 0.982272)
(-0.00162628 0.00283185 0.982326)
(-0.00115464 0.00291556 0.982166)
(-0.00354613 0.00315782 0.992791)
(-0.00372036 0.00349209 0.95375)
(0.0030755 0.00220941 0.992232)
(0.00239849 0.00216814 1.02804)
(0.000110208 0.00212404 1.01715)
(0.000657301 0.00208987 1.01689)
(-0.000383711 0.00205822 1.01659)
(-0.000432649 0.00206167 1.01652)
(-0.00149936 0.00212928 1.01672)
(-0.000860384 0.00227537 1.01687)
(-0.0029974 0.00262375 1.02811)
(-0.00340204 0.00328088 0.991086)
(0.0030126 1.55786e-05 0.982029)
(0.00234931 -4.48047e-05 1.01762)
(0.000100471 -6.38923e-05 1.00694)
(0.000635358 -0.00012016 1.00673)
(-0.000387266 -0.000173001 1.0065)
(-0.000407237 -0.00021849 1.00648)
(-0.00141932 -0.000234549 1.0067)
(-0.000679002 -0.000180744 1.00684)
(-0.00258092 6.1397e-05 1.01761)
(-0.00306359 0.000496114 0.981924)
(0.00297999 0.000494724 0.981893)
(0.00228749 0.000406312 1.01731)
(3.35695e-05 0.000351291 1.0067)
(0.000544275 0.000249463 1.00647)
(-0.000486831 0.000124081 1.00622)
(-0.000495747 -1.69749e-05 1.00618)
(-0.00146343 -0.000154823 1.00639)
(-0.000564731 -0.00024784 1.00657)
(-0.00231442 -0.000109116 1.01749)
(-0.00282197 -6.1176e-05 0.982696)
(0.00291265 -0.000541844 0.981774)
(0.00219553 -0.000662929 1.01689)
(-5.37003e-05 -0.000729576 1.00639)
(0.000408492 -0.000864087 1.00614)
(-0.000654127 -0.00104154 1.00584)
(-0.00068659 -0.00126424 1.00574)
(-0.00164902 -0.00152785 1.00587)
(-0.000631305 -0.0018061 1.00599)
(-0.00238337 -0.00192935 1.01724)
(-0.00297294 -0.00253545 0.982096)
(0.00284658 -0.000569019 0.981864)
(0.00209335 -0.000699091 1.01667)
(-0.000164976 -0.000776578 1.00628)