/*--------------------------------*- C++ -*----------------------------------*\
  =========                 |
  \\      /  F ield         | OpenFOAM: The Open Source CFD Toolbox
   \\    /   O peration     | Website:  https://openfoam.org
    \\  /    A nd           | Version:  6
     \\/     M anipulation  |
\*---------------------------------------------------------------------------*/
FoamFile
{
    version     2.0;
    format      ascii;
    class       surfaceScalarField;
    location    "1300";
    object      phi;
}
// * * * * * * * * * * * * * * * * * * * * * * * * * * * * * * * * * * * * * //

dimensions      [0 3 -1 0 0 0 0];

internalField   nonuniform List<scalar> 
19500
(
1.53728e-07
1.57584e-07
9.96883e-05
1.53086e-08
1.57708e-07
9.99803e-05
8.65216e-09
1.57748e-07
9.98485e-05
2.51276e-09
1.57725e-07
9.9848e-05
-4.2997e-09
1.57696e-07
9.98487e-05
-1.07363e-08
1.57638e-07
9.98484e-05
-1.56327e-08
1.57556e-07
9.98469e-05
-2.02153e-08
1.57477e-07
9.98467e-05
-1.62215e-07
1.57348e-07
9.99842e-05
1.57114e-07
9.96803e-05
1.53849e-07
1.78347e-08
9.99855e-05
1.52509e-08
1.78e-08
0.000100278
8.6506e-09
1.78061e-08
0.000100146
2.49747e-09
1.78176e-08
0.000100146
-4.33293e-09
1.78294e-08
0.000100146
-1.07892e-08
1.78426e-08
0.000100146
-1.56975e-08
1.78563e-08
0.000100144
-2.01983e-08
1.78704e-08
0.000100144
-1.62441e-07
1.78875e-08
0.000100281
1.79318e-08
9.99763e-05
1.53911e-07
1.2394e-08
9.98511e-05
1.5256e-08
1.24421e-08
0.000100144
8.6538e-09
1.24622e-08
0.000100011
2.50642e-09
1.24875e-08
0.000100011
-4.33102e-09
1.25188e-08
0.000100012
-1.07934e-08
1.25551e-08
0.000100011
-1.56934e-08
1.25948e-08
0.00010001
-2.01836e-08
1.26385e-08
0.000100009
-1.62523e-07
1.26844e-08
0.000100147
1.2698e-08
9.98422e-05
1.53942e-07
7.16408e-09
9.98508e-05
1.52827e-08
7.2311e-09
0.000100143
8.68197e-09
7.28104e-09
0.000100011
2.54232e-09
7.33694e-09
0.000100011
-4.29231e-09
7.40569e-09
0.000100011
-1.0753e-08
7.48511e-09
0.000100011
-1.56491e-08
7.57146e-09
0.000100009
-2.01358e-08
7.66097e-09
0.000100009
-1.6249e-07
7.74704e-09
0.000100147
7.82782e-09
9.98419e-05
1.54011e-07
8.37323e-10
9.98518e-05
1.53274e-08
9.19711e-10
0.000100144
8.73832e-09
9.86477e-10
0.000100012
2.61346e-09
1.06956e-09
0.000100012
-4.21152e-09
1.1735e-09
0.000100013
-1.06656e-08
1.29448e-09
0.000100012
-1.55589e-08
1.42617e-09
0.000100011
-2.00464e-08
1.55956e-09
0.00010001
-1.62389e-07
1.69178e-09
0.000100148
1.83681e-09
9.98431e-05
1.54093e-07
-5.57971e-09
9.98518e-05
1.53903e-08
-5.49091e-09
0.000100145
8.82182e-09
-5.41573e-09
0.000100012
2.71797e-09
-5.31615e-09
0.000100012
-4.09119e-09
-5.19092e-09
0.000100013
-1.05347e-08
-5.04505e-09
0.000100012
-1.54281e-08
-4.88733e-09
0.000100011
-1.99242e-08
-4.73049e-09
0.00010001
-1.62204e-07
-4.57188e-09
0.000100148
-4.38955e-09
9.98435e-05
1.54179e-07
-1.10654e-08
9.98508e-05
1.54638e-08
-1.09845e-08
0.000100144
8.92138e-09
-1.0902e-08
0.000100011
2.84134e-09
-1.08007e-08
0.000100011
-3.9486e-09
-1.06758e-08
0.000100012
-1.038e-08
-1.05328e-08
0.000100011
-1.52776e-08
-1.03808e-08
0.00010001
-1.97889e-08
-1.02321e-08
0.000100009
-1.61968e-07
-1.009e-08
0.000100147
-9.91534e-09
9.98431e-05
1.54274e-07
-1.6844e-08
9.9851e-05
1.55355e-08
-1.67145e-08
0.000100144
9.02146e-09
-1.66426e-08
0.000100012
2.96381e-09
-1.65584e-08
0.000100011
-3.80748e-09
-1.64533e-08
0.000100012
-1.02281e-08
-1.63342e-08
0.000100012
-1.51326e-08
-1.62091e-08
0.00010001
-1.96615e-08
-1.60866e-08
0.00010001
-1.61747e-07
-1.59865e-08
0.000100147
-1.59098e-08
9.98438e-05
1.54311e-07
-1.56394e-07
9.99847e-05
1.56076e-08
-1.56408e-07
0.000100278
9.11765e-09
-1.5636e-07
0.000100146
3.07562e-09
-1.56228e-07
0.000100145
-3.67499e-09
-1.56069e-07
0.000100146
-1.00827e-08
-1.55872e-07
0.000100145
-1.5002e-08
-1.55654e-07
0.000100144
-1.95645e-08
-1.55465e-07
0.000100143
-1.61484e-07
-1.55222e-07
0.000100281
-1.54825e-07
9.9977e-05
1.5429e-07
9.96888e-05
1.57357e-08
9.99817e-05
9.21608e-09
9.98497e-05
3.20827e-09
9.98493e-05
-3.51479e-09
9.98502e-05
-9.90706e-09
9.985e-05
-1.48418e-08
9.98488e-05
-1.94939e-08
9.98488e-05
-1.61077e-07
9.9986e-05
9.96838e-05
2.18178e-07
2.24473e-07
9.92439e-05
6.66437e-08
2.24565e-07
9.99054e-05
3.78152e-08
2.24164e-07
9.96513e-05
1.17955e-08
2.23903e-07
9.96483e-05
-8.07101e-09
2.2347e-07
9.96432e-05
-2.72265e-08
2.22893e-07
9.96427e-05
-5.11339e-08
2.222e-07
9.96467e-05
-7.65273e-08
2.21437e-07
9.96487e-05
-2.34178e-07
2.21016e-07
9.99189e-05
2.2003e-07
9.92244e-05
2.18298e-07
7.07709e-08
9.9919e-05
6.65329e-08
7.06934e-08
0.000100582
3.75658e-08
7.04666e-08
0.000100327
1.13915e-08
7.01501e-08
0.000100324
-8.59725e-09
6.97604e-08
0.000100318
-2.78555e-08
6.92861e-08
0.000100317
-5.18291e-08
6.87529e-08
0.00010032
-7.71826e-08
6.82297e-08
0.00010032
-2.35196e-07
6.77895e-08
0.00010059
6.71757e-08
9.98924e-05
2.17967e-07
4.36225e-08
9.96583e-05
6.6312e-08
4.34983e-08
0.00010032
3.72907e-08
4.32794e-08
0.000100066
1.10151e-08
4.29246e-08
0.000100063
-9.07522e-09
4.24663e-08
0.000100057
-2.84064e-08
4.1905e-08
0.000100056
-5.2391e-08
4.1279e-08
0.000100059
-7.76384e-08
4.06538e-08
0.00010006
-2.35616e-07
4.00971e-08
0.000100331
3.95382e-08
9.96327e-05
2.17875e-07
1.87204e-08
9.96559e-05
6.60616e-08
1.85703e-08
0.000100318
3.69375e-08
1.83484e-08
0.000100063
1.05554e-08
1.80005e-08
0.00010006
-9.63818e-09
1.75365e-08
0.000100054
-2.9036e-08
1.6964e-08
0.000100053
-5.30163e-08
1.63269e-08
0.000100056
-7.81733e-08
1.56904e-08
0.000100057
-2.36295e-07
1.51458e-08
0.000100328
1.47611e-08
9.96288e-05
2.17756e-07
-6.28628e-10
9.96514e-05
6.58346e-08
-7.49273e-10
0.000100314
3.65967e-08
-9.55367e-10
0.000100059
1.00943e-08
-1.25813e-09
0.000100055
-1.02092e-08
-1.6682e-09
0.00010005
-2.96738e-08
-2.17521e-09
0.000100049
-5.36482e-08
-2.73574e-09
0.000100051
-7.87193e-08
-3.29233e-09
0.000100052
-2.3682e-07
-3.74513e-09
0.000100323
-3.9266e-09
9.96234e-05
2.17651e-07
-1.99212e-08
9.96513e-05
6.56419e-08
-2.00035e-08
0.000100314
3.63033e-08
-2.01749e-08
0.000100059
9.68912e-09
-2.04042e-08
0.000100055
-1.07131e-08
-2.07208e-08
0.00010005
-3.02328e-08
-2.11128e-08
0.000100048
-5.41957e-08
-2.15437e-08
0.000100051
-7.91891e-08
-2.1971e-08
0.000100052
-2.37136e-07
-2.22964e-08
0.000100322
-2.2293e-08
9.96232e-05
2.17567e-07
-4.46732e-08
9.96558e-05
6.55e-08
-4.47539e-08
0.000100318
3.60832e-08
-4.48741e-08
0.000100063
9.37749e-09
-4.50169e-08
0.00010006
-1.11021e-08
-4.52294e-08
0.000100054
-3.06622e-08
-4.54956e-08
0.000100053
-5.46125e-08
-4.57864e-08
0.000100056
-7.95446e-08
-4.60851e-08
0.000100056
-2.37249e-07
-4.63153e-08
0.000100327
-4.61305e-08
9.96281e-05
2.17473e-07
-7.16464e-08
9.96583e-05
6.54256e-08
-7.17373e-08
0.000100321
3.59437e-08
-7.17752e-08
0.000100066
9.16144e-09
-7.18462e-08
0.000100063
-1.13762e-08
-7.19747e-08
0.000100057
-3.0963e-08
-7.21343e-08
0.000100056
-5.49113e-08
-7.23008e-08
0.000100058
-7.98353e-08
-7.25184e-08
0.000100059
-2.37176e-07
-7.26692e-08
0.000100329
-7.24058e-08
9.96314e-05
2.17651e-07
-2.24849e-07
9.99181e-05
6.53969e-08
-2.25021e-07
0.000100581
3.58398e-08
-2.24837e-07
0.000100326
9.02156e-09
-2.24891e-07
0.000100323
-1.15328e-08
-2.24883e-07
0.000100317
-3.11176e-08
-2.24831e-07
0.000100315
-5.50858e-08
-2.24758e-07
0.000100318
-7.99971e-08
-2.24627e-07
0.000100318
-2.37283e-07
-2.24743e-07
0.000100588
-2.23979e-07
9.98899e-05
2.17514e-07
9.9245e-05
6.53507e-08
9.99073e-05
3.58468e-08
9.96528e-05
9.08541e-09
9.96496e-05
-1.14366e-08
9.96443e-05
-3.10077e-08
9.96433e-05
-5.49081e-08
9.96466e-05
-7.97923e-08
9.96477e-05
-2.36544e-07
9.99166e-05
9.92226e-05
2.42744e-07
2.54181e-07
9.87452e-05
8.38559e-08
2.54476e-07
9.98081e-05
4.86114e-08
2.53487e-07
9.94313e-05
1.32474e-08
2.53178e-07
9.94287e-05
-1.56606e-08
2.52462e-07
9.94178e-05
-4.32101e-08
2.51519e-07
9.94169e-05
-7.4568e-08
2.50389e-07
9.94258e-05
-1.03353e-07
2.48986e-07
9.94266e-05
-2.71291e-07
2.48573e-07
9.98358e-05
2.46701e-07
9.87049e-05
2.4308e-07
9.23544e-08
9.98359e-05
8.39059e-08
9.25066e-08
0.000100901
4.82346e-08
9.20774e-08
0.000100522
1.25879e-08
9.15689e-08
0.000100519
-1.65916e-08
9.09498e-08
0.000100507
-4.43788e-08
9.01636e-08
0.000100504
-7.58942e-08
8.92441e-08
0.00010051
-1.04835e-07
8.83463e-08
0.000100508
-2.73184e-07
8.76289e-08
0.000100917
8.63226e-08
9.97778e-05
2.42205e-07
6.04712e-08
9.94461e-05
8.34826e-08
6.03903e-08
0.000100509
4.77963e-08
6.00673e-08
0.000100131
1.19652e-08
5.95325e-08
0.000100128
-1.73854e-08
5.88343e-08
0.000100116
-4.53015e-08
5.79469e-08
0.000100114
-7.68626e-08
5.69173e-08
0.000100121
-1.05569e-07
5.58882e-08
0.000100119
-2.73541e-07
5.49276e-08
0.000100529
5.39695e-08
9.93897e-05
2.42204e-07
2.74966e-08
9.94446e-05
8.30997e-08
2.73999e-08
0.000100508
4.72569e-08
2.70835e-08
0.00010013
1.12518e-08
2.65978e-08
0.000100127
-1.82771e-08
2.59384e-08
0.000100115
-4.63279e-08
2.5095e-08
0.000100112
-7.78988e-08
2.41242e-08
0.000100118
-1.06473e-07
2.31449e-08
0.000100116
-2.74733e-07
2.22612e-08
0.000100526
2.17311e-08
9.93845e-05
2.42065e-07
-2.01634e-10
9.94349e-05
8.28003e-08
-2.63066e-10
0.000100498
4.67867e-08
-5.25905e-10
0.00010012
1.05928e-08
-9.02051e-10
0.000100117
-1.91196e-08
-1.42825e-09
0.000100105
-4.72992e-08
-2.10281e-09
0.000100102
-7.8885e-08
-2.86823e-09
0.000100108
-1.07352e-07
-3.64814e-09
0.000100105
-2.75431e-07
-4.32633e-09
0.000100515
-4.34775e-09
9.93722e-05
2.41999e-07
-2.78947e-08
9.94349e-05
8.25693e-08
-2.79212e-08
0.000100499
4.64217e-08
-2.81093e-08
0.00010012
1.00738e-08
-2.83453e-08
0.000100117
-1.97858e-08
-2.86938e-08
0.000100105
-4.806e-08
-2.91406e-08
0.000100101
-7.96519e-08
-2.96374e-08
0.000100107
-1.08015e-07
-3.01505e-08
0.000100104
-2.75705e-07
-3.05838e-08
0.000100514
-3.01517e-08
9.93715e-05
2.42007e-07
-6.08725e-08
9.94446e-05
8.24243e-08
-6.09142e-08
0.000100509
4.61909e-08
-6.10334e-08
0.00010013
9.73784e-09
-6.11312e-08
0.000100127
-2.02189e-08
-6.13123e-08
0.000100115
-4.85485e-08
-6.15451e-08
0.000100111
-8.0136e-08
-6.17948e-08
0.000100117
-1.08425e-07
-6.20863e-08
0.000100114
-2.75579e-07
-6.22881e-08
0.000100523
-6.15814e-08
9.93822e-05
2.4187e-07
-9.27774e-08
9.94461e-05
8.24063e-08
-9.30472e-08
0.00010051
4.61016e-08
-9.29691e-08
0.000100132
9.5659e-09
-9.29623e-08
0.000100129
-2.04555e-08
-9.30352e-08
0.000100116
-4.88151e-08
-9.31215e-08
0.000100113
-8.04224e-08
-9.32109e-08
0.000100119
-1.08674e-07
-9.33406e-08
0.000100116
-2.75047e-07
-9.35956e-08
0.000100524
-9.26219e-08
9.93858e-05
2.42598e-07
-2.53471e-07
9.98339e-05
8.25009e-08
-2.53702e-07
0.0001009
4.60254e-08
-2.52958e-07
0.00010052
9.47126e-09
-2.52992e-07
0.000100517
-2.05658e-08
-2.52769e-07
0.000100504
-4.89383e-08
-2.52489e-07
0.000100501
-8.05121e-08
-2.52152e-07
0.000100506
-1.08932e-07
-2.51645e-07
0.000100503
-2.75402e-07
-2.521e-07
0.000100911
-2.50341e-07
9.97709e-05
2.424e-07
9.87476e-05
8.23253e-08
9.98121e-05
4.61813e-08
9.94344e-05
9.78248e-09
9.94314e-05
-2.01301e-08
9.94198e-05
-4.83877e-08
9.94175e-05
-7.99072e-08
9.94244e-05
-1.08097e-07
9.94227e-05
-2.73705e-07
9.98289e-05
9.86979e-05
2.55105e-07
2.72764e-07
9.82156e-05
8.99686e-08
2.73328e-07
9.96981e-05
4.87506e-08
2.71676e-07
9.9199e-05
8.96034e-09
2.71297e-07
9.91954e-05
-2.47896e-08
2.70115e-07
9.91797e-05
-5.63246e-08
2.68613e-07
9.91781e-05
-8.96653e-08
2.66821e-07
9.91905e-05
-1.21072e-07
2.64365e-07
9.91914e-05
-2.98618e-07
2.63712e-07
9.97472e-05
2.59833e-07
9.81439e-05
2.55744e-07
1.03886e-07
9.97472e-05
9.01966e-08
1.04322e-07
0.000101234
4.82089e-08
1.03621e-07
0.00010073
7.97638e-09
1.02893e-07
0.000100726
-2.63138e-08
1.01993e-07
0.000100707
-5.8369e-08
1.00793e-07
0.000100702
-9.20005e-08
9.93261e-08
0.000100709
-1.23779e-07
9.78354e-08
0.000100704
-3.02426e-07
9.6662e-08
0.00010126
9.41115e-08
9.96387e-05
2.54268e-07
6.80721e-08
9.92257e-05
8.94979e-08
6.80972e-08
0.000100708
4.75384e-08
6.76337e-08
0.000100207
7.00654e-09
6.69122e-08
0.000100203
-2.75435e-08
6.59406e-08
0.000100185
-5.98141e-08
6.46367e-08
0.00010018
-9.35798e-08
6.30587e-08
0.000100189
-1.24985e-07
6.13919e-08
0.000100184
-3.03184e-07
5.97833e-08
0.000100741
5.8062e-08
9.91201e-05
2.54417e-07
3.23154e-08
9.92239e-05
8.8985e-08
3.2388e-08
0.000100707
4.68042e-08
3.19558e-08
0.000100206
6.00107e-09
3.13547e-08
0.000100201
-2.88525e-08
3.05041e-08
0.000100183
-6.13833e-08
2.93519e-08
0.000100178
-9.52591e-08
2.79542e-08
0.000100185
-1.26496e-07
2.64545e-08
0.00010018
-3.05337e-07
2.50418e-08
0.000100737
2.42054e-08
9.91105e-05
2.54237e-07
6.85283e-10
9.92102e-05
8.86419e-08
7.82561e-10
0.000100693
4.62302e-08
4.8695e-10
0.000100192
5.14886e-09
9.79945e-11
0.000100187
-3.00027e-08
-4.8943e-10
0.000100169
-6.2782e-08
-1.29458e-09
0.000100163
-9.67773e-08
-2.27349e-09
0.00010017
-1.27884e-07
-3.32609e-09
0.000100163
-3.06364e-07
-4.35955e-09
0.00010072
-4.01202e-09
9.90918e-05
2.5427e-07
-3.1022e-08
9.92101e-05
8.84224e-08
-3.09216e-08
0.000100694
4.58559e-08
-3.10606e-08
0.000100192
4.5763e-09
-3.12124e-08
0.000100187
-3.07881e-08
-3.14942e-08
0.000100169
-6.37457e-08
-3.18916e-08
0.000100163
-9.78112e-08
-3.23698e-08
0.000100169
-1.28806e-07
-3.28962e-08
0.000100162
-3.0652e-07
-3.34623e-08
0.000100718
-3.21401e-08
9.9091e-05
2.54501e-07
-6.70327e-08
9.92238e-05
8.8338e-08
-6.69415e-08
0.000100708
4.57037e-08
-6.69884e-08
0.000100206
4.32333e-09
-6.69436e-08
0.000100202
-3.1152e-08
-6.69788e-08
0.000100183
-6.41995e-08
-6.7043e-08
0.000100177
-9.82853e-08
-6.71132e-08
0.000100184
-1.29183e-07
-6.7229e-08
0.000100177
-3.05954e-07
-6.74183e-08
0.000100731
-6.56037e-08
9.91079e-05
2.54355e-07
-1.03238e-07
9.92256e-05
8.84504e-08
-1.03624e-07
0.00010071
4.57672e-08
-1.03338e-07
0.000100208
4.32341e-09
-1.03167e-07
0.000100204
-3.12063e-08
-1.03081e-07
0.000100185
-6.42878e-08
-1.02968e-07
0.00010018
-9.83861e-08
-1.02795e-07
0.000100186
-1.29312e-07
-1.02767e-07
0.00010018
-3.04502e-07
-1.0298e-07
0.000100733
-1.00769e-07
9.91149e-05
2.55726e-07
-2.70168e-07
9.97428e-05
8.87597e-08
-2.70444e-07
0.000101231
4.58005e-08
-2.69048e-07
0.000100726
4.37138e-09
-2.68995e-07
0.000100722
-3.11846e-08
-2.68351e-07
0.000100703
-6.42749e-08
-2.67639e-07
0.000100696
-9.83938e-08
-2.6693e-07
0.000100702
-1.29504e-07
-2.65727e-07
0.000100695
-3.04787e-07
-2.66343e-07
0.000101247
-2.63142e-07
9.9627e-05
2.55475e-07
9.82203e-05
8.85259e-08
9.97069e-05
4.62491e-08
9.92059e-05
5.10395e-09
9.92018e-05
-3.01292e-08
9.9185e-05
-6.29872e-08
9.91811e-05
-9.69745e-08
9.91899e-05
-1.27665e-07
9.91862e-05
-3.0177e-07
9.9735e-05
9.81323e-05
2.62456e-07
2.87243e-07
9.76642e-05
9.31897e-08
2.88046e-07
9.95775e-05
4.56372e-08
2.85666e-07
9.89592e-05
1.93843e-09
2.85084e-07
9.89523e-05
-3.56136e-08
2.83124e-07
9.89325e-05
-6.99026e-08
2.80656e-07
9.89301e-05
-1.04202e-07
2.77691e-07
9.89453e-05
-1.37705e-07
2.73461e-07
9.89494e-05
-3.2404e-07
2.71725e-07
9.96583e-05
2.64393e-07
9.7553e-05
2.63391e-07
1.13498e-07
9.96557e-05
9.35003e-08
1.1419e-07
0.000101576
4.47664e-08
1.1315e-07
0.00010095
3.70599e-10
1.12107e-07
0.000100941
-3.81879e-08
1.10748e-07
0.000100916
-7.34844e-08
1.08873e-07
0.000100907
-1.08341e-07
1.06484e-07
0.000100913
-1.4262e-07
1.03928e-07
0.000100905
-3.31092e-07
1.01769e-07
0.000101615
9.70205e-08
9.94718e-05
2.61289e-07
7.37502e-08
9.90022e-05
9.24572e-08
7.38948e-08
0.000100915
4.37403e-08
7.32291e-08
0.000100294
-1.14553e-09
7.22397e-08
0.000100286
-4.01239e-08
7.08441e-08
0.000100262
-7.58129e-08
6.88833e-08
0.000100254
-1.10985e-07
6.63529e-08
0.000100262
-1.448e-07
6.35617e-08
0.000100256
-3.33171e-07
6.06955e-08
0.000100967
5.71956e-08
9.88231e-05
2.616e-07
3.61168e-08
9.89979e-05
9.17738e-08
3.64387e-08
0.000100912
4.27251e-08
3.58439e-08
0.00010029
-2.59784e-09
3.50926e-08
0.000100281
-4.20987e-08
3.39708e-08
0.000100257
-7.8324e-08
3.23472e-08
0.000100248
-1.13805e-07
3.0222e-08
0.000100254
-1.47535e-07
2.78386e-08
0.000100247
-3.37374e-07
2.52975e-08
0.000100958
2.37396e-08
9.88031e-05
2.61354e-07
1.83162e-09
9.89809e-05
9.1369e-08
2.1769e-09
0.000100895
4.20092e-08
1.84754e-09
0.000100273
-3.72465e-09
1.47393e-09
0.000100264
-4.37182e-08
8.39791e-10
0.000100239
-8.04386e-08
-1.33396e-10
0.00010023
-1.16228e-07
-1.42693e-09
0.000100235
-1.49981e-07
-2.94269e-09
0.000100225
-3.39176e-07
-4.65967e-09
0.000100935
-3.72341e-09
9.87769e-05
2.61536e-07
-3.26349e-08
9.89807e-05
9.1187e-08
-3.23211e-08
0.000100896
4.16544e-08
-3.23696e-08
0.000100273
-4.33123e-09
-3.23546e-08
0.000100265
-4.46477e-08
-3.24717e-08
0.00010024
-8.1693e-08
-3.27268e-08
0.00010023
-1.17719e-07
-3.30887e-08
0.000100234
-1.51398e-07
-3.35783e-08
0.000100224
-3.39191e-07
-3.43707e-08
0.000100932
-3.13485e-08
9.8777e-05
2.62115e-07
-7.08466e-08
9.89975e-05
9.12283e-08
-7.05055e-08
0.000100915
4.16677e-08
-7.04299e-08
0.000100291
-4.39345e-09
-7.01337e-08
0.000100283
-4.48325e-08
-6.9874e-08
0.000100258
-8.2001e-08
-6.95895e-08
0.000100249
-1.1813e-07
-6.92579e-08
0.000100253
-1.5174e-07
-6.90018e-08
0.000100243
-3.37681e-07
-6.8942e-08
0.000100949
-6.51907e-08
9.8802e-05
2.62021e-07
-1.11413e-07
9.90018e-05
9.15426e-08
-1.11811e-07
0.000100919
4.19987e-08
-1.11274e-07
0.000100296
-4.05895e-09
-1.10838e-07
0.000100288
-4.4506e-08
-1.1044e-07
0.000100264
-8.16756e-08
-1.09932e-07
0.000100254
-1.1785e-07
-1.09329e-07
0.00010026
-1.51414e-07
-1.0875e-07
0.000100251
-3.34639e-07
-1.08864e-07
0.000100953
-1.04771e-07
9.88181e-05
2.64063e-07
-2.82264e-07
9.96471e-05
9.21153e-08
-2.82463e-07
0.000101571
4.22268e-08
-2.80359e-07
0.000100943
-3.74048e-09
-2.801e-07
0.000100934
-4.42006e-08
-2.78798e-07
0.000100909
-8.14089e-08
-2.77442e-07
0.000100898
-1.17442e-07
-2.76054e-07
0.000100902
-1.51441e-07
-2.73846e-07
0.000100891
-3.34449e-07
-2.74514e-07
0.000101593
-2.68915e-07
9.94554e-05
2.63867e-07
9.76725e-05
9.19727e-08
9.95945e-05
4.31602e-08
9.89725e-05
-2.35571e-09
9.89653e-05
-4.22261e-08
9.89441e-05
-7.89112e-08
9.89384e-05
-1.14881e-07
9.89479e-05
-1.48306e-07
9.8944e-05
-3.29336e-07
9.96403e-05
9.75334e-05
2.6414e-07
2.96956e-07
9.71014e-05
9.31193e-08
2.97923e-07
9.9449e-05
4.02492e-08
2.94685e-07
9.87158e-05
-7.21992e-09
2.9365e-07
9.87047e-05
-4.85564e-08
2.90469e-07
9.86822e-05
-8.53258e-08
2.86396e-07
9.86794e-05
-1.1951e-07
2.81355e-07
9.8697e-05
-1.53557e-07
2.74156e-07
9.87071e-05
-3.46264e-07
2.70269e-07
9.95775e-05
2.55657e-07
9.69477e-05
2.65329e-07
1.20929e-07
9.95647e-05
9.33713e-08
1.2184e-07
0.000101922
3.8776e-08
1.20382e-07
0.000101177
-9.84121e-09
1.18884e-07
0.000101163
-5.29445e-08
1.16805e-07
0.000101132
-9.15731e-08
1.13825e-07
0.000101117
-1.26897e-07
1.09888e-07
0.000101119
-1.62233e-07
1.05395e-07
0.000101107
-3.60131e-07
1.01163e-07
0.000101978
9.16617e-08
9.9272e-05
2.62534e-07
7.87272e-08
9.878e-05
9.18958e-08
7.89987e-08
0.000101127
3.72306e-08
7.80622e-08
0.000100389
-1.21748e-08
7.66948e-08
0.000100376
-5.60159e-08
7.46514e-08
0.000100346
-9.53932e-08
7.16142e-08
0.000100334
-1.31455e-07
6.75025e-08
0.000100338
-1.66494e-07
6.2594e-08
0.000100331
-3.65798e-07
5.70547e-08
0.000101205
4.97179e-08
9.84953e-05
2.62982e-07
3.98336e-08
9.87718e-05
9.09893e-08
4.04773e-08
0.000101121
3.58141e-08
3.96874e-08
0.000100382
-1.43122e-08
3.87491e-08
0.000100367
-5.90833e-08
3.72415e-08
0.000100337
-9.94895e-08
3.48822e-08
0.000100323
-1.36402e-07
3.15723e-08
0.000100325
-1.71768e-07
2.73827e-08
0.000100314
-3.74081e-07
2.2792e-08
0.000101189
1.91592e-08
9.84557e-05
2.62664e-07
3.2319e-09
9.87527e-05
9.05062e-08
3.93692e-09
0.000101102
3.49117e-08
3.59303e-09
0.000100362
-1.58318e-08
3.29503e-09
0.000100348
-6.14287e-08
2.64984e-09
0.000100317
-1.02777e-07
1.48932e-09
0.000100302
-1.4062e-07
-3.01453e-10
0.000100302
-1.76138e-07
-2.64531e-09
0.000100287
-3.78127e-07
-5.55989e-09
0.000101161
-3.78811e-09
9.84187e-05
2.63066e-07
-3.36788e-08
9.87522e-05
9.0413e-08
-3.30217e-08
0.000101103
3.46375e-08
-3.29181e-08
0.000100363
-1.64266e-08
-3.2598e-08
0.000100349
-6.25029e-08
-3.2379e-08
0.000100318
-1.04479e-07
-3.22871e-08
0.000100303
-1.42882e-07
-3.23799e-08
0.000100302
-1.78442e-07
-3.26786e-08
0.000100287
-3.7797e-07
-3.35451e-08
0.000101156
-2.73991e-08
9.84203e-05
2.64126e-07
-7.35389e-08
9.87708e-05
9.06863e-08
-7.2805e-08
0.000101126
3.49646e-08
-7.25326e-08
0.000100384
-1.6106e-08
-7.18222e-08
0.00010037
-6.22776e-08
-7.10367e-08
0.00010034
-1.04457e-07
-7.00976e-08
0.000100326
-1.43046e-07
-6.8995e-08
0.000100326
-1.78456e-07
-6.78175e-08
0.000100311
-3.7447e-07
-6.71569e-08
0.000101175
-5.94417e-08
9.84578e-05
2.64201e-07
-1.17119e-07
9.87786e-05
9.13094e-08
-1.17379e-07
0.000101134
3.57369e-08
-1.16525e-07
0.000100393
-1.51853e-08
-1.15688e-07
0.00010038
-6.12363e-08
-1.14762e-07
0.00010035
-1.03323e-07
-1.13581e-07
0.000100337
-1.41815e-07
-1.12068e-07
0.000100339
-1.77166e-07
-1.10586e-07
0.000100326
-3.68193e-07
-1.09933e-07
0.000101184
-1.02249e-07
9.84911e-05
2.6701e-07
-2.89171e-07
9.95496e-05
9.22164e-08
-2.892e-07
0.000101915
3.6272e-08
-2.86313e-07
0.000101165
-1.44265e-08
-2.85664e-07
0.000101152
-6.04161e-08
-2.83411e-07
0.00010112
-1.02384e-07
-2.81005e-07
0.000101104
-1.40721e-07
-2.78554e-07
0.000101104
-1.76326e-07
-2.74719e-07
0.000101088
-3.66123e-07
-2.74762e-07
0.000101946
-2.65889e-07
9.9251e-05
2.66954e-07
9.71145e-05
9.23104e-08
9.94781e-05
3.79235e-08
9.87385e-05
-1.20571e-08
9.87275e-05
-5.70139e-08
9.87035e-05
-9.81527e-08
9.86964e-05
-1.36229e-07
9.87053e-05
-1.70973e-07
9.87023e-05
-3.58259e-07
9.95508e-05
9.6908e-05
2.60499e-07
3.02264e-07
9.65372e-05
8.9309e-08
3.03246e-07
9.93154e-05
3.18719e-08
2.98959e-07
9.84728e-05
-1.91239e-08
2.97081e-07
9.84573e-05
-6.39584e-08
2.92025e-07
9.84339e-05
-1.02551e-07
2.85328e-07
9.84319e-05
-1.35472e-07
2.76777e-07
9.84525e-05
-1.67211e-07
2.64654e-07
9.8473e-05
-3.64711e-07
2.56583e-07
9.95159e-05
2.29113e-07
9.63527e-05
2.61826e-07
1.25755e-07
9.94778e-05
8.92763e-08
1.26822e-07
0.000102269
2.93712e-08
1.24808e-07
0.000101409
-2.35696e-08
1.22629e-07
0.000101389
-7.14323e-08
1.194e-07
0.000101351
-1.13354e-07
1.14653e-07
0.000101329
-1.48647e-07
1.08124e-07
0.000101322
-1.82911e-07
1.00066e-07
0.000101304
-3.90067e-07
9.19013e-08
0.000102347
7.21921e-08
9.90366e-05
2.58246e-07
8.2352e-08
9.85634e-05
8.72217e-08
8.27563e-08
0.00010134
2.70468e-08
8.14369e-08
0.000100491
-2.71546e-08
7.95095e-08
0.000100471
-7.62928e-08
7.64656e-08
0.000100437
-1.19694e-07
7.17512e-08
0.000100419
-1.56597e-07
6.49431e-08
0.000100417
-1.91194e-07
5.60954e-08
0.000100407
-4.03542e-07
4.56448e-08
0.000101459
2.86067e-08
9.81326e-05
2.58769e-07
4.30338e-08
9.85503e-05
8.5997e-08
4.4081e-08
0.00010133
2.50259e-08
4.30496e-08
0.000100479
-3.03541e-08
4.18691e-08
0.000100459
-8.10991e-08
3.98261e-08
0.000100423
-1.26529e-07
3.63965e-08
0.000100402
-1.65506e-07
3.10775e-08
0.000100396
-2.01517e-07
2.39158e-08
0.000100379
-4.2154e-07
1.48077e-08
0.000101436
6.51131e-09
9.80537e-05
2.58393e-07
4.89481e-09
9.85302e-05
8.54094e-08
6.10716e-09
0.000101311
2.38712e-08
5.7824e-09
0.000100459
-3.24212e-08
5.65854e-09
0.000100438
-8.45055e-08
5.11574e-09
0.000100402
-1.31772e-07
3.79677e-09
0.00010038
-1.72616e-07
1.3952e-09
0.00010037
-2.09893e-07
-2.27654e-09
0.000100348
-4.31037e-07
-7.73056e-09
0.000101401
-4.51076e-09
9.79965e-05
2.59113e-07
-3.37123e-08
9.85294e-05
8.54791e-08
-3.2525e-08
0.000101313
2.37819e-08
-3.21704e-08
0.00010046
-3.28742e-08
-3.1326e-08
0.00010044
-8.56522e-08
-3.04483e-08
0.000100404
-1.33951e-07
-2.96209e-08
0.000100382
-1.76053e-07
-2.89155e-08
0.000100372
-2.1393e-07
-2.84881e-08
0.000100348
-4.31465e-07
-2.9342e-08
0.000101392
-1.64157e-08
9.79989e-05
2.60824e-07
-7.44889e-08
9.85483e-05
8.61411e-08
-7.31688e-08
0.000101338
2.46621e-08
-7.25679e-08
0.000100483
-3.1816e-08
-7.11754e-08
0.000100464
-8.45663e-08
-6.94501e-08
0.000100429
-1.32989e-07
-6.7266e-08
0.000100409
-1.7536e-07
-6.45101e-08
0.000100401
-2.13048e-07
-6.13346e-08
0.000100379
-4.23734e-07
-5.86782e-08
0.000101413
-4.25981e-08
9.80582e-05
2.61254e-07
-1.1985e-07
9.85602e-05
8.72454e-08
-1.19828e-07
0.000101352
2.61637e-08
-1.18542e-07
0.000100497
-2.98619e-08
-1.17062e-07
0.000100478
-8.21655e-08
-1.15223e-07
0.000100445
-1.30114e-07
-1.12791e-07
0.000100427
-1.72088e-07
-1.09678e-07
0.000100422
-2.09107e-07
-1.05957e-07
0.000100404
-4.10925e-07
-1.03444e-07
0.000101427
-8.91513e-08
9.81242e-05
2.64911e-07
-2.9132e-07
9.94534e-05
8.86105e-08
-2.90916e-07
0.000102259
2.72196e-08
-2.87081e-07
0.000101392
-2.83345e-08
-2.85741e-07
0.000101373
-8.03166e-08
-2.82127e-07
0.000101336
-1.27908e-07
-2.78182e-07
0.000101314
-1.69087e-07
-2.73901e-07
0.000101306
-2.062e-07
-2.67601e-07
0.000101283
-4.04923e-07
-2.66767e-07
0.000102303
-2.52648e-07
9.90072e-05
2.6525e-07
9.65561e-05
8.91908e-08
9.93612e-05
2.9929e-08
9.85085e-05
-2.44921e-08
9.84938e-05
-7.48771e-08
9.84692e-05
-1.20984e-07
9.84616e-05
-1.61739e-07
9.84694e-05
-1.9797e-07
9.84677e-05
-3.93023e-07
9.94766e-05
9.62607e-05
2.53146e-07
3.048e-07
9.5978e-05
8.26192e-08
3.05637e-07
9.91792e-05
2.05993e-08
3.00096e-07
9.82337e-05
-3.40716e-08
2.96855e-07
9.82144e-05
-8.20661e-08
2.8906e-07
9.81929e-05
-1.21761e-07
2.78347e-07
9.81944e-05
-1.51947e-07
2.64126e-07
9.82203e-05
-1.77842e-07
2.44444e-07
9.82563e-05
-3.71781e-07
2.30052e-07
9.94812e-05
1.8287e-07
9.58014e-05
2.54474e-07
1.28959e-07
9.93978e-05
8.19769e-08
1.30098e-07
0.000102616
1.64502e-08
1.27379e-07
0.000101646
-4.14761e-08
1.24232e-07
0.000101619
-9.45384e-08
1.19325e-07
0.000101574
-1.40077e-07
1.11843e-07
0.000101542
-1.74931e-07
1.01064e-07
0.000101521
-2.04908e-07
8.71608e-08
0.000101492
-4.16962e-07
7.10054e-08
0.000102717
3.29656e-08
9.87724e-05
2.50043e-07
8.49186e-08
9.83559e-05
7.91817e-08
8.5473e-08
0.000101554
1.30354e-08
8.36589e-08
0.000100599
-4.6838e-08
8.09771e-08
0.000100573
-1.02132e-07
7.65154e-08
0.000100534
-1.50458e-07
6.92247e-08
0.00010051
-1.88384e-07
5.80655e-08
0.000100499
-2.20162e-07
4.22998e-08
0.000100483
-4.45563e-07
2.1095e-08
0.000101734
-1.67678e-08
9.77391e-05
2.50578e-07
4.57317e-08
9.83372e-05
7.75361e-08
4.73026e-08
0.00010154
1.01816e-08
4.60173e-08
0.000100582
-5.15785e-08
4.45929e-08
0.000100555
-1.09666e-07
4.19015e-08
0.000100514
-1.61821e-07
3.69664e-08
0.000100486
-2.04542e-07
2.86685e-08
0.000100468
-2.41325e-07
1.57586e-08
0.000100441
-4.8547e-07
-2.62898e-09
0.000101703
-2.75054e-08
9.75809e-05
2.50205e-07
6.91212e-09
9.83169e-05
7.68606e-08
8.85099e-09
0.00010152
8.76014e-09
8.64451e-09
0.000100562
-5.4322e-08
8.91561e-09
0.000100535
-1.14571e-07
8.73521e-09
0.000100493
-1.69959e-07
7.51925e-09
0.000100463
-2.17083e-07
4.40404e-09
0.00010044
-2.58287e-07
-1.70086e-09
0.000100405
-5.11335e-07
-1.23581e-08
0.000101662
-1.30864e-08
9.74721e-05
2.51401e-07
-3.25753e-08
9.83153e-05
7.7249e-08
-3.05862e-08
0.000101525
9.08878e-09
-2.98029e-08
0.000100564
-5.43426e-08
-2.80551e-08
0.000100538
-1.15455e-07
-2.59583e-08
0.000100497
-1.72558e-07
-2.35814e-08
0.000100468
-2.22325e-07
-2.11539e-08
0.000100445
-2.6634e-07
-1.90283e-08
0.000100407
-5.16465e-07
-1.88041e-08
0.000101646
4.78034e-09
9.74645e-05
2.53989e-07
-7.38038e-08
9.83332e-05
7.8555e-08
-7.16414e-08
0.000101552
1.09339e-08
-7.0513e-08
0.000100589
-5.19275e-08
-6.80283e-08
0.000100564
-1.12592e-07
-6.47144e-08
0.000100525
-1.69586e-07
-6.02896e-08
0.000100499
-2.19559e-07
-5.44194e-08
0.000100481
-2.63684e-07
-4.6837e-08
0.000100447
-5.00431e-07
-3.91051e-08
0.000101666
-6.3448e-09
9.75671e-05
2.55028e-07
-1.20603e-07
9.83494e-05
8.04047e-08
-1.20003e-07
0.000101573
1.36102e-08
-1.18117e-07
0.000100608
-4.8232e-08
-1.15663e-07
0.000100584
-1.07746e-07
-1.12383e-07
0.000100548
-1.63435e-07
-1.07906e-07
0.000100526
-2.11823e-07
-1.01769e-07
0.000100514
-2.54047e-07
-9.3921e-08
0.000100489
-4.72929e-07
-8.70185e-08
0.000101689
-6.01273e-08
9.77025e-05
2.59693e-07
-2.90169e-07
9.93607e-05
8.24009e-08
-2.89202e-07
0.000102603
1.54696e-08
-2.84318e-07
0.000101622
-4.54836e-08
-2.81941e-07
0.000101596
-1.04172e-07
-2.76481e-07
0.000101554
-1.58639e-07
-2.70257e-07
0.000101526
-2.05308e-07
-2.63203e-07
0.000101509
-2.46603e-07
-2.53393e-07
0.000101478
-4.5681e-07
-2.50094e-07
0.000102673
-2.30403e-07
9.87167e-05
2.60561e-07
9.60033e-05
8.37269e-08
9.92468e-05
1.96374e-08
9.8286e-05
-3.95617e-08
9.82684e-05
-9.57758e-08
9.82459e-05
-1.4798e-07
9.82402e-05
-1.93902e-07
9.82483e-05
-2.33649e-07
9.82508e-05
-4.40356e-07
9.94289e-05
9.55876e-05
2.43589e-07
3.05892e-07
9.54275e-05
7.4175e-08
3.06341e-07
9.90412e-05
7.38624e-09
2.99301e-07
9.80003e-05
-5.12117e-08
2.94052e-07
9.79784e-05
-1.02408e-07
2.8241e-07
9.79618e-05
-1.43355e-07
2.65765e-07
9.79707e-05
-1.70481e-07
2.42958e-07
9.80075e-05
-1.87974e-07
2.11621e-07
9.8068e-05
-3.62427e-07
1.89743e-07
9.94806e-05
1.07972e-07
9.53494e-05
2.44678e-07
1.3148e-07
9.93264e-05
7.24678e-08
1.32572e-07
0.000102961
7.26957e-10
1.28968e-07
0.000101887
-6.31991e-08
1.24459e-07
0.000101852
-1.22679e-07
1.17071e-07
0.000101799
-1.73646e-07
1.05355e-07
0.000101754
-2.0962e-07
8.78025e-08
0.000101715
-2.34918e-07
6.34354e-08
0.000101672
-4.37205e-07
3.48531e-08
0.00010309
-5.38376e-08
9.85164e-05
2.39332e-07
8.70489e-08
9.81595e-05
6.87424e-08
8.77641e-08
0.000101768
-4.18217e-09
8.53152e-08
0.000100715
-7.1125e-08
8.1595e-08
0.000100682
-1.34465e-07
7.5074e-08
0.000100639
-1.90615e-07
6.39648e-08
0.000100608
-2.33235e-07
4.59808e-08
0.000100585
-2.65473e-07
1.88939e-08
0.000100566
-5.04185e-07
-1.79581e-08
0.00010204
-1.06215e-07
9.73052e-05
2.39803e-07
4.82458e-08
9.81345e-05
6.65311e-08
5.04841e-08
0.000101749
-8.21741e-09
4.89341e-08
0.000100692
-7.8157e-08
4.72549e-08
0.000100658
-1.46161e-07
4.37702e-08
0.000100613
-2.09246e-07
3.68802e-08
0.000100576
-2.60914e-07
2.42113e-08
0.000100543
-3.03685e-07
2.4817e-09
0.000100506
-5.87997e-07
-3.40995e-08
0.000102016
-9.07286e-08
9.6992e-05
2.39525e-07
9.30826e-09
9.81144e-05
6.57882e-08
1.22509e-08
0.00010173
-9.93401e-09
1.22952e-08
0.000100673
-8.17421e-08
1.32666e-08
0.000100639
-1.53047e-07
1.39016e-08
0.000100593
-2.21651e-07
1.33093e-08
0.000100554
-2.81368e-07
9.87299e-09
0.000100514
-3.35385e-07
-1.77328e-10
0.000100464
-6.51328e-07
-2.58761e-08
0.000101978
-3.42198e-08
9.67735e-05
2.414e-07
-3.05498e-08
9.81116e-05
6.67015e-08
-2.74037e-08
0.000101737
-8.85689e-09
-2.59559e-08