/*--------------------------------*- C++ -*----------------------------------*\
  =========                 |
  \\      /  F ield         | OpenFOAM: The Open Source CFD Toolbox
   \\    /   O peration     | Website:  https://openfoam.org
    \\  /    A nd           | Version:  6
     \\/     M anipulation  |
\*---------------------------------------------------------------------------*/
FoamFile
{
    version     2.0;
    format      ascii;
    class       volScalarField;
    location    "0.05";
    object      p;
}
// * * * * * * * * * * * * * * * * * * * * * * * * * * * * * * * * * * * * * //

dimensions      [0 2 -2 0 0 0 0];

internalField   nonuniform List<scalar> 
56000
(
-3.54427e-06
-8.05936e-06
-3.2566e-05
-3.30021e-05
-9.5672e-05
-9.5718e-05
-0.000196159
-0.000196193
-0.000322248
-0.000322252
-0.000459665
-0.000459656
-0.000593319
-0.000593307
-0.00070865
-0.000708637
-0.000793195
-0.000793182
-0.000837885
-0.000837872
-0.000837954
-0.000837941
-0.000793402
-0.000793389
-0.000708997
-0.000708984
-0.000593811
-0.000593797
-0.000460308
-0.000460294
-0.000323065
-0.000323052
-0.000197212
-0.000197206
-9.6988e-05
-9.69616e-05
-3.46301e-05
-3.45472e-05
-1.05687e-05
-1.04849e-05
-4.3609
-4.3609
-4.36097
-4.36097
-4.36117
-4.36117
-4.36148
-4.36148
-4.36187
-4.36187
-4.3623
-4.3623
-4.36271
-4.36271
-4.36307
-4.36307
-4.36333
-4.36333
-4.36347
-4.36347
-4.36347
-4.36347
-4.36333
-4.36333
-4.36307
-4.36307
-4.36271
-4.36271
-4.3623
-4.3623
-4.36187
-4.36187
-4.36148
-4.36148
-4.36117
-4.36117
-4.36097
-4.36097
-4.3609
-4.3609
-8.72165
-8.72165
-8.72178
-8.72178
-8.72213
-8.72213
-8.72268
-8.72268
-8.72338
-8.72338
-8.72414
-8.72414
-8.72488
-8.72488
-8.72552
-8.72552
-8.72599
-8.72599
-8.72623
-8.72623
-8.72623
-8.72623
-8.72599
-8.72599
-8.72552
-8.72552
-8.72488
-8.72488
-8.72414
-8.72414
-8.72338
-8.72338
-8.72268
-8.72268
-8.72213
-8.72213
-8.72178
-8.72178
-8.72165
-8.72165
-13.0821
-13.0821
-13.0824
-13.0824
-13.0829
-13.0829
-13.0838
-13.0838
-13.0848
-13.0848
-13.086
-13.086
-13.0872
-13.0872
-13.0881
-13.0881
-13.0889
-13.0889
-13.0892
-13.0892
-13.0892
-13.0892
-13.0889
-13.0889
-13.0881
-13.0881
-13.0872
-13.0872
-13.086
-13.086
-13.0848
-13.0848
-13.0838
-13.0838
-13.0829
-13.0829
-13.0824
-13.0824
-13.0821
-13.0821
-17.4423
-17.4423
-17.4426
-17.4426
-17.4434
-17.4434
-17.4446
-17.4446
-17.4462
-17.4462
-17.4479
-17.4479
-17.4496
-17.4496
-17.451
-17.451
-17.452
-17.452
-17.4526
-17.4526
-17.4526
-17.4526
-17.452
-17.452
-17.451
-17.451
-17.4496
-17.4496
-17.4479
-17.4479
-17.4462
-17.4462
-17.4446
-17.4446
-17.4434
-17.4434
-17.4426
-17.4426
-17.4423
-17.4423
-21.8018
-21.8018
-21.8023
-21.8023
-21.8034
-21.8034
-21.8052
-21.8052
-21.8074
-21.8074
-21.8099
-21.8099
-21.8122
-21.8122
-21.8142
-21.8142
-21.8157
-21.8157
-21.8165
-21.8165
-21.8165
-21.8165
-21.8157
-21.8157
-21.8142
-21.8142
-21.8122
-21.8122
-21.8099
-21.8099
-21.8074
-21.8074
-21.8052
-21.8052
-21.8034
-21.8034
-21.8023
-21.8023
-21.8018
-21.8018
-26.1606
-26.1606
-26.1612
-26.1612
-26.1628
-26.1628
-26.1653
-26.1653
-26.1685
-26.1685
-26.1719
-26.1719
-26.1752
-26.1752
-26.178
-26.178
-26.1801
-26.1801
-26.1811
-26.1811
-26.1811
-26.1811
-26.1801
-26.1801
-26.178
-26.178
-26.1752
-26.1752
-26.1719
-26.1719
-26.1685
-26.1685
-26.1653
-26.1653
-26.1628
-26.1628
-26.1612
-26.1612
-26.1606
-26.1606
-30.5182
-30.5182
-30.519
-30.519
-30.5213
-30.5213
-30.5248
-30.5248
-30.5292
-30.5293
-30.534
-30.534
-30.5386
-30.5386
-30.5425
-30.5425
-30.5453
-30.5453
-30.5468
-30.5468
-30.5468
-30.5468
-30.5453
-30.5453
-30.5425
-30.5425
-30.5386
-30.5386
-30.534
-30.534
-30.5292
-30.5293
-30.5248
-30.5248
-30.5213
-30.5213
-30.519
-30.519
-30.5182
-30.5182
-34.8742
-34.8742
-34.8754
-34.8754
-34.8785
-34.8786
-34.8835
-34.8836
-34.8897
-34.8897
-34.8963
-34.8963
-34.9026
-34.9026
-34.908
-34.908
-34.9119
-34.9119
-34.914
-34.914
-34.914
-34.914
-34.9119
-34.9119
-34.908
-34.908
-34.9026
-34.9026
-34.8963
-34.8963
-34.8897
-34.8897
-34.8835
-34.8836
-34.8785
-34.8786
-34.8754
-34.8754
-34.8742
-34.8742
-39.2279
-39.228
-39.2297
-39.2297
-39.2341
-39.2341
-39.2411
-39.2411
-39.2497
-39.2497
-39.2588
-39.2589
-39.2676
-39.2676
-39.2749
-39.275
-39.2803
-39.2803
-39.2831
-39.2831
-39.2831
-39.2831
-39.2803
-39.2803
-39.2749
-39.275
-39.2676
-39.2676
-39.2588
-39.2589
-39.2497
-39.2497
-39.2411
-39.2411
-39.2341
-39.2341
-39.2297
-39.2297
-39.2279
-39.228
-43.5784
-43.5785
-43.5809
-43.581
-43.5872
-43.5874
-43.5971
-43.5972
-43.6091
-43.6092
-43.6218
-43.6219
-43.6337
-43.6339
-43.6438
-43.6439
-43.651
-43.6512
-43.6548
-43.655
-43.6548
-43.655
-43.651
-43.6512
-43.6438
-43.6439
-43.6337
-43.6339
-43.6218
-43.6219
-43.6091
-43.6092
-43.5971
-43.5972
-43.5872
-43.5874
-43.5809
-43.581
-43.5784
-43.5785
-47.9243
-47.9247
-47.928
-47.9283
-47.937
-47.9373
-47.951
-47.9513
-47.9677
-47.9681
-47.9853
-47.9856
-48.0017
-48.002
-48.0153
-48.0157
-48.0251
-48.0255
-48.0302
-48.0305
-48.0302
-48.0305
-48.0251
-48.0255
-48.0153
-48.0157
-48.0017
-48.002
-47.9853
-47.9856
-47.9677
-47.9681
-47.951
-47.9513
-47.937
-47.9373
-47.928
-47.9283
-47.9243
-47.9247
-52.2636
-52.2644
-52.269
-52.2698
-52.282
-52.2829
-52.3019
-52.3028
-52.3254
-52.3263
-52.3496
-52.3506
-52.372
-52.3729
-52.3904
-52.3914
-52.4035
-52.4044
-52.4103
-52.4112
-52.4103
-52.4112
-52.4035
-52.4044
-52.3904
-52.3914
-52.372
-52.3729
-52.3496
-52.3506
-52.3254
-52.3263
-52.3019
-52.3028
-52.282
-52.2829
-52.269
-52.2698
-52.2636
-52.2644
-56.5929
-56.595
-56.6012
-56.6031
-56.6203
-56.6224
-56.6488
-56.651
-56.6819
-56.6841
-56.7153
-56.7175
-56.7456
-56.7479
-56.7703
-56.7726
-56.7876
-56.7899
-56.7966
-56.7989
-56.7966
-56.7989
-56.7876
-56.7899
-56.7703
-56.7726
-56.7456
-56.7479
-56.7153
-56.7175
-56.6819
-56.6841
-56.6488
-56.651
-56.6203
-56.6224
-56.6012
-56.6031
-56.5929
-56.595
-60.9071
-60.9124
-60.9202
-60.9251
-60.9488
-60.954
-60.9901
-60.9955
-61.0367
-61.0422
-61.0826
-61.0881
-61.1234
-61.1289
-61.1561
-61.1617
-61.1789
-61.1844
-61.1905
-61.1961
-61.1905
-61.1961
-61.1789
-61.1844
-61.1561
-61.1617
-61.1234
-61.1289
-61.0826
-61.0881
-61.0367
-61.0422
-60.9901
-60.9955
-60.9488
-60.954
-60.9202
-60.9251
-60.9071
-60.9124
-65.1977
-65.2113
-65.2198
-65.2325
-65.2636
-65.2769
-65.3242
-65.3378
-65.39
-65.4038
-65.4528
-65.4666
-65.5072
-65.521
-65.55
-65.5638
-65.5793
-65.5931
-65.5941
-65.608
-65.5941
-65.608
-65.5793
-65.5931
-65.55
-65.5638
-65.5072
-65.521
-65.4528
-65.4666
-65.39
-65.4038
-65.3242
-65.3378
-65.2636
-65.2769
-65.2198
-65.2325
-65.1977
-65.2113
-69.4474
-69.4848
-69.4871
-69.5227
-69.5566
-69.5938
-69.6466
-69.6846
-69.7395
-69.7778
-69.8247
-69.863
-69.8961
-69.9345
-69.951
-69.9894
-69.988
-70.0263
-70.0065
-70.0449
-70.0065
-70.0449
-69.988
-70.0263
-69.951
-69.9894
-69.8961
-69.9345
-69.8247
-69.863
-69.7395
-69.7778
-69.6466
-69.6846
-69.5566
-69.5938
-69.4871
-69.5227
-69.4474
-69.4848
-73.6113
-73.698
-73.6835
-73.7549
-73.7943
-73.8667
-73.9283
-74.0015
-74.0588
-74.132
-74.1725
-74.2456
-74.2644
-74.3375
-74.333
-74.406
-74.3783
-74.4513
-74.4008
-74.4738
-74.4008
-74.4738
-74.3783
-74.4513
-74.333
-74.406
-74.2644
-74.3375
-74.1725
-74.2456
-74.0587
-74.132
-73.9283
-74.0015
-73.7943
-73.8667
-73.6835
-73.7549
-73.6113
-73.698
-77.6503
-77.7364
-77.8075
-77.7539
-77.988
-77.8891
-78.1878
-78.0759
-78.369
-78.2522
-78.5176
-78.3991
-78.6324
-78.5134
-78.7152
-78.5962
-78.7686
-78.6497
-78.7948
-78.6759
-78.7948
-78.6759
-78.7686
-78.6497
-78.7152
-78.5962
-78.6324
-78.5134
-78.5176
-78.3991
-78.369
-78.2522
-78.1878
-78.0759
-77.988
-77.8891
-77.8075
-77.7539
-77.6503
-77.7364
-81.7235
-82.0615
-82.2286
-82.1612
-82.6256
-82.3998
-82.9546
-82.6855
-83.2111
-82.9279
-83.402
-83.114
-83.5398
-83.2506
-83.6348
-83.3456
-83.6944
-83.4055
-83.7231
-83.4344
-83.7231
-83.4344
-83.6944
-83.4055
-83.6348
-83.3456
-83.5398
-83.2506
-83.402
-83.114
-83.2111
-82.9279
-82.9546
-82.6855
-82.6256
-82.3998
-82.2286
-82.1612
-81.7235
-82.0615
-84.1543
-86.5369
-85.1671
-87.3216
-85.8758
-87.8846
-86.3462
-88.2993
-86.6677
-88.5971
-86.888
-88.8061
-87.0381
-88.9505
-87.1377
-89.0472
-87.1986
-89.1067
-87.2276
-89.1351
-87.2276
-89.1351
-87.1986
-89.1067
-87.1377
-89.0472
-87.0381
-88.9505
-86.888
-88.8061
-86.6677
-88.5971
-86.3462
-88.2993
-85.8758
-87.8846
-85.1671
-87.3216
-84.1543
-86.5369
-80.102
-81.151
-80.9134
-81.5822
-81.474
-81.8936
-81.8848
-82.1988
-82.1802
-82.4467
-82.3869
-82.631
-82.5289
-82.7626
-82.6235
-82.8523
-82.6814
-82.908
-82.709
-82.9347
-82.709
-82.9347
-82.6814
-82.908
-82.6235
-82.8523
-82.5289
-82.7626
-82.3869
-82.631
-82.1802
-82.4467
-81.8848
-82.1988
-81.474
-81.8935
-80.9133
-81.5821
-80.102
-81.151
-73.1514
-73.6053
-73.7127
-73.8415
-74.146
-74.0689
-74.4895
-74.3118
-74.7456
-74.5171
-74.9289
-74.6749
-75.0569
-74.7906
-75.1432
-74.8709
-75.1964
-74.9214
-75.2218
-74.9457
-75.2218
-74.9457
-75.1964
-74.9214
-75.1432
-74.8709
-75.0569
-74.7906
-74.9289
-74.6749
-74.7456
-74.5171
-74.4895
-74.3118
-74.146
-74.0689
-73.7127
-73.8415
-73.1514
-73.6053
-64.6164
-64.8102
-64.9839
-64.9479
-65.3044
-65.1135
-65.5764
-65.3008
-65.787
-65.4648
-65.9421
-65.595
-66.0527
-65.6928
-66.1284
-65.7621
-66.1755
-65.8061
-66.1981
-65.8275
-66.1981
-65.8275
-66.1755
-65.8061
-66.1284
-65.7621
-66.0527
-65.6928
-65.9421
-65.595
-65.787
-65.4648
-65.5764
-65.3008
-65.3044
-65.1135
-64.9839
-64.9479
-64.6164
-64.8102
-55.1494
-55.2149
-55.3838
-55.2953
-55.6111
-55.4098
-55.817
-55.5486
-55.9829
-55.6751
-56.1088
-55.7788
-56.2007
-55.8587
-56.2646
-55.9161
-56.3048
-55.9532
-56.3242
-55.9713
-56.3242
-55.9713
-56.3048
-55.9532
-56.2646
-55.9161
-56.2007
-55.8587
-56.1088
-55.7788
-55.9829
-55.6751
-55.817
-55.5486
-55.6111
-55.4098
-55.3838
-55.2953
-55.1494
-55.2149
-45.1509
-45.161
-45.2984
-45.2073
-45.4557
-45.2847
-45.6064
-45.3849
-45.7324
-45.4796
-45.8308
-45.5594
-45.9041
-45.6222
-45.9558
-45.6681
-45.9886
-45.6979
-46.0046
-45.7126
-46.0046
-45.7126
-45.9886
-45.6979
-45.9558
-45.6681
-45.9041
-45.6222
-45.8308
-45.5594
-45.7324
-45.4796
-45.6065
-45.3849
-45.4557
-45.2847
-45.2984
-45.2073
-45.1509
-45.161
-34.8474
-34.8384
-34.9392
-34.8649
-35.0451
-34.916
-35.1514
-34.9861
-35.243
-35.0542
-35.3162
-35.1129
-35.3718
-35.1599
-35.4114
-35.1947
-35.4368
-35.2176
-35.4492
-35.2289
-35.4492
-35.2289
-35.4368
-35.2176
-35.4114
-35.1947
-35.3718
-35.1599
-35.3162
-35.1129
-35.243
-35.0542
-35.1514
-34.9861
-35.0451
-34.916
-34.9392
-34.8649
-34.8474
-34.8384
-24.3659
-24.3537
-24.421
-24.3686
-24.4887
-24.4007
-24.559
-24.4467
-24.6209
-24.4925
-24.6713
-24.5325
-24.71
-24.5651
-24.738
-24.5894
-24.756
-24.6054
-24.7648
-24.6134
-24.7648
-24.6134
-24.756
-24.6054
-24.738
-24.5894
-24.71
-24.5651
-24.6713
-24.5325
-24.6209
-24.4925
-24.559
-24.4467
-24.4887
-24.4007
-24.421
-24.3686
-24.3659
-24.3537
-13.7822
-13.7733
-13.8116
-13.7812
-13.8492
-13.7986
-13.8891
-13.8248
-13.9249
-13.8511
-13.9543
-13.8744
-13.9772
-13.8935
-13.9938
-13.9078
-14.0045
-13.9173
-14.0098
-13.9221
-14.0098
-13.9221
-14.0045
-13.9173
-13.9938
-13.9078
-13.9772
-13.8935
-13.9543
-13.8744
-13.9249
-13.8511
-13.8891
-13.8248
-13.8492
-13.7986
-13.8116
-13.7812
-13.7822
-13.7733
-3.14542
-3.14232
-3.15462
-3.14549
-3.16664
-3.15065
-3.17963
-3.15929
-3.1913
-3.16789
-3.20096
-3.17548
-3.2085
-3.18176
-3.21397
-3.1865
-3.21752
-3.18963
-3.21927
-3.19119
-3.21927
-3.19119
-3.21752
-3.18963
-3.21397
-3.1865
-3.2085
-3.18176
-3.20096
-3.17548
-3.1913
-3.16789
-3.17963
-3.15929
-3.16664
-3.15065
-3.15462
-3.14549
-3.14542
-3.14232
7.50777
7.50448
7.51707
7.50539
7.52921
7.51172
7.54213
7.51985
7.55385
7.52838
7.56358
7.5361
7.57117
7.5424
7.57671
7.54717
7.58032
7.55036
7.5821
7.55194
7.5821
7.55194
7.58032
7.55036
7.57671
7.54717
7.57117
7.5424
7.56358
7.5361
7.55385
7.52838
7.54213
7.51985
7.52921
7.51172
7.51707
7.50539
7.50777
7.50448
18.1445
18.1355
18.174
18.1411
18.2117
18.1597
18.2516
18.1853
18.2874
18.2116
18.3169
18.235
18.3399
18.2541
18.3565
18.2685
18.3673
18.278
18.3726
18.2828
18.3726
18.2828
18.3673
18.278
18.3565
18.2685
18.3399
18.2541
18.3169
18.235
18.2874
18.2116
18.2516
18.1853
18.2117
18.1597
18.174
18.1411
18.1445
18.1355
28.7283
28.7159
28.7835
28.7285
28.8512
28.7618
28.9214
28.8073
28.9834
28.8529
29.0339
28.8931
29.0727
28.9257
29.1007
28.9501
29.1188
28.9662
29.1276
28.9742
29.1276
28.9742
29.1188
28.9662
29.1007
28.9501
29.0727
28.9257
29.0339
28.8931
28.9834
28.8529
28.9214
28.8073
28.8512
28.7618
28.7835
28.7285
28.7283
28.7159
39.2097
39.2006
39.3016
39.2247
39.4077
39.2771
39.5139
39.3466
39.6055
39.4147
39.6788
39.4735
39.7344
39.5206
39.7741
39.5554
39.7996
39.5783
39.812
39.5896
39.812
39.5896
39.7996
39.5783
39.7741
39.5554
39.7344
39.5206
39.6788
39.4735
39.6055
39.4147
39.5139
39.3466
39.4077
39.2771
39.3016
39.2247
39.2097
39.2006
49.5132
49.5231
49.6608
49.567
49.8182
49.6456
49.9688
49.7453
50.0949
49.8399
50.1933
49.9198
50.2667
49.9826
50.3184
50.0286
50.3513
50.0585
50.3673
50.0732
50.3673
50.0732
50.3513
50.0585
50.3184
50.0286
50.2667
49.9826
50.1933
49.9198
50.0949
49.8399
49.9688
49.7453
49.8182
49.6456
49.6608
49.567
49.5132
49.5231
59.5117
59.577
59.7461
59.6553
59.9736
59.7709
60.1794
59.9092
60.3453
60.0356
60.4713
60.1394
60.5633
60.2193
60.6272
60.2768
60.6675
60.3139
60.6869
60.332
60.6869
60.332
60.6675
60.3139
60.6272
60.2768
60.5633
60.2193
60.4713
60.1394
60.3453
60.0356
60.1794
59.9092
59.9736
59.7709
59.7461
59.6553
59.5117
59.577
68.9787
69.1723
69.3463
69.3079
69.6669
69.4749
69.9389
69.6618
70.1496
69.8257
70.3047
69.956
70.4154
70.0539
70.4911
70.1231
70.5383
70.1672
70.5609
70.1886
70.5609
70.1886
70.5383
70.1672
70.4911
70.1231
70.4154
70.0539
70.3047
69.956
70.1496
69.8257
69.9389
69.6618
69.6669
69.4749
69.3463
69.3079
68.9787
69.1723
77.5135
77.9672
78.0749
78.2003
78.5084
78.4284
78.8518
78.6709
79.1079
78.8761
79.2913
79.034
79.4194
79.1497
79.5057
79.2301
79.5589
79.2806
79.5844
79.305
79.5844
79.305
79.5589
79.2806
79.5057
79.2301
79.4194
79.1497
79.2913
79.034
79.1079
78.8761
78.8518
78.6709
78.5084
78.4284
78.0749
78.2003
77.5135
77.9672
84.4639
85.5128
85.2754
85.9426
85.8363
86.2551
86.2471
86.5599
86.5425
86.8078
86.7492
86.9921
86.8913
87.1237
86.9859
87.2135
87.0439
87.2693
87.0715
87.296
87.0715
87.296
87.0439
87.2693
86.9859
87.2135
86.8913
87.1237
86.7492
86.9921
86.5425
86.8078
86.2471
86.5599
85.8363
86.2551
85.2754
85.9426
84.4639
85.5128
88.5159
90.8982
89.5288
91.6812
90.2376
92.2441
90.7079
92.6587
91.0294
92.9563
91.2498
93.1653
91.3999
93.3097
91.4995
93.4065
91.5605
93.466
91.5895
93.4944
91.5895
93.4944
91.5605
93.466
91.4995
93.4065
91.3999
93.3097
91.2498
93.1653
91.0294
92.9563
90.7079
92.6587
90.2376
92.2441
89.5288
91.6812
88.5159
90.8982
-96.3817
-98.9328
-99.884
-100.639
-101.193
-101.645
-102.075
-102.522
-103.009
-103.55
-104.151
-104.811
-105.513
-106.223
-106.866
-107.294
-107.178
-106.05
-104.005
-96.0164
-98.2335
-100.132
-100.653
-101.268
-101.756
-102.171
-102.579
-103.012
-103.492
-104.031
-104.638
-105.316
-106.057
-106.845
-107.643
-108.365
-108.781
-108.766
-110.103
-107.467
-99.2219
-100.688
-100.954
-101.472
-101.905
-102.287
-102.678
-103.108
-103.598
-104.162
-104.814
-105.565
-106.427
-107.409
-108.519
-109.75
-110.966
-112.281
-116.876
-119.109
-99.7484
-101.021
-101.151
-101.599
-101.987
-102.345
-102.73
-103.171
-103.687
-104.301
-105.031
-105.904
-106.948
-108.202
-109.726
-111.58
-113.709
-116.41
-123.852
-129.856
-100.071
-101.254
-101.308
-101.71
-102.071
-102.417
-102.805
-103.265
-103.82
-104.496
-105.321
-106.334
-107.581
-109.131
-111.082
-113.554
-116.555
-120.513
-130.341
-139.319
-100.279
-101.414
-101.427
-101.802
-102.148
-102.49
-102.889
-103.373
-103.971
-104.713
-105.636
-106.788
-108.234
-110.063
-112.409
-115.436
-119.197
-124.216
-135.971
-147.289
-100.414
-101.523
-101.514
-101.875
-102.214
-102.559
-102.97
-103.48
-104.12
-104.924
-105.936
-107.213
-108.833
-110.905
-113.587
-117.075
-121.455
-127.319
-140.572
-153.684
-100.501
-101.597
-101.576
-101.929
-102.266
-102.616
-103.04
-103.573
-104.248
-105.103
-106.188
-107.566
-109.326
-111.589
-114.53
-118.372
-123.22
-129.712
-144.063
-158.48
-100.554
-101.642
-101.616
-101.965
-102.303
-102.658
-103.091
-103.641
-104.341
-105.233
-106.369
-107.818
-109.674
-112.068
-115.186
-119.266
-124.425
-131.334
-146.404
-161.674
-100.579
-101.664
-101.635
-101.984
-102.322
-102.679
-103.118
-103.677
-104.39
-105.301
-106.463
-107.949
-109.854
-112.314
-115.522
-119.721
-125.036
-132.151
-147.578
-163.269
-100.579
-101.664
-101.635
-101.984
-102.322
-102.679
-103.118
-103.677
-104.39
-105.301
-106.463
-107.949
-109.854
-112.314
-115.522
-119.721
-125.036
-132.151
-147.578
-163.269
-100.554
-101.642
-101.616
-101.965
-102.303
-102.658
-103.091
-103.641
-104.341
-105.233
-106.369
-107.818
-109.674
-112.068
-115.186
-119.266
-124.425
-131.334
-146.404
-161.674
-100.501
-101.597
-101.576
-101.929
-102.266
-102.616
-103.04
-103.573
-104.248
-105.103
-106.188
-107.566
-109.326
-111.589
-114.53
-118.372
-123.22
-129.712
-144.063
-158.48
-100.414
-101.523
-101.514
-101.875
-102.214
-102.559
-102.97
-103.48
-104.12
-104.924
-105.936
-107.213
-108.833
-110.905
-113.587
-117.075
-121.455
-127.319
-140.572
-153.684
-100.279
-101.414
-101.427
-101.802
-102.148
-102.49
-102.889
-103.373
-103.971
-104.713
-105.636
-106.788
-108.234
-110.063
-112.409
-115.436
-119.197
-124.216
-135.971
-147.288
-100.071
-101.254
-101.308
-101.71
-102.071
-102.417
-102.805
-103.265
-103.82
-104.496
-105.321
-106.334
-107.581
-109.131
-111.082
-113.554
-116.555
-120.513
-130.341
-139.318
-99.7484
-101.021
-101.151
-101.599
-101.987
-102.345
-102.73
-103.171
-103.687
-104.301
-105.031
-105.904
-106.948
-108.202
-109.726
-111.58
-113.709
-116.41
-123.852
-129.856
-99.2219
-100.688
-100.954
-101.472
-101.905
-102.287
-102.678
-103.108
-103.598
-104.162
-104.814
-105.565
-106.427
-107.409
-108.519
-109.75
-110.966
-112.281
-116.876
-119.109
-98.2334
-100.132
-100.653
-101.268
-101.756
-102.171
-102.579
-103.012
-103.492
-104.031
-104.638
-105.316
-106.057
-106.845
-107.643
-108.365
-108.781
-108.766
-110.103
-107.467
-96.3817
-98.9328
-99.884
-100.639
-101.193
-101.645
-102.075
-102.522
-103.009
-103.55
-104.151
-104.811
-105.513
-106.223
-106.866
-107.294
-107.178
-106.05
-104.005
-96.0163
-84.9489
-86.7144
-87.6326
-88.3027
-88.8195
-89.2625
-89.6889
-90.1321
-90.6124
-91.1408
-91.7204
-92.3437
-92.9877
-93.6038
-94.0995
-94.3007
-93.875
-92.2926
-88.7939
-80.0878
-85.5113
-87.094
-87.8691
-88.4792
-88.9671
-89.3931
-89.8079
-90.2411
-90.7111
-91.2282
-91.7953
-92.4063
-93.0412
-93.6588
-94.1825
-94.4684
-94.2353
-93.0824
-90.6314
-83.0724
-85.8811
-87.287
-87.9442
-88.499
-88.9545
-89.3616
-89.7668
-90.1975
-90.6712
-91.1997
-91.7888
-92.4375
-93.1353
-93.8562
-94.5494
-95.1115
-95.3103
-94.8361
-93.6395
-87.3078
-86.1859
-87.487
-88.0627
-88.5685
-88.9934
-89.3841
-89.7852
-90.2231
-90.7164
-91.2798
-91.9243
-92.6577
-93.4824
-94.392
-95.365
-96.338
-97.1199
-97.459
-97.4963
-92.1463
-86.4181
-87.6592
-88.1824
-88.6528
-89.0558
-89.437
-89.8405
-90.2934
-90.8163
-91.4277
-92.145
-92.9849
-93.9632
-95.0924
-96.3771
-97.7869
-99.1596
-100.277
-101.395
-96.8132
-86.5864
-87.7919
-88.2829
-88.7306
-89.1204
-89.4985
-89.9095
-90.382
-90.9391
-91.6034
-92.3983
-93.349
-94.4832
-95.8295
-97.4137
-99.23
-101.135
-102.928
-104.937
-100.951
-86.7053
-87.8899
-88.3618
-88.7961
-89.1793
-89.5586
-89.9797
-90.4728
-91.0638
-91.7788
-92.6464
-93.6992
-94.9746
-96.5138
-98.3587
-100.521
-102.869
-105.211
-107.92
-104.383
-86.7863
-87.9587
-88.4197
-88.8468
-89.2275
-89.6099
-90.0412
-90.5529
-91.173
-91.9308
-92.859
-93.9957
-95.3856
-97.0792
-99.1298
-101.561
-104.248
-107.001
-110.227
-107.014
-86.8367
-88.0024
-88.4578
-88.8813
-89.2615
-89.6472
-90.0864
-90.612
-91.2534
-92.0419
-93.0132
-94.2091
-95.6791
-97.4798
-99.6716
-102.286
-105.201
-108.228
-111.792
-108.789
-86.8608
-88.0236
-88.4766
-88.8988
-89.279
-89.6667
-90.1103
-90.6433
-91.2958
-92.1004
-93.094
-94.3205
-95.8315
-97.6869
-99.9505
-102.657
-105.687
-108.85
-112.583
-109.683
-86.8608
-88.0236
-88.4766
-88.8988
-89.279
-89.6667
-90.1103
-90.6433
-91.2958
-92.1004
-93.094
-94.3205
-95.8315
-97.6869
-99.9505
-102.657
-105.687
-108.85
-112.583
-109.683
-86.8367
-88.0024
-88.4578
-88.8813
-89.2615
-89.6472
-90.0864
-90.612
-91.2534
-92.0419
-93.0132
-94.2091
-95.6791
-97.4798
-99.6716
-102.286
-105.201
-108.228
-111.792
-108.789
-86.7863
-87.9587
-88.4197
-88.8468
-89.2275
-89.6099
-90.0412
-90.5529
-91.173
-91.9308
-92.859
-93.9957
-95.3856
-97.0792
-99.1298
-101.561
-104.248
-107.001
-110.226
-107.014
-86.7053
-87.8899
-88.3618
-88.7961
-89.1793
-89.5586
-89.9797
-90.4728
-91.0638
-91.7788
-92.6464
-93.6992
-94.9746
-96.5138
-98.3587
-100.521
-102.869
-105.21
-107.92
-104.383
-86.5864
-87.792
-88.2829
-88.7306
-89.1204
-89.4985
-89.9095
-90.382
-90.9391
-91.6034
-92.3983
-93.349
-94.4832
-95.8295
-97.4137
-99.23
-101.135
-102.928
-104.937
-100.951
-86.4181
-87.6592
-88.1824
-88.6529
-89.0558
-89.437
-89.8405
-90.2934
-90.8163
-91.4277
-92.145
-92.9849
-93.9632
-95.0924
-96.3771
-97.7868
-99.1596
-100.277
-101.395
-96.8131
-86.1859
-87.487
-88.0627
-88.5685
-88.9934
-89.3841
-89.7852
-90.2231
-90.7164
-91.2797
-91.9243
-92.6577
-93.4824
-94.392
-95.365
-96.3379
-97.1198
-97.4589
-97.4961
-92.1462
-85.8811
-87.2869
-87.9442
-88.499
-88.9545
-89.3616
-89.7668
-90.1975
-90.6712
-91.1997
-91.7887
-92.4375
-93.1353
-93.8561
-94.5494
-95.1115
-95.3102
-94.836
-93.6393
-87.3076
-85.5113
-87.094
-87.8691
-88.4791
-88.9671
-89.3931
-89.8079
-90.2411
-90.7111
-91.2281
-91.7953
-92.4063
-93.0412
-93.6587
-94.1824
-94.4683
-94.2352
-93.0823
-90.6312
-83.0722
-84.9489
-86.7143
-87.6325
-88.3027
-88.8195
-89.2625
-89.6889
-90.1321
-90.6123
-91.1408
-91.7204
-92.3437
-92.9877
-93.6037
-94.0995
-94.3006
-93.8749
-92.2925
-88.7938
-80.0877
-75.2229
-76.3046
-77.036
-77.6033
-78.069
-78.4859
-78.8925
-79.3137
-79.7644
-80.2512
-80.7712
-81.3092
-81.8315
-82.2746
-82.5272
-82.3996
-81.572
-79.5552
-75.6596
-68.3212
-75.3745
-76.3828
-77.0717
-77.6197
-78.0761
-78.4866
-78.8865
-79.2986
-79.7364
-80.2053
-80.7017
-81.2097
-81.6957
-82.0979
-82.3112
-82.1583
-81.3422
-79.4117
-75.7548
-68.6715
-75.5587
-76.4828
-77.1183
-77.6387
-78.0788
-78.4796
-78.8737
-79.2825
-79.719
-80.189
-80.6902
-81.2091
-81.7167
-82.1585
-82.4411
-82.4052
-81.7731
-80.1142
-76.8777
-70.1291
-75.7619
-76.6212
-77.2075
-77.6966
-78.117
-78.5074
-78.8989
-79.3122
-79.7612
-80.2535
-80.7901
-81.3628
-81.9503
-82.5092
-82.9609
-83.1638
-82.8533
-81.5983
-78.8486
-72.3688
-75.9359
-76.7511
-77.3008
-77.7644
-78.169
-78.5524
-78.9456
-79.3698
-79.8401
-80.3669
-80.9553
-81.6034
-82.2982
-83.0074
-83.6658
-84.1458
-84.1883
-83.3501
-81.0541
-74.776
-76.0723
-76.8591
-77.384
-77.8297
-78.2237
-78.6043
-79.003
-79.4419
-79.9381
-80.5048
-81.1515
-81.882
-82.6912
-83.5564
-84.4232
-85.1737
-85.549
-85.0878
-83.1784
-77.0481
-76.1743
-76.9434
-77.4524
-77.8867
-78.2748
-78.6558
-79.0619
-79.5168
-80.0393
-80.6454
-81.3484
-82.1573
-83.0733
-84.0814
-85.1355
-86.1234
-86.7836
-86.6366
-85.0365
-79.0119
-76.2463
-77.0048
-77.5043
-77.932
-78.3173
-78.7002
-79.1141
-79.5835
-80.129
-80.7691
-81.5198
-82.3944
-83.3988
-84.5237
-85.7284
-86.9044
-87.7868
-87.8799
-86.51
-80.5579
-76.2922
-77.0448
-77.5391
-77.9632
-78.3475
-78.7327
-79.1527
-79.6331
-80.1956
-80.8603
-81.6455
-82.567
-83.634
-84.8409
-86.1503
-87.4558
-88.4894
-88.7438
-87.5261
-81.6193
-76.3144
-77.0645
-77.5564
-77.9791
-78.3632
-78.7498
-79.1732
-79.6594
-80.231
-80.9086
-81.7117
-82.6576
-83.757
-85.006
-86.369
-87.7403
-88.8502
-89.1856
-88.0435
-82.1585
-76.3144
-77.0645
-77.5564
-77.9791
-78.3632
-78.7498
-79.1732
-79.6594
-80.231
-80.9086
-81.7117
-82.6576
-83.757
-85.006
-86.369
-87.7403
-88.8502
-89.1856
-88.0435
-82.1585
-76.2922
-77.0448
-77.5391
-77.9632
-78.3475
-78.7327
-79.1527
-79.6331
-80.1956
-80.8603
-81.6455
-82.567
-83.634
-84.8409
-86.1503
-87.4558
-88.4894
-88.7438
-87.5261
-81.6193
-76.2463
-77.0048
-77.5043
-77.932
-78.3173
-78.7002
-79.1141
-79.5835
-80.129
-80.7691
-81.5198
-82.3944
-83.3988
-84.5237
-85.7284
-86.9044
-87.7868
-87.8799
-86.51
-80.5579
-76.1743
-76.9434
-77.4524
-77.8867
-78.2748
-78.6558
-79.0619
-79.5168
-80.0393
-80.6454
-81.3484
-82.1573
-83.0733
-84.0814
-85.1355
-86.1234
-86.7836
-86.6366
-85.0365
-79.0119
-76.0723
-76.8591
-77.384
-77.8297
-78.2237
-78.6043
-79.003
-79.4419
-79.9381
-80.5048
-81.1515
-81.882
-82.6912
-83.5564
-84.4232
-85.1737
-85.5489
-85.0878
-83.1784
-77.0481
-75.9359
-76.7511
-77.3008
-77.7645
-78.169
-78.5524
-78.9456
-79.3698
-79.8401
-80.3669
-80.9553
-81.6034
-82.2982
-83.0074
-83.6658
-84.1458
-84.1883
-83.3501
-81.0541
-74.776
-75.7619
-76.6212
-77.2075
-77.6966
-78.117
-78.5074
-78.8989
-79.3122
-79.7612
-80.2535
-80.7901
-81.3628
-81.9503
-82.5092
-82.9609
-83.1638
-82.8533
-81.5983
-78.8486
-72.3688
-75.5587
-76.4828
-77.1183
-77.6387
-78.0788
-78.4796
-78.8737
-79.2825
-79.719
-80.189
-80.6902
-81.2091
-81.7167
-82.1585
-82.4411
-82.4052
-81.7731
-80.1142
-76.8777
-70.1291
-75.3745
-76.3828
-77.0717
-77.6198
-78.0761
-78.4866
-78.8865
-79.2986
-79.7364
-80.2054
-80.7017
-81.2098
-81.6957
-82.098
-82.3112
-82.1583
-81.3422
-79.4117
-75.7548
-68.6715
-75.2229
-76.3046
-77.036
-77.6033
-78.069
-78.4859
-78.8925
-79.3137
-79.7644
-80.2512
-80.7712
-81.3092
-81.8315
-82.2746
-82.5272
-82.3996
-81.572
-79.5551
-75.6596
-68.3212
-65.5406
-66.1788
-66.6954
-67.1363
-67.527
-67.8938
-68.2585
-68.6363
-69.0354
-69.4566
-69.8911
-70.3174
-70.6942
-70.9515
-70.9753
-70.5876
-69.5182
-67.39
-63.7309
-57.8209
-65.5892
-66.1848
-66.6826
-67.1163
-67.5037
-67.8673
-68.2265
-68.5951
-68.9801
-69.3812
-69.7885
-70.1794
-70.5121
-70.7168
-70.6829
-70.2395
-69.1298
-66.9964
-63.3997
-57.5836
-65.6924
-66.2378
-66.705
-67.1222
-67.5002
-67.8576
-68.2121
-68.5763
-68.9566
-69.3527
-69.7553
-70.1426
-70.4752
-70.687
-70.6734
-70.2723
-69.2363
-67.2148
-63.7816
-58.0829
-65.8308
-66.3307
-66.7649
-67.1608
-67.5255
-67.8757
-68.2281
-68.5946
-68.9821
-69.3914
-69.8152
-70.2349
-70.6155
-70.8971
-70.9824
-70.717
-69.8562
-68.0401
-64.8212
-59.2088
-65.96
-66.426
-66.8336
-67.2109
-67.564
-67.9091
-68.2625
-68.6365
-69.0389
-69.4721
-69.9317
-70.4029
-70.8559
-71.237
-71.4553
-71.3614
-70.7083
-69.1187
-66.1102
-60.5558
-66.0677
-66.5107
-66.899
-67.2624
-67.6074
-67.9502
-68.3075
-68.6923
-69.1137
-69.5762
-70.0782
-70.6088
-71.143
-71.6323
-71.9911
-72.0723
-71.6234
-70.247
-67.4235
-61.9056
-66.1519
-66.5799
-66.9553
-67.3093
-67.6493
-67.9921
-68.355
-68.7518
-69.1931
-69.6854
-70.2296
-70.8184
-71.4306
-72.0221
-72.5106
-72.7499
-72.4809
-71.2868
-68.6141
-63.1181
-66.213
-66.6319
-66.9991
-67.3475
-67.6849
-68.029
-68.3976
-68.8056
-69.2647
-69.783
-70.3638
-71.0022
-71.6801
-72.3566
-72.9516
-73.3185
-73.1922
-72.1398
-69.5807
-64.0969
-66.2526
-66.6663
-67.029
-67.3742
-67.7106
-68.0562
-68.4294
-68.846
-69.3183
-69.8558
-70.4632
-71.1374
-71.8625
-72.5993
-73.2692
-73.725
-73.6969
-72.7408
-70.2573
-64.7797
-66.2721
-66.6835
-67.0441
-67.388
-67.724
-68.0706
-68.4464
-68.8675
-69.3469
-69.8946
-70.5159
-71.2088
-71.9584
-72.7265
-73.435
-73.9363
-73.958
-73.0505
-70.6048
-65.1297
-66.2721
-66.6835
-67.0441
-67.388
-67.724
-68.0706
-68.4464
-68.8675
-69.3469
-69.8946
-70.5159
-71.2088
-71.9584
-72.7265
-73.435
-73.9363
-73.958
-73.0505
-70.6048
-65.1297
-66.2526
-66.6663
-67.029
-67.3742
-67.7106
-68.0562
-68.4294
-68.846
-69.3183
-69.8558
-70.4632
-71.1374
-71.8625
-72.5993
-73.2692
-73.725
-73.6969
-72.7408
-70.2573
-64.7797
-66.213
-66.6319
-66.9991
-67.3475
-67.6849
-68.029
-68.3976
-68.8056
-69.2647
-69.783
-70.3638
-71.0022
-71.6801
-72.3566
-72.9516
-73.3185
-73.1921
-72.1398
-69.5807
-64.0969
-66.1519
-66.5799
-66.9553
-67.3093
-67.6493
-67.9921
-68.355
-68.7518
-69.1931
-69.6854
-70.2296
-70.8184
-71.4306
-72.0221
-72.5106
-72.7499
-72.4809
-71.2868
-68.6141
-63.1181
-66.0677
-66.5107
-66.899
-67.2624
-67.6074
-67.9502
-68.3075
-68.6923
-69.1137
-69.5762
-70.0782
-70.6088
-71.143
-71.6323
-71.9911
-72.0723
-71.6234
-70.247
-67.4234
-61.9056
-65.96
-66.426
-66.8336
-67.2109
-67.564
-67.9091
-68.2625
-68.6365
-69.0389
-69.4721
-69.9317
-70.4029
-70.8559
-71.237
-71.4553
-71.3614
-70.7083
-69.1187
-66.1102
-60.5557
-65.8308
-66.3307
-66.7649
-67.1608
-67.5255
-67.8757
-68.2281
-68.5946
-68.9821
-69.3914
-69.8152
-70.2349
-70.6155
-70.8971
-70.9824
-70.717
-69.8562
-68.0401
-64.8212
-59.2088
-65.6924
-66.2378
-66.705
-67.1222
-67.5002
-67.8576
-68.2121
-68.5763
-68.9567
-69.3528
-69.7553
-70.1426
-70.4752
-70.687
-70.6734
-70.2723
-69.2363
-67.2148
-63.7816
-58.0829
-65.5892
-66.1848
-66.6826
-67.1163
-67.5037
-67.8673
-68.2265
-68.5951
-68.9801
-69.3812
-69.7885
-70.1794
-70.5121
-70.7168
-70.6829
-70.2395
-69.1298
-66.9964
-63.3997
-57.5836
-65.5406
-66.1788
-66.6954
-67.1363
-67.527
-67.8938
-68.2585
-68.6363
-69.0354
-69.4566
-69.8911
-70.3174
-70.6943
-70.9515
-70.9753
-70.5876
-69.5182
-67.39
-63.7309
-57.8209
-55.5361
-55.8997
-56.2458
-56.5724
-56.8839
-57.1898
-57.5
-57.8215
-58.1564
-58.5009
-58.842
-59.1545
-59.3949
-59.4947
-59.3496
-58.8085
-57.6619
-55.6443
-52.4632
-47.8064
-55.5471
-55.8844
-56.2202
-56.5435
-56.8538
-57.1574
-57.4627
-57.7753
-58.0967
-58.4219
-58.737
-59.0156
-59.214
-59.2638
-59.0629
-58.4654
-57.2706
-55.226
-52.0569
-47.4404
-55.604
-55.9081
-56.2245
-56.5374
-56.8417
-57.1409
-57.4419
-57.7496
-58.0648
-58.3822
-58.688
-58.9563
-59.1444
-59.186
-58.9824
-58.3922
-57.2202
-55.2169
-52.1105
-47.5355
-55.6977
-55.9687
-56.2622
-56.5602
-56.8553
-57.1494
-57.4483
-57.7567
-58.0753
-58.3996
-58.7169
-59.003
-59.218
-59.2984
-59.1494
-58.6326
-57.552
-55.6501
-52.6376
-48.0865
-55.7924
-56.0374
-56.3112
-56.5956
-56.8823
-57.1725
-57.4718
-57.785
-58.1134
-58.4535
-58.7944
-59.1142
-59.3759
-59.5193
-59.4524
-59.0378
-58.0754
-56.2939
-53.3788
-48.8381
-55.8755
-56.102
-56.3609
-56.6347
-56.9151
-57.2033
-57.5053
-57.826
-58.1679
-58.5287
-58.8992
-59.2602
-59.577
-59.7927
-59.8169
-59.5116
-58.6707
-57.0074
-54.181
-49.6417
-55.9427
-56.1568
-56.4054
-56.6717
-56.948