/*--------------------------------*- C++ -*----------------------------------*\
  =========                 |
  \\      /  F ield         | OpenFOAM: The Open Source CFD Toolbox
   \\    /   O peration     | Website:  https://openfoam.org
    \\  /    A nd           | Version:  6
     \\/     M anipulation  |
\*---------------------------------------------------------------------------*/
FoamFile
{
    version     2.0;
    format      ascii;
    class       surfaceScalarField;
    location    "0.05";
    object      phi;
}
// * * * * * * * * * * * * * * * * * * * * * * * * * * * * * * * * * * * * * //

dimensions      [0 3 -1 0 0 0 0];

internalField   nonuniform List<scalar> 
162000
(
6.98633e-14
1.74159e-12
5.41232e-07
1.68195e-12
5.41232e-07
1.44535e-14
4.04408e-12
8.31285e-07
4.03058e-12
8.31285e-07
2.34244e-15
6.18294e-12
9.09011e-07
6.17751e-12
9.09011e-07
1.09125e-15
7.70694e-12
9.29848e-07
7.70501e-12
9.29848e-07
5.39162e-16
8.39664e-12
9.35445e-07
8.39603e-12
9.35445e-07
2.92714e-16
8.16784e-12
9.36959e-07
8.16765e-12
9.36959e-07
2.22922e-16
7.04945e-12
9.37377e-07
7.04939e-12
9.37377e-07
2.04905e-16
5.16874e-12
9.375e-07
5.16872e-12
9.375e-07
1.99701e-16
2.73275e-12
9.3754e-07
2.73275e-12
9.3754e-07
1.98642e-16
4.67185e-15
9.37553e-07
4.66875e-15
9.37553e-07
1.98171e-16
-2.72336e-12
9.37553e-07
-2.72337e-12
9.37553e-07
1.97398e-16
-5.15919e-12
9.3754e-07
-5.1592e-12
9.3754e-07
1.94666e-16
-7.03959e-12
9.375e-07
-7.0396e-12
9.375e-07
1.8573e-16
-8.15737e-12
9.37377e-07
-8.15739e-12
9.37377e-07
1.68701e-16
-8.38475e-12
9.36959e-07
-8.38479e-12
9.36959e-07
1.6826e-16
-7.6916e-12
9.35445e-07
-7.69158e-12
9.35445e-07
2.38283e-16
-6.16036e-12
9.29848e-07
-6.16073e-12
9.29848e-07
-1.51587e-16
-4.00733e-12
9.09011e-07
-4.00822e-12
9.09011e-07
-1.03903e-15
-1.65272e-12
8.31285e-07
-1.65284e-12
8.31285e-07
-1.04681e-15
5.41232e-07
5.41232e-07
1.34036e-14
5.16294e-12
5.41227e-07
5.15104e-12
5.41227e-07
4.33262e-15
1.24765e-11
8.31278e-07
1.24713e-11
8.31278e-07
2.19535e-15
1.91618e-11
9.09004e-07
1.91597e-11
9.09004e-07
1.90915e-15
2.39109e-11
9.29844e-07
2.39102e-11
9.29844e-07
1.68298e-15
2.60551e-11
9.35443e-07
2.60549e-11
9.35443e-07
1.59084e-15
2.53417e-11
9.36959e-07
2.53416e-11
9.36959e-07
1.57619e-15
2.18663e-11
9.37381e-07
2.18663e-11
9.37381e-07
1.58209e-15
1.60271e-11
9.37506e-07
1.60271e-11
9.37506e-07
1.59021e-15
8.46765e-12
9.37547e-07
8.46765e-12
9.37547e-07
1.59641e-15
3.68691e-15
9.37561e-07
3.68834e-15
9.37561e-07
1.59913e-15
-8.46024e-12
9.37561e-07
-8.46024e-12
9.37561e-07
1.59758e-15
-1.60196e-11
9.37547e-07
-1.60196e-11
9.37547e-07
1.58949e-15
-2.18585e-11
9.37506e-07
-2.18585e-11
9.37506e-07
1.57806e-15
-2.53335e-11
9.37381e-07
-2.53335e-11
9.37381e-07
1.56282e-15
-2.60459e-11
9.36959e-07
-2.60459e-11
9.36959e-07
1.52522e-15
-2.38999e-11
9.35443e-07
-2.39e-11
9.35443e-07
1.42729e-15
-1.91478e-11
9.29844e-07
-1.91479e-11
9.29844e-07
1.46892e-15
-1.2457e-11
9.09004e-07
-1.24568e-11
9.09004e-07
1.70411e-15
-5.13612e-12
8.31278e-07
-5.13654e-12
8.31278e-07
1.23621e-15
5.41227e-07
5.41227e-07
3.88019e-15
9.18847e-12
5.41218e-07
9.18746e-12
5.41218e-07
3.60384e-15
2.22675e-11
8.31265e-07
2.22663e-11
8.31265e-07
3.38637e-15
3.42077e-11
9.08992e-07
3.42072e-11
9.08992e-07
3.35097e-15
4.26718e-11
9.29835e-07
4.26717e-11
9.29835e-07
3.35523e-15
4.64745e-11
9.35439e-07
4.64745e-11
9.35439e-07
3.39074e-15
4.51767e-11
9.36961e-07
4.51768e-11
9.36961e-07
3.42919e-15
3.89607e-11
9.37387e-07
3.89607e-11
9.37387e-07
3.45828e-15
2.85441e-11
9.37516e-07
2.85441e-11
9.37516e-07
3.47669e-15
1.50751e-11
9.37561e-07
1.50751e-11
9.37561e-07
3.48573e-15
2.68873e-15
9.37576e-07
2.68934e-15
9.37576e-07
3.48638e-15
-1.50697e-11
9.37576e-07
-1.50697e-11
9.37576e-07
3.47785e-15
-2.85386e-11
9.37561e-07
-2.85386e-11
9.37561e-07
3.45956e-15
-3.8955e-11
9.37516e-07
-3.89551e-11
9.37516e-07
3.42537e-15
-4.51707e-11
9.37387e-07
-4.51708e-11
9.37387e-07
3.36387e-15
-4.64679e-11
9.36961e-07
-4.64681e-11
9.36961e-07
3.2975e-15
-4.26643e-11
9.35439e-07
-4.26645e-11
9.35439e-07
3.23357e-15
-3.4199e-11
9.29835e-07
-3.41995e-11
9.29835e-07
2.85157e-15
-2.2258e-11
9.08992e-07
-2.22591e-11
9.08992e-07
1.94717e-15
-9.18118e-12
8.31265e-07
-9.18196e-12
8.31265e-07
1.00674e-15
5.41218e-07
5.41218e-07
3.42412e-15
1.42343e-11
5.41203e-07
1.4235e-11
5.41203e-07
4.44685e-15
3.449e-11
8.31245e-07
3.4491e-11
8.31245e-07
5.35519e-15
5.29553e-11
9.08974e-07
5.29559e-11
9.08974e-07
5.8917e-15
6.60052e-11
9.29822e-07
6.60056e-11
9.29822e-07
6.19109e-15
7.18211e-11
9.35433e-07
7.18214e-11
9.35433e-07
6.37918e-15
6.97513e-11
9.36963e-07
6.97515e-11
9.36963e-07
6.50025e-15
6.01041e-11
9.37396e-07
6.01043e-11
9.37396e-07
6.57642e-15
4.40055e-11
9.37532e-07
4.40056e-11
9.37532e-07
6.62246e-15
2.32301e-11
9.37582e-07
2.32301e-11
9.37582e-07
6.64716e-15
1.66747e-15
9.376e-07
1.67549e-15
9.376e-07
6.65457e-15
-2.32267e-11
9.376e-07
-2.32267e-11
9.376e-07
6.64413e-15
-4.40021e-11
9.37582e-07
-4.40022e-11
9.37582e-07
6.61051e-15
-6.01006e-11
9.37532e-07
-6.01007e-11
9.37532e-07
6.54463e-15
-6.97476e-11
9.37396e-07
-6.97478e-11
9.37396e-07
6.43316e-15
-7.18172e-11
9.36963e-07
-7.18176e-11
9.36963e-07
6.23361e-15
-6.60012e-11
9.35433e-07
-6.60018e-11
9.35433e-07
5.8956e-15
-5.29515e-11
9.29822e-07
-5.29521e-11
9.29822e-07
5.61253e-15
-3.44865e-11
9.08974e-07
-3.44871e-11
9.08974e-07
5.40994e-15
-1.42314e-11
8.31245e-07
-1.42324e-11
8.31245e-07
4.13695e-15
5.41203e-07
5.41203e-07
9.84866e-15
2.08543e-11
5.41182e-07
2.08566e-11
5.41183e-07
1.27772e-14
5.04989e-11
8.31215e-07
5.05011e-11
8.31215e-07
1.41872e-14
7.74604e-11
9.08947e-07
7.74622e-11
9.08947e-07
1.52537e-14
9.64308e-11
9.29803e-07
9.64321e-11
9.29803e-07
1.59698e-14
1.04786e-10
9.35425e-07
1.04787e-10
9.35425e-07
1.64274e-14
1.0163e-10
9.36966e-07
1.01631e-10
9.36966e-07
1.67083e-14
8.74701e-11
9.37411e-07
8.74704e-11
9.37411e-07
1.68736e-14
6.39821e-11
9.37556e-07
6.39822e-11
9.37556e-07
1.69649e-14
3.37549e-11
9.37612e-07
3.3755e-11
9.37612e-07
1.70076e-14
6.76009e-16
9.37633e-07
6.8315e-16
9.37633e-07
1.70132e-14
-3.37536e-11
9.37633e-07
-3.37536e-11
9.37633e-07
1.69815e-14
-6.39807e-11
9.37612e-07
-6.39808e-11
9.37612e-07
1.69017e-14
-8.74687e-11
9.37556e-07
-8.7469e-11
9.37556e-07
1.67471e-14
-1.01629e-10
9.37411e-07
-1.01629e-10
9.37411e-07
1.64671e-14
-1.04784e-10
9.36966e-07
-1.04785e-10
9.36966e-07
1.6024e-14
-9.64291e-11
9.35425e-07
-9.64303e-11
9.35425e-07
1.53691e-14
-7.74583e-11
9.29803e-07
-7.74604e-11
9.29803e-07
1.40842e-14
-5.04969e-11
9.08947e-07
-5.05e-11
9.08947e-07
1.18018e-14
-2.08533e-11
8.31215e-07
-2.08561e-11
8.31215e-07
8.34435e-15
5.41182e-07
5.41183e-07
2.22626e-14
2.98028e-11
5.41153e-07
2.98094e-11
5.41153e-07
3.03876e-14
7.21013e-11
8.31173e-07
7.21081e-11
8.31173e-07
3.49947e-14
1.10445e-10
9.08908e-07
1.1045e-10
9.08909e-07
3.79694e-14
1.37258e-10
9.29776e-07
1.37261e-10
9.29776e-07
3.97811e-14
1.4887e-10
9.35413e-07
1.48872e-10
9.35413e-07
4.08823e-14
1.44122e-10
9.36971e-07
1.44123e-10
9.36971e-07
4.15332e-14
1.23841e-10
9.37431e-07
1.23842e-10
9.37431e-07
4.19017e-14
9.04724e-11
9.37589e-07
9.04728e-11
9.37589e-07
4.2098e-14
4.76919e-11
9.37655e-07
4.76921e-11
9.37655e-07
4.21863e-14
-2.90324e-16
9.37681e-07
-2.78674e-16
9.37681e-07
4.21959e-14
-4.76925e-11
9.37681e-07
-4.76926e-11
9.37681e-07
4.21265e-14
-9.0473e-11
9.37655e-07
-9.04734e-11
9.37655e-07
4.19493e-14
-1.23842e-10
9.37589e-07
-1.23842e-10
9.37589e-07
4.16014e-14
-1.44122e-10
9.37431e-07
-1.44124e-10
9.37431e-07
4.09783e-14
-1.48871e-10
9.36971e-07
-1.48873e-10
9.36971e-07
3.99008e-14
-1.37258e-10
9.35413e-07
-1.37262e-10
9.35413e-07
3.81181e-14
-1.10446e-10
9.29776e-07
-1.10451e-10
9.29776e-07
3.54562e-14
-7.21022e-11
9.08908e-07
-7.21084e-11
9.08909e-07
3.1517e-14
-2.98032e-11
8.31173e-07
-2.98098e-11
8.31173e-07
2.3368e-14
5.41153e-07
5.41153e-07
5.99297e-14
4.21341e-11
5.4111e-07
4.21507e-11
5.41111e-07
8.085e-14
1.01799e-10
8.31113e-07
1.01815e-10
8.31113e-07
9.15871e-14
1.55638e-10
9.08855e-07
1.5565e-10
9.08855e-07
9.86273e-14
1.92966e-10
9.29739e-07
1.92974e-10
9.29739e-07
1.02937e-13
2.0876e-10
9.35397e-07
2.08765e-10
9.35398e-07
1.05516e-13
2.01605e-10
9.36978e-07
2.01607e-10
9.36978e-07
1.07003e-13
1.72862e-10
9.37459e-07
1.72864e-10
9.3746e-07
1.07819e-13
1.26075e-10
9.37636e-07
1.26075e-10
9.37636e-07
1.08237e-13
6.63893e-11
9.37714e-07
6.63896e-11
9.37714e-07
1.08414e-13
-1.1934e-15
9.37747e-07
-1.18326e-15
9.37748e-07
1.08422e-13
-6.63917e-11
9.37747e-07
-6.6392e-11
9.37748e-07
1.0826e-13
-1.26077e-10
9.37714e-07
-1.26078e-10
9.37714e-07
1.0786e-13
-1.72865e-10
9.37636e-07
-1.72866e-10
9.37636e-07
1.07065e-13
-2.01607e-10
9.37459e-07
-2.0161e-10
9.3746e-07
1.05597e-13
-2.08763e-10
9.36978e-07
-2.08768e-10
9.36978e-07
1.03059e-13
-1.92969e-10
9.35397e-07
-1.92976e-10
9.35398e-07
9.88573e-14
-1.5564e-10
9.29739e-07
-1.55652e-10
9.29739e-07
9.16758e-14
-1.018e-10
9.08854e-07
-1.01817e-10
9.08855e-07
8.01166e-14
-4.21352e-11
8.31113e-07
-4.21524e-11
8.31113e-07
5.8715e-14
5.4111e-07
5.41111e-07
1.52248e-13
5.93506e-11
5.41051e-07
5.93934e-11
5.41051e-07
2.06359e-13
1.43129e-10
8.31029e-07
1.43171e-10
8.3103e-07
2.34281e-13
2.18255e-10
9.08779e-07
2.18285e-10
9.0878e-07
2.51905e-13
2.69739e-10
9.29687e-07
2.69758e-10
9.29688e-07
2.62306e-13
2.90825e-10
9.35376e-07
2.90837e-10
9.35377e-07
2.68346e-13
2.79943e-10
9.36988e-07
2.79949e-10
9.36989e-07
2.71727e-13
2.39354e-10
9.375e-07
2.39357e-10
9.37501e-07
2.73528e-13
1.7419e-10
9.37701e-07
1.74192e-10
9.37701e-07
2.74424e-13
9.16011e-11
9.37796e-07
9.16018e-11
9.37797e-07
2.74793e-13
-2.03621e-15
9.37839e-07
-2.02245e-15
9.3784e-07
2.74803e-13
-9.16052e-11
9.37839e-07
-9.16059e-11
9.3784e-07
2.74456e-13
-1.74194e-10
9.37796e-07
-1.74196e-10
9.37797e-07
2.73586e-13
-2.39358e-10
9.37701e-07
-2.39362e-10
9.37701e-07
2.71818e-13
-2.79947e-10
9.375e-07
-2.79954e-10
9.37501e-07
2.68482e-13
-2.9083e-10
9.36988e-07
-2.90841e-10
9.36989e-07
2.62496e-13
-2.69743e-10
9.35376e-07
-2.69762e-10
9.35377e-07
2.52176e-13
-2.18259e-10
9.29687e-07
-2.18288e-10
9.29688e-07
2.34868e-13
-1.43132e-10
9.08779e-07
-1.43174e-10
9.0878e-07
2.07433e-13
-5.93525e-11
8.31029e-07
-5.93954e-11
8.3103e-07
1.53182e-13
5.41051e-07
5.41051e-07
3.94436e-13
8.36533e-11
5.40967e-07
8.37622e-11
5.40968e-07
5.33349e-13
2.01212e-10
8.30911e-07
2.01315e-10
8.30912e-07
6.02878e-13
3.0572e-10
9.08674e-07
3.05792e-10
9.08676e-07
6.45899e-13
3.76211e-10
9.29616e-07
3.76257e-10
9.29618e-07
6.7065e-13
4.03792e-10
9.35348e-07
4.03819e-10
9.3535e-07
6.84614e-13
3.87022e-10
9.37004e-07
3.87037e-10
9.37007e-07
6.92199e-13
3.29692e-10
9.37556e-07
3.29699e-10
9.37559e-07
6.96113e-13
2.39261e-10
9.3779e-07
2.39264e-10
9.37793e-07
6.97997e-13
1.25599e-10
9.37909e-07
1.256e-10
9.37912e-07
6.98749e-13
-2.7847e-15
9.37964e-07
-2.77256e-15
9.37966e-07
6.98757e-13
-1.25604e-10
9.37964e-07
-1.25606e-10
9.37966e-07
6.98023e-13
-2.39266e-10
9.37909e-07
-2.3927e-10
9.37912e-07
6.96164e-13
-3.29698e-10
9.3779e-07
-3.29705e-10
9.37793e-07
6.92284e-13
-3.87028e-10
9.37556e-07
-3.87042e-10
9.37559e-07
6.84737e-13
-4.03798e-10
9.37004e-07
-4.03825e-10
9.37007e-07
6.70843e-13
-3.76217e-10
9.35348e-07
-3.76262e-10
9.3535e-07
6.46244e-13
-3.05724e-10
9.29616e-07
-3.05797e-10
9.29618e-07
6.03163e-13
-2.01215e-10
9.08674e-07
-2.01319e-10
9.08676e-07
5.32865e-13
-8.36556e-11
8.30911e-07
-8.37651e-11
8.30912e-07
3.93404e-13
5.40967e-07
5.40968e-07
1.01336e-12
1.18337e-10
5.40848e-07
1.18614e-10
5.4085e-07
1.36945e-12
2.8359e-10
8.30744e-07
2.83849e-10
8.30749e-07
1.54459e-12
4.28751e-10
9.08527e-07
4.28927e-10
9.08532e-07
1.64993e-12
5.24557e-10
9.29518e-07
5.24665e-10
9.29524e-07
1.70853e-12
5.59654e-10
9.35311e-07
5.59716e-10
9.35317e-07
1.74049e-12
5.3342e-10
9.37029e-07
5.33453e-10
9.37035e-07
1.75726e-12
4.52248e-10
9.37636e-07
4.52265e-10
9.37642e-07
1.76562e-12
3.2702e-10
9.37914e-07
3.27028e-10
9.3792e-07
1.76951e-12
1.71283e-10
9.38063e-07
1.71287e-10
9.38069e-07
1.77102e-12
-3.43952e-15
9.38133e-07
-3.42357e-15
9.38139e-07
1.77104e-12
-1.7129e-10
9.38133e-07
-1.71293e-10
9.38139e-07
1.76955e-12
-3.27027e-10
9.38063e-07
-3.27035e-10
9.38069e-07
1.7657e-12
-4.52255e-10
9.37914e-07
-4.52272e-10
9.3792e-07
1.75738e-12
-5.33428e-10
9.37636e-07
-5.33461e-10
9.37642e-07
1.74067e-12
-5.59662e-10
9.37029e-07
-5.59724e-10
9.37035e-07
1.7088e-12
-5.24564e-10
9.35311e-07
-5.24672e-10
9.35317e-07
1.65033e-12
-4.28757e-10
9.29518e-07
-4.28933e-10
9.29524e-07
1.5453e-12
-2.83595e-10
9.08527e-07
-2.83853e-10
9.08532e-07
1.37045e-12
-1.1834e-10
8.30744e-07
-1.18617e-10
8.30749e-07
1.01406e-12
5.40848e-07
5.4085e-07
2.6107e-12
1.68478e-10
5.40676e-07
1.69181e-10
5.40684e-07
3.52365e-12
4.0163e-10
8.30507e-07
4.02272e-10
8.30519e-07
3.96162e-12
6.03056e-10
9.08322e-07
6.03483e-10
9.08335e-07
4.21743e-12
7.32067e-10
9.29385e-07
7.32321e-10
9.29399e-07
4.35468e-12
7.74903e-10
9.35264e-07
7.75043e-10
9.35278e-07
4.42675e-12
7.3323e-10
9.37066e-07
7.33303e-10
9.37081e-07
4.46315e-12
6.17864e-10
9.37747e-07
6.179e-10
9.37761e-07
4.48058e-12
4.44729e-10
9.38082e-07
4.44745e-10
9.38097e-07
4.48837e-12
2.32275e-10
9.38271e-07
2.32281e-10
9.38286e-07
4.49129e-12
-3.9633e-15
9.38361e-07
-3.94909e-15
9.38376e-07
4.4913e-12
-2.32283e-10
9.38361e-07
-2.32289e-10
9.38376e-07
4.4884e-12
-4.44737e-10
9.38271e-07
-4.44753e-10
9.38286e-07
4.48064e-12
-6.17873e-10
9.38082e-07
-6.17908e-10
9.38097e-07
4.46327e-12
-7.33239e-10
9.37747e-07
-7.33311e-10
9.37761e-07
4.42692e-12
-7.74911e-10
9.37066e-07
-7.75052e-10
9.37081e-07
4.35495e-12
-7.32075e-10
9.35264e-07
-7.32329e-10
9.35278e-07
4.21789e-12
-6.03063e-10
9.29385e-07
-6.03489e-10
9.29399e-07
3.96212e-12
-4.01635e-10
9.08322e-07
-4.02277e-10
9.08335e-07
3.52347e-12
-1.68481e-10
8.30507e-07
-1.69185e-10
8.30519e-07
2.60992e-12
5.40676e-07
5.40684e-07
6.73352e-12
2.42153e-10
5.40428e-07
2.43937e-10
5.40447e-07
9.0856e-12
5.72885e-10
8.30168e-07
5.74475e-10
8.30198e-07
1.01847e-11
8.52033e-10
9.08033e-07
8.53057e-10
9.08067e-07
1.08043e-11
1.02347e-09
9.29203e-07
1.02406e-09
9.29239e-07
1.11228e-11
1.07214e-09
9.35204e-07
1.07246e-09
9.35241e-07
1.12828e-11
1.00499e-09
9.37122e-07
1.00514e-09
9.37159e-07
1.136e-11
8.40272e-10
9.379e-07
8.40345e-10
9.37938e-07
1.13952e-11
6.01304e-10
9.3831e-07
6.01336e-10
9.38348e-07
1.14102e-11
3.12929e-10
9.38548e-07
3.1294e-10
9.38586e-07
1.14156e-11
-4.35255e-15
9.38662e-07
-4.3341e-15
9.387e-07
1.14156e-11
-3.12938e-10
9.38662e-07
-3.12949e-10
9.387e-07
1.14103e-11
-6.01313e-10
9.38548e-07
-6.01345e-10
9.38586e-07
1.13953e-11
-8.40281e-10
9.3831e-07
-8.40354e-10
9.38348e-07
1.13601e-11
-1.005e-09
9.379e-07
-1.00515e-09
9.37938e-07
1.1283e-11
-1.07215e-09
9.37122e-07
-1.07247e-09
9.37159e-07
1.11231e-11
-1.02348e-09
9.35204e-07
-1.02407e-09
9.35241e-07
1.08048e-11
-8.5204e-10
9.29203e-07
-8.53064e-10
9.29239e-07
1.01855e-11
-5.72891e-10
9.08033e-07
-5.7448e-10
9.08067e-07
9.08651e-12
-2.42157e-10
8.30168e-07
-2.43941e-10
8.30198e-07
6.73399e-12
5.40428e-07
5.40447e-07
1.74197e-11
3.52725e-10
5.40057e-07
3.57262e-10
5.40107e-07
2.35158e-11
8.25239e-10
8.29672e-07
8.29165e-10
8.29749e-07
2.62895e-11
1.21114e-09
9.0762e-07
1.21358e-09
9.07709e-07
2.77909e-11
1.43435e-09
9.28952e-07
1.4357e-09
9.29045e-07
2.8524e-11
1.48218e-09
9.35128e-07
1.48287e-09
9.35222e-07
2.88728e-11
1.3726e-09
9.37203e-07
1.37293e-09
9.37298e-07
2.90322e-11
1.13629e-09
9.38107e-07
1.13644e-09
9.38203e-07
2.91006e-11
8.07199e-10
9.3861e-07
8.0726e-10
9.38706e-07
2.91279e-11
4.18201e-10
9.38908e-07
4.18223e-10
9.39004e-07
2.91371e-11
-4.56044e-15
9.39051e-07
-4.54501e-15
9.39147e-07
2.91371e-11
-4.18211e-10
9.39051e-07
-4.18232e-10
9.39147e-07
2.91279e-11
-8.07209e-10
9.38908e-07
-8.0727e-10
9.39004e-07
2.91007e-11
-1.1363e-09
9.3861e-07
-1.13645e-09
9.38706e-07
2.90323e-11
-1.37261e-09
9.38107e-07
-1.37294e-09
9.38203e-07
2.88731e-11
-1.48219e-09
9.37203e-07
-1.48288e-09
9.37298e-07
2.85243e-11
-1.43436e-09
9.35128e-07
-1.43571e-09
9.35222e-07
2.77914e-11
-1.21115e-09
9.28952e-07
-1.21359e-09
9.29045e-07
2.62902e-11
-8.25245e-10
9.0762e-07
-8.29171e-10
9.07709e-07
2.3516e-11
-3.52728e-10
8.29672e-07
-3.57266e-10
8.29749e-07
1.74192e-11
5.40057e-07
5.40107e-07
4.50003e-11
5.23225e-10
5.39489e-07
5.34731e-10
5.39617e-07
6.0813e-11
1.20436e-09
8.2893e-07
1.21397e-09
8.29131e-07
6.77996e-11
1.73516e-09
9.07022e-07
1.7409e-09
9.0725e-07
7.1424e-11
2.01619e-09
9.286e-07
2.01924e-09
9.28838e-07
7.30953e-11
2.04656e-09
9.35024e-07
2.04805e-09
9.35267e-07
7.38406e-11
1.86602e-09
9.37309e-07
1.8667e-09
9.37553e-07
7.41582e-11
1.5255e-09
9.38374e-07
1.5258e-09
9.38618e-07
7.42842e-11
1.0738e-09
9.38987e-07
1.07392e-09
9.39232e-07
7.43298e-11
5.53234e-10
9.39354e-07
5.53275e-10
9.39599e-07
7.43438e-11
-4.57273e-15
9.3953e-07
-4.55328e-15
9.39775e-07
7.43438e-11
-5.53243e-10
9.3953e-07
-5.53285e-10
9.39775e-07
7.43299e-11
-1.07381e-09
9.39354e-07
-1.07393e-09
9.39599e-07
7.42843e-11
-1.52551e-09
9.38987e-07
-1.52581e-09
9.39232e-07
7.41584e-11
-1.86604e-09
9.38374e-07
-1.86671e-09
9.38618e-07
7.38408e-11
-2.04657e-09
9.37309e-07
-2.04806e-09
9.37553e-07
7.30957e-11
-2.0162e-09
9.35024e-07
-2.01925e-09
9.35267e-07
7.14247e-11
-1.73517e-09
9.286e-07
-1.74091e-09
9.28838e-07
6.78005e-11
-1.20437e-09
9.07022e-07
-1.21398e-09
9.0725e-07
6.08136e-11
-5.23229e-10
8.2893e-07
-5.34735e-10
8.29131e-07
4.50004e-11
5.39489e-07
5.39617e-07
1.16897e-10
7.95614e-10
5.38577e-07
8.24453e-10
5.38909e-07
1.5921e-10
1.78823e-09
8.27778e-07
1.81134e-09
8.28303e-07
1.77004e-10
2.51083e-09
9.06122e-07
2.52411e-09
9.06714e-07
1.85757e-10
2.84402e-09
9.28081e-07
2.85081e-09
9.28697e-07
1.89552e-10
2.82054e-09
9.34858e-07
2.82375e-09
9.35483e-07
1.91119e-10
2.52129e-09
9.37417e-07
2.52272e-09
9.38045e-07
1.91729e-10
2.02898e-09
9.38674e-07
2.02961e-09
9.39303e-07
1.91944e-10
1.41203e-09
9.39412e-07
1.4123e-09
9.40041e-07
1.9201e-10
7.22516e-10
9.39852e-07
7.22616e-10
9.40481e-07
1.92027e-10
-4.31815e-15
9.40061e-07
-4.3005e-15
9.4069e-07
1.92027e-10
-7.22525e-10
9.40061e-07
-7.22624e-10
9.4069e-07
1.9201e-10
-1.41204e-09
9.39852e-07
-1.41231e-09
9.40481e-07
1.91944e-10
-2.02899e-09
9.39412e-07
-2.02962e-09
9.40041e-07
1.91729e-10
-2.5213e-09
9.38674e-07
-2.52274e-09
9.39303e-07
1.91119e-10
-2.82055e-09
9.37417e-07
-2.82376e-09
9.38045e-07
1.89552e-10
-2.84403e-09
9.34858e-07
-2.85082e-09
9.35483e-07
1.85757e-10
-2.51084e-09
9.28081e-07
-2.52412e-09
9.28697e-07
1.77005e-10
-1.78823e-09
9.06122e-07
-1.81135e-09
9.06714e-07
1.5921e-10
-7.95618e-10
8.27778e-07
-8.24458e-10
8.28303e-07
1.16897e-10
5.38577e-07
5.38909e-07
3.18265e-10
1.25371e-09
5.37005e-07
1.32769e-09
5.379e-07
4.45688e-10
2.71804e-09
8.25868e-07
2.7748e-09
8.27302e-07
4.96522e-10
3.68006e-09
9.04664e-07
3.71149e-09
9.06274e-07
5.19451e-10
4.02837e-09
9.27213e-07
4.04402e-09
9.28884e-07
5.2858e-10
3.87661e-09
9.34481e-07
3.88402e-09
9.36172e-07
5.31984e-10
3.37951e-09
9.37382e-07
3.383e-09
9.39078e-07
5.3314e-10
2.66682e-09
9.38854e-07
2.66853e-09
9.40551e-07
5.33465e-10
1.83012e-09
9.39715e-07
1.83097e-09
9.41412e-07
5.33522e-10
9.28625e-10
9.4022e-07
9.28987e-10
9.41916e-07
5.33518e-10
-3.72239e-15
9.40456e-07
-3.71016e-15
9.42152e-07
5.33518e-10
-9.28633e-10
9.40456e-07
-9.28995e-10
9.42152e-07
5.33522e-10
-1.83013e-09
9.4022e-07
-1.83097e-09
9.41916e-07
5.33465e-10
-2.66683e-09
9.39715e-07
-2.66854e-09
9.41412e-07
5.33141e-10
-3.37953e-09
9.38854e-07
-3.38302e-09
9.40551e-07
5.31985e-10
-3.87663e-09
9.37382e-07
-3.88403e-09
9.39078e-07
5.28581e-10
-4.02838e-09
9.34481e-07
-4.04403e-09
9.36172e-07
5.19452e-10
-3.68007e-09
9.27213e-07
-3.7115e-09
9.28884e-07
4.96523e-10
-2.71805e-09
9.04664e-07
-2.77481e-09
9.06274e-07
4.45688e-10
-1.25372e-09
8.25868e-07
-1.32769e-09
8.27302e-07
3.18265e-10
5.37005e-07
5.379e-07
9.10996e-10
2.07044e-09
5.34023e-07
2.27738e-09
5.36534e-07
1.32689e-09
4.25146e-09
8.2236e-07
4.40014e-09
8.26506e-07
1.493e-09
5.4764e-09
9.01946e-07
5.5551e-09
9.06612e-07
1.56172e-09
5.73247e-09
9.25395e-07
5.77223e-09
9.30228e-07
1.58629e-09
5.30913e-09
9.33318e-07
5.32968e-09
9.38201e-07
1.59434e-09
4.48592e-09
9.36611e-07
4.4973e-09
9.41505e-07
1.59659e-09
3.45576e-09
9.38287e-07
3.46252e-09
9.43182e-07
1.59695e-09
2.33161e-09
9.39243e-07
2.33558e-09
9.44136e-07
1.59683e-09
1.17121e-09
9.39783e-07
1.17309e-09
9.44675e-07
1.5967e-09
-2.62387e-15
9.4003e-07
-2.6169e-15
9.44922e-07
1.5967e-09
-1.17122e-09
9.4003e-07
-1.17309e-09
9.44922e-07
1.59683e-09
-2.33161e-09
9.39783e-07
-2.33558e-09
9.44675e-07
1.59695e-09
-3.45577e-09
9.39243e-07
-3.46253e-09
9.44136e-07
1.59659e-09
-4.48593e-09
9.38287e-07
-4.49731e-09
9.43182e-07
1.59434e-09
-5.30914e-09
9.36611e-07
-5.32969e-09
9.41505e-07
1.58629e-09
-5.73248e-09
9.33318e-07
-5.77224e-09
9.38201e-07
1.56172e-09
-5.47641e-09
9.25395e-07
-5.55512e-09
9.30228e-07
1.493e-09
-4.25147e-09
9.01946e-07
-4.40015e-09
9.06612e-07
1.32689e-09
-2.07045e-09
8.2236e-07
-2.27739e-09
8.26506e-07
9.10996e-10
5.34023e-07
5.36534e-07
2.48584e-09
3.54769e-09
5.2799e-07
4.10655e-09
5.34913e-07
3.74586e-09
6.82619e-09
8.15335e-07
7.19048e-09
8.27168e-07
4.24618e-09
8.27856e-09
8.96247e-07
8.47544e-09
9.09573e-07
4.44624e-09
8.20142e-09
9.21026e-07
8.31714e-09
9.34833e-07
4.51303e-09
7.24789e-09
9.29759e-07
7.32261e-09
9.43708e-07
4.53261e-09
5.8973e-09
9.33429e-07
5.94857e-09
9.47412e-07
4.53717e-09
4.41473e-09
9.35233e-07
4.45008e-09
9.49218e-07
4.53737e-09
2.91969e-09
9.362e-07
2.94222e-09
9.50181e-07
4.53667e-09
1.44946e-09
9.36717e-07
1.46048e-09
9.50694e-07
4.53619e-09
-7.78892e-16
9.36944e-07
-7.26518e-16
9.50918e-07
4.53619e-09
-1.44946e-09
9.36944e-07
-1.46048e-09
9.50918e-07
4.53667e-09
-2.91969e-09
9.36717e-07
-2.94223e-09
9.50694e-07
4.53737e-09
-4.41474e-09
9.362e-07
-4.45008e-09
9.50181e-07
4.53718e-09
-5.89731e-09
9.35233e-07
-5.94858e-09
9.49218e-07
4.53261e-09
-7.2479e-09
9.33429e-07
-7.32262e-09
9.47412e-07
4.51303e-09
-8.20144e-09
9.29759e-07
-8.31715e-09
9.43708e-07
4.44624e-09
-8.27858e-09
9.21026e-07
-8.47546e-09
9.34833e-07
4.24618e-09
-6.82621e-09
8.96247e-07
-7.1905e-09
9.09573e-07
3.74586e-09
-3.5477e-09
8.15335e-07
-4.10656e-09
8.27168e-07
2.48584e-09
5.2799e-07
5.34913e-07
7.89604e-09
6.29196e-09
5.13802e-07
7.00085e-09
5.35808e-07
1.27036e-08
1.14084e-08
7.97515e-07
1.21303e-08
8.34742e-07
1.43679e-08
1.28406e-08
8.80447e-07
1.34127e-08
9.22658e-07
1.50117e-08
1.18834e-08
9.06971e-07
1.23411e-08
9.50916e-07
1.52276e-08
9.92933e-09
9.16485e-07
1.02945e-08
9.60982e-07
1.5289e-08
7.73355e-09
9.20336e-07
8.01513e-09
9.6498e-07
1.53022e-08
5.60507e-09
9.22059e-07
5.80973e-09
9.66725e-07
1.53021e-08
3.62582e-09
9.22877e-07
3.75898e-09
9.67534e-07
1.52994e-08
1.77702e-09
9.23266e-07
1.84258e-09
9.6791e-07
1.52976e-08
2.38979e-15
9.23423e-07
2.71002e-15
9.68059e-07
1.52976e-08
-1.77702e-09
9.23423e-07
-1.84257e-09
9.68059e-07
1.52994e-08
-3.62582e-09
9.23266e-07
-3.75897e-09
9.6791e-07
1.53021e-08
-5.60507e-09
9.22877e-07
-5.80973e-09
9.67534e-07
1.53022e-08
-7.73356e-09
9.22059e-07
-8.01513e-09
9.66725e-07
1.5289e-08
-9.92935e-09
9.20336e-07
-1.02945e-08
9.6498e-07
1.52276e-08
-1.18834e-08
9.16485e-07
-1.23411e-08
9.60982e-07
1.50117e-08
-1.28406e-08
9.06971e-07
-1.34128e-08
9.50916e-07
1.43679e-08
-1.14085e-08
8.80447e-07
-1.21303e-08
9.22658e-07
1.27036e-08
-6.29198e-09
7.97515e-07
-7.00088e-09
8.34742e-07
7.89604e-09
5.13802e-07
5.35808e-07
4.48956e-08
1.42436e-08
4.54662e-07
1.75483e-08
5.63155e-07
7.53245e-08
2.1049e-08
7.15385e-07
2.51451e-08
9.02469e-07
8.51425e-08
2.08345e-08
7.95519e-07
2.42818e-08
1.00866e-06
8.85728e-08
1.7648e-08
8.21585e-07
2.04115e-08
1.04336e-06
8.97007e-08
1.3843e-08
8.30589e-07
1.60239e-08
1.05507e-06
9.00183e-08
1.03079e-08
8.33853e-07
1.19703e-08
1.05905e-06
9.00749e-08
7.24213e-09
8.3505e-07
8.43854e-09
1.06033e-06
9.00588e-08
4.59094e-09
8.3547e-07
5.36393e-09
1.06067e-06
9.00326e-08
2.2246e-09
8.356e-07
2.60363e-09
1.0607e-06
9.00166e-08
7.87808e-15
8.35631e-07
1.03334e-14
1.06068e-06
9.00166e-08
-2.22459e-09
8.35631e-07
-2.60362e-09
1.06068e-06
9.00326e-08
-4.59093e-09
8.356e-07
-5.36392e-09
1.0607e-06
9.00588e-08
-7.24213e-09
8.3547e-07
-8.43853e-09
1.06067e-06
9.0075e-08
-1.03079e-08
8.3505e-07
-1.19703e-08
1.06033e-06
9.00183e-08
-1.38431e-08
8.33853e-07
-1.6024e-08
1.05905e-06
8.97007e-08
-1.7648e-08
8.30589e-07
-2.04116e-08
1.05507e-06
8.85728e-08
-2.08346e-08
8.21585e-07
-2.42819e-08
1.04336e-06
8.51425e-08
-2.10491e-08
7.95519e-07
-2.51452e-08
1.00866e-06
7.53245e-08
-1.42437e-08
7.15385e-07
-1.75484e-08
9.02469e-07
4.48956e-08
4.54662e-07
5.63155e-07
1.31765e-07
2.60213e-08
2.96876e-07
3.38393e-08
3.79657e-07
2.81425e-07
2.23242e-07
3.29302e-08
4.85234e-07
4.85444e-08
6.63918e-07
4.47088e-07
2.53215e-07
3.04058e-08
5.44828e-07
4.72343e-08
7.62024e-07
5.01165e-07
2.63191e-07
2.48049e-08
5.63995e-07
3.99126e-08
7.94878e-07
5.18994e-07
2.66346e-07
1.90046e-08
5.70043e-07
3.14234e-08
8.053e-07
5.24606e-07
2.67168e-07
1.39395e-08
5.7175e-07
2.35329e-08
8.08097e-07
5.26014e-07
2.67241e-07
9.70205e-09
5.72046e-07
1.66329e-08
8.08429e-07
5.26044e-07
2.67119e-07
6.11675e-09
5.71936e-07
1.05982e-08
8.08092e-07
5.25729e-07
2.66992e-07
2.95572e-09
5.71769e-07
5.15325e-09
8.07707e-07
5.25432e-07
2.6692e-07
1.6519e-14
5.71666e-07
3.0568e-14
8.07484e-07
5.25269e-07
2.6692e-07
-2.95569e-09
5.71666e-07
-5.15319e-09
8.07484e-07
5.25269e-07
2.66992e-07
-6.11672e-09
5.71769e-07
-1.05982e-08
8.07707e-07
5.25432e-07
2.67119e-07
-9.70204e-09
5.71936e-07
-1.66329e-08
8.08092e-07
5.25729e-07
2.67241e-07
-1.39395e-08
5.72046e-07
-2.3533e-08
8.08429e-07
5.26044e-07
2.67168e-07
-1.90047e-08
5.7175e-07
-3.14235e-08
8.08097e-07
5.26014e-07
2.66346e-07
-2.4805e-08
5.70043e-07
-3.99129e-08
8.053e-07
5.24606e-07
2.63191e-07
-3.0406e-08
5.63995e-07
-4.72347e-08
7.94878e-07
5.18994e-07
2.53215e-07
-3.29304e-08
5.44828e-07
-4.85447e-08
7.62025e-07
5.01165e-07
2.23242e-07
-2.60214e-08
4.85234e-07
-3.38394e-08
6.63918e-07
4.47088e-07
1.31765e-07
2.96876e-07
3.79656e-07
2.81425e-07
9.28138e-08
2.08311e-08
1.83231e-07
2.48161e-08
2.49535e-07
1.9812e-07
1.68117e-07
3.06574e-08
3.07292e-07
4.65831e-08
4.58004e-07
3.52263e-07
1.95132e-07
3.08006e-08
3.49553e-07
5.16828e-08
5.39279e-07
4.12777e-07
2.04943e-07
2.64876e-08
3.63365e-07
4.73136e-08
5.68383e-07
4.35806e-07
2.08181e-07
2.10417e-08
3.67308e-07
3.93156e-08
5.77497e-07
4.43982e-07
2.0901e-07
1.58297e-08
3.67951e-07
3.05666e-08
5.79406e-07
4.4645e-07
2.09043e-07
1.12128e-08
3.6762e-07
2.21692e-08
5.79001e-07
4.46869e-07
2.08876e-07
7.15185e-09
3.67121e-07
1.43675e-08
5.78092e-07
4.46678e-07
2.08716e-07
3.47901e-09
3.66726e-07
7.05382e-09
5.77323e-07
4.46413e-07
2.08628e-07
2.16724e-14
3.66518e-07
4.52487e-14
5.76909e-07
4.46256e-07
2.08628e-07
-3.47897e-09
3.66518e-07
-7.05373e-09
5.76909e-07
4.46256e-07
2.08716e-07
-7.15181e-09
3.66726e-07
-1.43674e-08
5.77323e-07
4.46413e-07
2.08876e-07
-1.12128e-08
3.67121e-07
-2.21691e-08
5.78092e-07
4.46678e-07
2.09043e-07
-1.58297e-08
3.6762e-07
-3.05667e-08
5.79001e-07
4.46869e-07
2.0901e-07
-2.10418e-08
3.67951e-07
-3.93157e-08
5.79407e-07
4.4645e-07
2.08181e-07
-2.64878e-08
3.67308e-07
-4.73139e-08
5.77498e-07
4.43982e-07
2.04943e-07
-3.08008e-08
3.63366e-07
-5.16831e-08
5.68383e-07
4.35806e-07
1.95131e-07
-3.06575e-08
3.49553e-07
-4.65834e-08
5.39279e-07
4.12777e-07
1.68116e-07
-2.08312e-08
3.07292e-07
-2.48162e-08
4.58004e-07
3.52263e-07
9.28137e-08
1.83231e-07
2.49534e-07
1.9812e-07
5.59643e-08
1.65842e-08
1.10683e-07
2.12358e-08
1.61219e-07
1.23044e-07
1.07927e-07
2.5978e-08
1.89971e-07
4.07101e-08
3.08096e-07
2.3836e-07
1.29315e-07
2.76016e-08
2.18615e-07
4.79468e-08
3.70455e-07
2.90902e-07
1.37961e-07
2.48624e-08
2.28144e-07
4.63502e-08
3.94319e-07
3.13621e-07
1.41111e-07
2.04986e-08
2.30561e-07
4.02315e-08
4.01913e-07
3.22814e-07
1.4206e-07
1.58714e-08
2.30518e-07
3.234e-08
4.0317e-07
3.26188e-07
1.42212e-07
1.14841e-08
2.29795e-07
2.40339e-08
4.02303e-07
3.27215e-07
1.42128e-07
7.43231e-09
2.29045e-07
1.58352e-08
4.01025e-07
3.27393e-07
1.42018e-07
3.64622e-09
2.28494e-07
7.84879e-09
3.99993e-07
3.27335e-07
1.41953e-07
2.38275e-14
2.2821e-07
5.20271e-14
3.99442e-07
3.27269e-07
1.41953e-07
-3.64617e-09
2.2821e-07
-7.84869e-09
3.99442e-07
3.27269e-07
1.42018e-07
-7.43227e-09
2.28494e-07
-1.58351e-08
3.99993e-07
3.27335e-07
1.42128e-07
-1.14841e-08
2.29045e-07
-2.40339e-08
4.01025e-07
3.27393e-07
1.42212e-07
-1.58714e-08
2.29795e-07
-3.234e-08
4.02303e-07
3.27215e-07
1.4206e-07
-2.04986e-08
2.30519e-07
-4.02315e-08
4.0317e-07
3.26188e-07
1.41111e-07
-2.48625e-08
2.30561e-07
-4.63503e-08
4.01914e-07
3.22814e-07
1.37961e-07
-2.76017e-08
2.28144e-07
-4.7947e-08
3.94319e-07
3.13621e-07
1.29315e-07
-2.59781e-08
2.18615e-07
-4.07102e-08
3.70455e-07
2.90902e-07
1.07927e-07
-1.65842e-08
1.89971e-07
-2.12359e-08
3.08096e-07
2.3836e-07
5.59643e-08
1.10683e-07
1.61218e-07
1.23044e-07
3.24115e-08
1.23913e-08
6.58799e-08
1.63987e-08
1.02519e-07
7.4712e-08
6.6078e-08
2.05571e-08
1.15727e-07
3.27937e-08
2.02787e-07
1.54992e-07
8.16301e-08
2.29014e-08
1.34641e-07
4.05296e-08
2.48323e-07
1.96025e-07
8.8579e-08
2.14915e-08
1.40975e-07
4.09365e-08
2.66707e-07
2.15785e-07
9.14012e-08
1.83362e-08
1.42315e-07
3.68573e-08
2.72643e-07
2.24751e-07
9.24096e-08
1.45894e-08
1.41856e-07
3.04977e-08
2.73367e-07
2.28571e-07
9.26883e-08
1.07754e-08
1.40921e-07
2.316e-08
2.72253e-07
2.30076e-07
9.27101e-08
7.07342e-09
1.40037e-07
1.54875e-08
2.70799e-07
2.30608e-07
9.26691e-08
3.49912e-09
1.39399e-07
7.7431e-09
2.69638e-07
2.30768e-07
9.26375e-08
2.40668e-14
1.39072e-07
5.36978e-14
2.69017e-07
2.30805e-07
9.26375e-08
-3.49907e-09
1.39072e-07
-7.74299e-09
2.69017e-07
2.30805e-07
9.26691e-08
-7.07337e-09
1.39399e-07
-1.54874e-08
2.69638e-07
2.30768e-07
9.27101e-08
-1.07753e-08
1.40037e-07
-2.31599e-08
2.70799e-07
2.30608e-07
9.26883e-08
-1.45894e-08
1.40921e-07
-3.04976e-08
2.72253e-07
2.30076e-07
9.24096e-08
-1.83362e-08
1.41856e-07
-3.68572e-08
2.73368e-07
2.28571e-07
9.14013e-08
-2.14915e-08
1.42315e-07
-4.09365e-08
2.72643e-07
2.24751e-07
8.85791e-08
-2.29014e-08
1.40975e-07
-4.05296e-08
2.66707e-07
2.15785e-07
8.16302e-08
-2.0557e-08
1.34641e-07
-3.27936e-08
2.48323e-07
1.96025e-07
6.60781e-08
-1.23913e-08
1.15727e-07
-1.63987e-08