/*--------------------------------*- C++ -*----------------------------------*\
  =========                 |
  \\      /  F ield         | OpenFOAM: The Open Source CFD Toolbox
   \\    /   O peration     | Website:  https://openfoam.org
    \\  /    A nd           | Version:  6
     \\/     M anipulation  |
\*---------------------------------------------------------------------------*/
FoamFile
{
    version     2.0;
    format      ascii;
    class       volVectorField;
    location    "0.05";
    object      U;
}
// * * * * * * * * * * * * * * * * * * * * * * * * * * * * * * * * * * * * * //

dimensions      [0 1 -1 0 0 0 0];

internalField   nonuniform List<vector> 
56000
(
(-1.09331e-09 2.5937e-08 0.0216491)
(4.45946e-09 2.44926e-08 0.0216491)
(-5.15187e-10 1.16711e-07 0.0332512)
(1.48916e-09 1.15269e-07 0.0332512)
(-5.20152e-10 2.07573e-07 0.0363602)
(6.96319e-10 2.07147e-07 0.0363602)
(-1.70323e-10 2.83231e-07 0.0371937)
(2.43519e-10 2.83127e-07 0.0371937)
(-2.93423e-11 3.28732e-07 0.0374175)
(7.33968e-11 3.28695e-07 0.0374175)
(7.87431e-11 3.38147e-07 0.037478)
(-4.82572e-11 3.38134e-07 0.037478)
(1.82874e-10 3.106e-07 0.0374947)
(-1.56531e-10 3.10596e-07 0.0374947)
(2.69735e-10 2.49349e-07 0.0374996)
(-2.44432e-10 2.49348e-07 0.0374996)
(3.31166e-10 1.61235e-07 0.0375012)
(-3.06131e-10 1.61235e-07 0.0375012)
(3.62997e-10 5.58529e-08 0.0375017)
(-3.38019e-10 5.58528e-08 0.0375017)
(3.63195e-10 -5.5479e-08 0.0375017)
(-3.38253e-10 -5.54792e-08 0.0375017)
(3.31723e-10 -1.60857e-07 0.0375012)
(-3.0687e-10 -1.60857e-07 0.0375012)
(2.70508e-10 -2.48963e-07 0.0374996)
(-2.45921e-10 -2.48963e-07 0.0374996)
(1.83598e-10 -3.10198e-07 0.0374947)
(-1.5961e-10 -3.10198e-07 0.0374947)
(7.84307e-11 -3.37707e-07 0.037478)
(-5.5642e-11 -3.37708e-07 0.037478)
(-3.23845e-11 -3.28211e-07 0.0374175)
(5.52424e-11 -3.28211e-07 0.0374175)
(-1.71916e-10 -2.8254e-07 0.0371937)
(1.9591e-10 -2.82548e-07 0.0371937)
(-5.5731e-10 -2.06353e-07 0.0363602)
(5.61331e-10 -2.06377e-07 0.0363602)
(-1.08777e-09 -1.14096e-07 0.0332512)
(1.0525e-09 -1.14116e-07 0.0332512)
(-3.00295e-09 -2.36632e-08 0.0216491)
(2.96278e-09 -2.36713e-08 0.0216491)
(-8.79393e-09 7.42772e-08 0.0216489)
(9.68414e-09 7.39272e-08 0.0216489)
(-3.16066e-09 3.55743e-07 0.033251)
(3.51661e-09 3.55333e-07 0.033251)
(-1.72781e-09 6.42085e-07 0.03636)
(1.87528e-09 6.41963e-07 0.03636)
(-5.75401e-10 8.78548e-07 0.0371936)
(6.91383e-10 8.7851e-07 0.0371936)
(-1.52462e-10 1.02009e-06 0.0374175)
(2.54473e-10 1.02007e-06 0.0374175)
(1.849e-10 1.04924e-06 0.0374781)
(-8.89736e-11 1.04924e-06 0.0374781)
(5.05778e-10 9.63565e-07 0.0374948)
(-4.1106e-10 9.63564e-07 0.0374948)
(7.71487e-10 7.73319e-07 0.0374998)
(-6.76516e-10 7.73319e-07 0.0374998)
(9.59001e-10 4.99822e-07 0.0375014)
(-8.63577e-10 4.99822e-07 0.0375014)
(1.05593e-09 1.72847e-07 0.0375019)
(-9.60157e-10 1.72847e-07 0.0375019)
(1.05626e-09 -1.72552e-07 0.0375019)
(-9.6034e-10 -1.72552e-07 0.0375019)
(9.59948e-10 -4.99524e-07 0.0375014)
(-8.64146e-10 -4.99524e-07 0.0375014)
(7.7293e-10 -7.73015e-07 0.0374998)
(-6.77598e-10 -7.73015e-07 0.0374998)
(5.07474e-10 -9.63247e-07 0.0374948)
(-4.12967e-10 -9.63248e-07 0.0374948)
(1.8599e-10 -1.0489e-06 0.0374781)
(-9.25548e-11 -1.0489e-06 0.0374781)
(-1.55034e-10 -1.01969e-06 0.0374175)
(2.46025e-10 -1.01969e-06 0.0374175)
(-5.82538e-10 -8.78076e-07 0.0371936)
(6.68883e-10 -8.78079e-07 0.0371936)
(-1.74455e-09 -6.41439e-07 0.03636)
(1.82996e-09 -6.41438e-07 0.03636)
(-3.33406e-09 -3.5467e-07 0.033251)
(3.42156e-09 -3.54676e-07 0.033251)
(-9.28157e-09 -7.35183e-08 0.0216489)
(9.33927e-09 -7.35319e-08 0.0216489)
(-1.66021e-08 1.31553e-07 0.0216487)
(1.68234e-08 1.31575e-07 0.0216487)
(-5.96977e-09 6.34292e-07 0.0332506)
(6.18888e-09 6.34212e-07 0.0332506)
(-3.13339e-09 1.14629e-06 0.0363597)
(3.33285e-09 1.14627e-06 0.0363597)
(-1.04383e-09 1.56825e-06 0.0371933)
(1.24161e-09 1.56824e-06 0.0371933)
(-2.78765e-10 1.82004e-06 0.0374174)
(4.77032e-10 1.82004e-06 0.0374174)
(3.27126e-10 1.87101e-06 0.0374781)
(-1.26932e-10 1.87101e-06 0.0374781)
(8.95594e-10 1.71727e-06 0.037495)
(-6.93179e-10 1.71727e-06 0.037495)
(1.36199e-09 1.37753e-06 0.0375001)
(-1.15782e-09 1.37753e-06 0.0375001)
(1.68907e-09 8.89986e-07 0.0375018)
(-1.48376e-09 8.89987e-07 0.0375018)
(1.8574e-09 3.07616e-07 0.0375024)
(-1.6515e-09 3.07616e-07 0.0375024)
(1.85773e-09 -3.07401e-07 0.0375024)
(-1.65175e-09 -3.07401e-07 0.0375024)
(1.69004e-09 -8.89769e-07 0.0375018)
(-1.48452e-09 -8.8977e-07 0.0375018)
(1.36359e-09 -1.37731e-06 0.0375001)
(-1.15917e-09 -1.37731e-06 0.0375001)
(8.97792e-10 -1.71703e-06 0.037495)
(-6.95392e-10 -1.71704e-06 0.037495)
(3.29771e-10 -1.87076e-06 0.0374781)
(-1.30876e-10 -1.87076e-06 0.0374781)
(-2.75515e-10 -1.81976e-06 0.0374174)
(4.70296e-10 -1.81977e-06 0.0374174)
(-1.04018e-09 -1.56793e-06 0.0371933)
(1.22946e-09 -1.56794e-06 0.0371933)
(-3.13555e-09 -1.14593e-06 0.0363597)
(3.3039e-09 -1.14596e-06 0.0363597)
(-6.00486e-09 -6.33881e-07 0.0332506)
(6.12748e-09 -6.33916e-07 0.0332506)
(-1.66322e-08 -1.31434e-07 0.0216487)
(1.6695e-08 -1.31463e-07 0.0216487)
(-2.57932e-08 2.03801e-07 0.0216482)
(2.59837e-08 2.03862e-07 0.0216482)
(-9.31308e-09 9.82602e-07 0.0332499)
(9.58711e-09 9.82621e-07 0.0332499)
(-4.86618e-09 1.77516e-06 0.0363591)
(5.19005e-09 1.7752e-06 0.0363591)
(-1.5992e-09 2.42689e-06 0.0371929)
(1.95467e-09 2.42691e-06 0.0371929)
(-3.9824e-10 2.81402e-06 0.0374172)
(7.71683e-10 2.81404e-06 0.0374172)
(5.41062e-10 2.89006e-06 0.0374782)
(-1.56395e-10 2.89008e-06 0.0374782)
(1.40954e-09 2.6502e-06 0.0374953)
(-1.01765e-09 2.6502e-06 0.0374953)
(2.11347e-09 2.12427e-06 0.0375006)
(-1.71702e-09 2.12428e-06 0.0375006)
(2.60252e-09 1.37166e-06 0.0375025)
(-2.20332e-09 1.37166e-06 0.0375025)
(2.85276e-09 4.73902e-07 0.0375032)
(-2.45209e-09 4.73903e-07 0.0375032)
(2.85333e-09 -4.73769e-07 0.0375032)
(-2.45224e-09 -4.73769e-07 0.0375032)
(2.60422e-09 -1.37152e-06 0.0375025)
(-2.20378e-09 -1.37152e-06 0.0375025)
(2.11626e-09 -2.12413e-06 0.0375006)
(-1.71785e-09 -2.12414e-06 0.0375006)
(1.41336e-09 -2.65005e-06 0.0374953)
(-1.01895e-09 -2.65006e-06 0.0374953)
(5.45899e-10 -2.88991e-06 0.0374782)
(-1.58318e-10 -2.88992e-06 0.0374782)
(-3.92392e-10 -2.81386e-06 0.0374172)
(7.68142e-10 -2.81388e-06 0.0374172)
(-1.59079e-09 -2.42673e-06 0.0371929)
(1.94756e-09 -2.42675e-06 0.0371929)
(-4.84671e-09 -1.77501e-06 0.0363591)
(5.18344e-09 -1.77504e-06 0.0363591)
(-9.27913e-09 -9.82444e-07 0.0332499)
(9.59019e-09 -9.82474e-07 0.0332499)
(-2.5753e-08 -2.03766e-07 0.0216482)
(2.59692e-08 -2.03817e-07 0.0216482)
(-3.77049e-08 2.98665e-07 0.0216475)
(3.82245e-08 2.98794e-07 0.0216475)
(-1.35135e-08 1.43932e-06 0.033249)
(1.42529e-08 1.4394e-06 0.033249)
(-6.96121e-09 2.59814e-06 0.0363582)
(7.79596e-09 2.59822e-06 0.0363582)
(-2.12704e-09 3.54799e-06 0.0371923)
(3.02815e-09 3.54805e-06 0.0371923)
(-3.39767e-10 4.10848e-06 0.0374169)
(1.28448e-09 4.10852e-06 0.0374169)
(1.03465e-09 4.21365e-06 0.0374783)
(-6.23387e-11 4.21368e-06 0.0374783)
(2.28045e-09 3.85892e-06 0.0374958)
(-1.29124e-09 3.85893e-06 0.0374958)
(3.27284e-09 3.08977e-06 0.0375014)
(-2.27366e-09 3.08977e-06 0.0375014)
(3.95281e-09 1.99351e-06 0.0375035)
(-2.94811e-09 1.99352e-06 0.0375035)
(4.2976e-09 6.88428e-07 0.0375043)
(-3.2903e-09 6.8843e-07 0.0375043)
(4.29821e-09 -6.88374e-07 0.0375043)
(-3.29053e-09 -6.88375e-07 0.0375043)
(3.95466e-09 -1.99346e-06 0.0375035)
(-2.94883e-09 -1.99346e-06 0.0375035)
(3.27599e-09 -3.08971e-06 0.0375014)
(-2.27493e-09 -3.08972e-06 0.0375014)
(2.285e-09 -3.85886e-06 0.0374958)
(-1.2932e-09 -3.85888e-06 0.0374958)
(1.04086e-09 -4.21359e-06 0.0374783)
(-6.56489e-11 -4.21362e-06 0.0374783)
(-3.30719e-10 -4.10841e-06 0.0374169)
(1.27944e-09 -4.10845e-06 0.0374169)
(-2.11431e-09 -3.54791e-06 0.0371923)
(3.02207e-09 -3.54798e-06 0.0371923)
(-6.95178e-09 -2.59805e-06 0.0363582)
(7.78324e-09 -2.59815e-06 0.0363582)
(-1.35225e-08 -1.43925e-06 0.033249)
(1.42214e-08 -1.43936e-06 0.033249)
(-3.77237e-08 -2.98653e-07 0.0216475)
(3.81805e-08 -2.98793e-07 0.0216475)
(-5.37579e-08 4.26952e-07 0.0216465)
(5.49652e-08 4.27295e-07 0.0216465)
(-1.9011e-08 2.05639e-06 0.0332476)
(2.08026e-08 2.05663e-06 0.0332476)
(-9.50635e-09 3.70755e-06 0.0363569)
(1.15827e-08 3.70778e-06 0.0363569)
(-2.47394e-09 5.05492e-06 0.0371914)
(4.73069e-09 5.05509e-06 0.0371914)
(1.41282e-10 5.8426e-06 0.0374165)
(2.22501e-09 5.8427e-06 0.0374165)
(2.1025e-09 5.98069e-06 0.0374784)
(3.30018e-10 5.98076e-06 0.0374784)
(3.8315e-09 5.46747e-06 0.0374965)
(-1.35989e-09 5.46751e-06 0.0374965)
(5.17581e-09 4.37124e-06 0.0375025)
(-2.68204e-09 4.37126e-06 0.0375025)
(6.07914e-09 2.81734e-06 0.0375049)
(-3.57355e-09 2.81735e-06 0.0375049)
(6.53146e-09 9.72359e-07 0.0375059)
(-4.02055e-09 9.72362e-07 0.0375059)
(6.5322e-09 -9.72382e-07 0.0375059)
(-4.02073e-09 -9.72385e-07 0.0375059)
(6.0814e-09 -2.81736e-06 0.0375049)
(-3.57411e-09 -2.81737e-06 0.0375049)
(5.17972e-09 -4.37126e-06 0.0375025)
(-2.68308e-09 -4.37128e-06 0.0375025)
(3.83726e-09 -5.4675e-06 0.0374965)
(-1.36152e-09 -5.46753e-06 0.0374965)
(2.11053e-09 -5.98072e-06 0.0374784)
(3.27672e-10 -5.98078e-06 0.0374784)
(1.52245e-10 -5.84263e-06 0.0374165)
(2.2213e-09 -5.84273e-06 0.0374165)
(-2.45839e-09 -5.05496e-06 0.0371914)
(4.72543e-09 -5.05511e-06 0.0371914)
(-9.48035e-09 -3.70758e-06 0.0363569)
(1.15821e-08 -3.7078e-06 0.0363569)
(-1.8972e-08 -2.05641e-06 0.0332476)
(2.08135e-08 -2.05665e-06 0.0332476)
(-5.37252e-08 -4.26969e-07 0.0216465)
(5.4977e-08 -4.27309e-07 0.0216465)
(-7.54589e-08 6.0386e-07 0.0216451)
(7.86766e-08 6.04732e-07 0.0216451)
(-2.58942e-08 2.90611e-06 0.0332456)
(3.06233e-08 2.90671e-06 0.0332456)
(-1.21802e-08 5.2306e-06 0.0363551)
(1.75961e-08 5.23115e-06 0.0363551)
(-1.99288e-09 7.11575e-06 0.0371901)
(7.84043e-09 7.11615e-06 0.0371901)
(1.82373e-09 8.20376e-06 0.037416)
(4.2853e-09 8.20401e-06 0.037416)
(4.59023e-09 8.37602e-06 0.0374786)
(1.67423e-09 8.37617e-06 0.0374787)
(6.93864e-09 7.63908e-06 0.0374974)
(-5.84744e-10 7.63916e-06 0.0374974)
(8.70434e-09 6.09547e-06 0.0375041)
(-2.30134e-09 6.09552e-06 0.0375041)
(9.85857e-09 3.92316e-06 0.0375069)
(-3.43039e-09 3.92318e-06 0.0375069)
(1.04261e-08 1.35302e-06 0.0375081)
(-3.98723e-09 1.35303e-06 0.0375081)
(1.04269e-08 -1.35312e-06 0.0375081)
(-3.98748e-09 -1.35312e-06 0.0375081)
(9.86089e-09 -3.92326e-06 0.0375069)
(-3.43121e-09 -3.92328e-06 0.0375069)
(8.70852e-09 -6.09557e-06 0.0375041)
(-2.30284e-09 -6.09562e-06 0.0375041)
(6.94514e-09 -7.63918e-06 0.0374974)
(-5.87198e-10 -7.63927e-06 0.0374974)
(4.5999e-09 -8.37612e-06 0.0374786)
(1.67006e-09 -8.37627e-06 0.0374786)
(1.83841e-09 -8.20386e-06 0.037416)
(4.27899e-09 -8.20411e-06 0.037416)
(-1.97209e-09 -7.11584e-06 0.0371901)
(7.83358e-09 -7.11623e-06 0.0371901)
(-1.21612e-08 -5.23065e-06 0.0363551)
(1.75849e-08 -5.23123e-06 0.0363551)
(-2.58925e-08 -2.90615e-06 0.0332456)
(3.0594e-08 -2.90678e-06 0.0332456)
(-7.54736e-08 -6.03888e-07 0.0216451)
(7.86415e-08 -6.04772e-07 0.0216451)
(-1.04888e-07 8.51018e-07 0.0216431)
(1.13095e-07 8.53263e-07 0.0216431)
(-3.39596e-08 4.09136e-06 0.0332427)
(4.60666e-08 4.09291e-06 0.0332428)
(-1.39727e-08 7.34643e-06 0.0363526)
(2.785e-08 7.34784e-06 0.0363526)
(9.04016e-10 9.96413e-06 0.0371883)
(1.40523e-08 9.9651e-06 0.0371884)
(6.51811e-09 1.14486e-05 0.0374152)
(9.06978e-09 1.14492e-05 0.0374152)
(1.04033e-08 1.16489e-05 0.037479)
(5.54867e-09 1.16493e-05 0.037479)
(1.35363e-08 1.05908e-05 0.0374988)
(2.61917e-09 1.0591e-05 0.0374988)
(1.57845e-08 8.42913e-06 0.0375063)
(4.79418e-10 8.42923e-06 0.0375063)
(1.7197e-08 5.41532e-06 0.0375097)
(-8.79146e-10 5.41537e-06 0.0375097)
(1.78731e-08 1.86588e-06 0.0375112)
(-1.53307e-09 1.8659e-06 0.0375112)
(1.7874e-08 -1.86604e-06 0.0375112)
(-1.53329e-09 -1.86606e-06 0.0375112)
(1.71997e-08 -5.41549e-06 0.0375097)
(-8.79874e-10 -5.41554e-06 0.0375097)
(1.57895e-08 -8.4293e-06 0.0375063)
(4.77994e-10 -8.4294e-06 0.0375063)
(1.35442e-08 -1.0591e-05 0.0374988)
(2.6168e-09 -1.05912e-05 0.0374988)
(1.04153e-08 -1.16491e-05 0.037479)
(5.545e-09 -1.16494e-05 0.037479)
(6.5356e-09 -1.14488e-05 0.0374152)
(9.06404e-09 -1.14494e-05 0.0374152)
(9.29042e-10 -9.9643e-06 0.0371883)
(1.40451e-08 -9.96526e-06 0.0371884)
(-1.39367e-08 -7.34657e-06 0.0363526)
(2.78472e-08 -7.34797e-06 0.0363526)
(-3.39143e-08 -4.09146e-06 0.0332427)
(4.60706e-08 -4.09301e-06 0.0332428)
(-1.04857e-07 -8.51066e-07 0.0216431)
(1.13101e-07 -8.53312e-07 0.0216431)
(-1.4388e-07 1.20015e-06 0.0216403)
(1.65116e-07 1.2059e-06 0.0216403)
(-4.1136e-08 5.76224e-06 0.0332388)
(7.23958e-08 5.76613e-06 0.0332388)
(-1.14682e-08 1.03124e-05 0.036349)
(4.71659e-08 1.03159e-05 0.0363491)
(1.05921e-08 1.39297e-05 0.0371859)
(2.77491e-08 1.3932e-05 0.037186)
(1.89709e-08 1.59322e-05 0.0374142)
(2.0877e-08 1.59335e-05 0.0374143)
(2.4424e-08 1.61376e-05 0.0374795)
(1.62673e-08 1.61384e-05 0.0374796)
(2.85254e-08 1.4612e-05 0.0375007)
(1.26229e-08 1.46124e-05 0.0375007)
(3.12792e-08 1.15909e-05 0.0375093)
(1.0105e-08 1.15911e-05 0.0375094)
(3.29085e-08 7.42927e-06 0.0375136)
(8.58927e-09 7.42937e-06 0.0375136)
(3.36557e-08 2.55673e-06 0.0375155)
(7.88742e-09 2.55675e-06 0.0375155)
(3.36566e-08 -2.55695e-06 0.0375155)
(7.8871e-09 -2.55698e-06 0.0375155)
(3.29113e-08 -7.4295e-06 0.0375136)
(8.58822e-09 -7.4296e-06 0.0375136)
(3.12846e-08 -1.15912e-05 0.0375093)
(1.0103e-08 -1.15914e-05 0.0375094)
(2.85343e-08 -1.46122e-05 0.0375007)
(1.26196e-08 -1.46126e-05 0.0375007)
(2.44379e-08 -1.61378e-05 0.0374795)
(1.62616e-08 -1.61386e-05 0.0374796)
(1.89926e-08 -1.59324e-05 0.0374142)
(2.08682e-08 -1.59338e-05 0.0374143)
(1.06231e-08 -1.39299e-05 0.0371859)
(2.77395e-08 -1.39322e-05 0.037186)
(-1.14359e-08 -1.03126e-05 0.036349)
(4.71529e-08 -1.0316e-05 0.0363491)
(-4.11201e-08 -5.76235e-06 0.0332388)
(7.23646e-08 -5.76627e-06 0.0332388)
(-1.43887e-07 -1.2002e-06 0.0216403)
(1.65081e-07 -1.20597e-06 0.0216403)
(-1.93077e-07 1.69862e-06 0.0216363)
(2.47666e-07 1.71338e-06 0.0216364)
(-4.07968e-08 8.14244e-06 0.0332332)
(1.21103e-07 8.15221e-06 0.0332333)
(4.6621e-09 1.45045e-05 0.0363441)
(8.68395e-08 1.45131e-05 0.0363442)
(3.81911e-08 1.94832e-05 0.0371826)
(5.97988e-08 1.94888e-05 0.0371827)
(5.09646e-08 2.21487e-05 0.0374129)
(5.06017e-08 2.21519e-05 0.0374131)
(5.86345e-08 2.23011e-05 0.0374803)
(4.48657e-08 2.23029e-05 0.0374804)
(6.388e-08 2.00859e-05 0.0375033)
(4.06326e-08 2.00868e-05 0.0375035)
(6.70701e-08 1.58652e-05 0.0375135)
(3.79467e-08 1.58656e-05 0.0375136)
(6.87783e-08 1.01386e-05 0.0375188)
(3.64732e-08 1.01388e-05 0.0375189)
(6.95019e-08 3.48379e-06 0.0375213)
(3.58406e-08 3.48384e-06 0.0375214)
(6.9503e-08 -3.48406e-06 0.0375213)
(3.58403e-08 -3.48412e-06 0.0375214)
(6.87816e-08 -1.01389e-05 0.0375188)
(3.64722e-08 -1.01391e-05 0.0375189)
(6.70765e-08 -1.58655e-05 0.0375135)
(3.79447e-08 -1.58659e-05 0.0375136)
(6.38906e-08 -2.00862e-05 0.0375033)
(4.06292e-08 -2.00871e-05 0.0375035)
(5.86512e-08 -2.23014e-05 0.0374803)
(4.48603e-08 -2.23032e-05 0.0374804)
(5.09897e-08 -2.2149e-05 0.0374129)
(5.05933e-08 -2.21522e-05 0.0374131)
(3.8227e-08 -1.94835e-05 0.0371826)
(5.97886e-08 -1.9489e-05 0.0371827)
(4.71007e-09 -1.45047e-05 0.0363441)
(8.68328e-08 -1.45133e-05 0.0363442)
(-4.07437e-08 -8.14259e-06 0.0332332)
(1.21098e-07 -8.15237e-06 0.0332333)
(-1.93046e-07 -1.69869e-06 0.0216363)
(2.47664e-07 -1.71345e-06 0.0216364)
(-2.47337e-07 2.41908e-06 0.0216306)
(3.88006e-07 2.45691e-06 0.0216308)
(-1.31572e-08 1.15743e-05 0.0332253)
(2.19882e-07 1.15987e-05 0.0332256)
(5.96223e-08 2.04826e-05 0.0363372)
(1.75237e-07 2.05035e-05 0.0363375)
(1.12274e-07 2.73042e-05 0.0371781)
(1.3841e-07 2.73175e-05 0.0371784)
(1.32263e-07 3.07889e-05 0.0374113)
(1.26831e-07 3.07964e-05 0.0374116)
(1.43092e-07 3.07599e-05 0.0374815)
(1.20377e-07 3.07639e-05 0.0374818)
(1.49587e-07 2.75154e-05 0.0375071)
(1.16083e-07 2.75174e-05 0.0375074)
(1.52956e-07 2.1615e-05 0.0375192)
(1.13767e-07 2.1616e-05 0.0375196)
(1.54431e-07 1.37608e-05 0.0375259)
(1.12762e-07 1.37612e-05 0.0375263)
(1.54939e-07 4.71931e-06 0.0375291)
(1.12431e-07 4.71942e-06 0.0375294)
(1.5494e-07 -4.71963e-06 0.0375291)
(1.1243e-07 -4.71974e-06 0.0375294)
(1.54435e-07 -1.37611e-05 0.0375259)
(1.12761e-07 -1.37615e-05 0.0375263)
(1.52963e-07 -2.16154e-05 0.0375192)
(1.13765e-07 -2.16163e-05 0.0375196)
(1.49599e-07 -2.75157e-05 0.0375071)
(1.16079e-07 -2.75177e-05 0.0375074)
(1.43111e-07 -3.07602e-05 0.0374815)
(1.20369e-07 -3.07642e-05 0.0374818)
(1.32292e-07 -3.07892e-05 0.0374113)
(1.2682e-07 -3.07967e-05 0.0374116)
(1.12315e-07 -2.73045e-05 0.0371781)
(1.38397e-07 -2.73178e-05 0.0371784)
(5.96688e-08 -2.04828e-05 0.0363372)
(1.75222e-07 -2.05038e-05 0.0363375)
(-1.31254e-08 -1.15744e-05 0.0332253)
(2.19851e-07 -1.15989e-05 0.0332256)
(-2.47335e-07 -2.41915e-06 0.0216306)
(3.87972e-07 -2.457e-06 0.0216308)
(-2.83762e-07 3.476e-06 0.0216224)
(6.46884e-07 3.57303e-06 0.0216229)
(9.67599e-08 1.65973e-05 0.0332141)
(4.36865e-07 1.66585e-05 0.0332148)
(2.20198e-07 2.90976e-05 0.0363275)
(3.84479e-07 2.91486e-05 0.0363283)
(3.06324e-07 3.83856e-05 0.0371719)
(3.36935e-07 3.8417e-05 0.0371727)
(3.38556e-07 4.28195e-05 0.0374092)
(3.24342e-07 4.28366e-05 0.03741)
(3.5392e-07 4.23464e-05 0.0374833)
(3.18734e-07 4.23551e-05 0.0374842)
(3.61576e-07 3.75479e-05 0.0375123)
(3.15765e-07 3.75521e-05 0.0375132)
(3.64519e-07 2.92921e-05 0.0375271)
(3.14956e-07 2.9294e-05 0.037528)
(3.65162e-07 1.85593e-05 0.0375355)
(3.15219e-07 1.85601e-05 0.0375364)
(3.6511e-07 6.34956e-06 0.0375396)
(3.15597e-07 6.34976e-06 0.0375405)
(3.65111e-07 -6.3499e-06 0.0375396)
(3.15596e-07 -6.35011e-06 0.0375405)
(3.65167e-07 -1.85597e-05 0.0375355)
(3.15217e-07 -1.85605e-05 0.0375364)
(3.64527e-07 -2.92925e-05 0.0375271)
(3.14953e-07 -2.92943e-05 0.037528)
(3.61589e-07 -3.75483e-05 0.0375123)
(3.1576e-07 -3.75524e-05 0.0375132)
(3.53942e-07 -4.23468e-05 0.0374833)
(3.18727e-07 -4.23554e-05 0.0374842)
(3.38588e-07 -4.28199e-05 0.0374092)
(3.24331e-07 -4.2837e-05 0.03741)
(3.0637e-07 -3.8386e-05 0.0371719)
(3.36923e-07 -3.84173e-05 0.0371727)
(2.20257e-07 -2.90979e-05 0.0363275)
(3.8447e-07 -2.91488e-05 0.0363283)
(9.68189e-08 -1.65975e-05 0.0332141)
(4.36854e-07 -1.66587e-05 0.0332148)
(-2.83733e-07 -3.47608e-06 0.0216224)
(6.46875e-07 -3.57312e-06 0.0216229)
(-2.26084e-07 5.05725e-06 0.0216104)
(1.16609e-06 5.30685e-06 0.0216116)
(4.40907e-07 2.40927e-05 0.0331978)
(9.41706e-07 2.42452e-05 0.0331997)
(6.65815e-07 4.16734e-05 0.0363138)
(8.9743e-07 4.17967e-05 0.0363159)
(8.13942e-07 5.41953e-05 0.0371634)
(8.43598e-07 5.42684e-05 0.0371656)
(8.67753e-07 5.95943e-05 0.0374065)
(8.3541e-07 5.96324e-05 0.0374087)
(8.89702e-07 5.81622e-05 0.037486)
(8.349e-07 5.81808e-05 0.0374882)
(8.98014e-07 5.09949e-05 0.0375194)
(8.36312e-07 5.10034e-05 0.0375217)
(8.99334e-07 3.9435e-05 0.0375375)
(8.39155e-07 3.94387e-05 0.0375398)
(8.981e-07 2.48367e-05 0.0375482)
(8.42042e-07 2.48382e-05 0.0375504)
(8.96919e-07 8.47147e-06 0.0375533)
(8.4378e-07 8.47185e-06 0.0375555)
(8.9692e-07 -8.47184e-06 0.0375533)
(8.4378e-07 -8.47221e-06 0.0375555)
(8.98104e-07 -2.48371e-05 0.0375482)
(8.4204e-07 -2.48385e-05 0.0375504)
(8.99342e-07 -3.94354e-05 0.0375375)
(8.39151e-07 -3.94391e-05 0.0375398)
(8.98028e-07 -5.09953e-05 0.0375194)
(8.36307e-07 -5.10038e-05 0.0375217)
(8.89725e-07 -5.81626e-05 0.037486)
(8.34891e-07 -5.81812e-05 0.0374882)
(8.67787e-07 -5.95947e-05 0.0374065)
(8.35397e-07 -5.96328e-05 0.0374087)
(8.13991e-07 -5.41956e-05 0.0371634)
(8.43585e-07 -5.42687e-05 0.0371656)
(6.65872e-07 -4.16737e-05 0.0363138)
(8.97416e-07 -4.1797e-05 0.0363159)
(4.40951e-07 -2.40929e-05 0.0331978)
(9.41679e-07 -2.42454e-05 0.0331997)
(-2.26075e-07 -5.05734e-06 0.0216104)
(1.16606e-06 -5.30694e-06 0.0216116)
(1.40999e-07 7.47881e-06 0.0215922)
(2.29303e-06 8.12696e-06 0.0215953)
(1.41351e-06 3.55556e-05 0.0331739)
(2.17828e-06 3.59322e-05 0.0331786)
(1.85412e-06 6.03222e-05 0.0362942)
(2.19915e-06 6.06167e-05 0.0362996)
(2.1232e-06 7.69293e-05 0.0371517)
(2.16082e-06 7.70972e-05 0.0371572)
(2.21635e-06 8.30025e-05 0.037403)
(2.17323e-06 8.30863e-05 0.0374087)
(2.24788e-06 7.96364e-05 0.0374898)
(2.18813e-06 7.96754e-05 0.0374955)
(2.25546e-06 6.88323e-05 0.0375289)
(2.20015e-06 6.88496e-05 0.0375346)
(2.25298e-06 5.26465e-05 0.0375511)
(2.21036e-06 5.26537e-05 0.0375568)
(2.24817e-06 3.29114e-05 0.0375644)
(2.21795e-06 3.29142e-05 0.0375701)
(2.245e-06 1.11836e-05 0.0375707)
(2.22197e-06 1.11843e-05 0.0375765)
(2.245e-06 -1.1184e-05 0.0375707)
(2.22197e-06 -1.11847e-05 0.0375765)
(2.24818e-06 -3.29118e-05 0.0375644)
(2.21795e-06 -3.29146e-05 0.0375701)
(2.25299e-06 -5.26469e-05 0.0375511)
(2.21036e-06 -5.26541e-05 0.0375568)
(2.25548e-06 -6.88328e-05 0.0375289)
(2.20014e-06 -6.885e-05 0.0375346)
(2.2479e-06 -7.96368e-05 0.0374898)
(2.18813e-06 -7.96759e-05 0.0374955)
(2.21639e-06 -8.3003e-05 0.037403)
(2.17322e-06 -8.30867e-05 0.0374087)
(2.12325e-06 -7.69297e-05 0.0371517)
(2.16081e-06 -7.70976e-05 0.0371572)
(1.85418e-06 -6.03225e-05 0.0362942)
(2.19914e-06 -6.0617e-05 0.0362996)
(1.41356e-06 -3.55558e-05 0.0331739)
(2.17826e-06 -3.59324e-05 0.0331786)
(1.41021e-07 -7.4789e-06 0.0215922)
(2.29301e-06 -8.12706e-06 0.0215953)
(1.37622e-06 1.12652e-05 0.021564)
(5.02343e-06 1.29474e-05 0.0215721)
(4.00359e-06 5.36661e-05 0.0331378)
(5.56838e-06 5.45858e-05 0.0331502)
(4.90566e-06 8.85311e-05 0.0362657)
(5.89204e-06 8.92194e-05 0.0362796)
(5.41135e-06 0.000109925 0.0371352)
(5.96425e-06 0.000110304 0.0371497)
(5.57493e-06 0.000115672 0.0373984)
(6.04859e-06 0.000115854 0.0374131)
(5.6193e-06 0.000108571 0.0374947)
(6.10496e-06 0.000108654 0.0375096)
(5.62276e-06 9.21651e-05 0.0375409)
(6.14014e-06 9.22015e-05 0.0375558)
(5.61269e-06 6.95334e-05 0.0375679)
(6.16369e-06 6.95491e-05 0.0375828)
(5.60175e-06 4.30702e-05 0.0375841)
(6.17867e-06 4.30767e-05 0.0375989)
(5.59538e-06 1.45684e-05 0.0375918)
(6.18599e-06 1.45702e-05 0.0376066)
(5.59538e-06 -1.45687e-05 0.0375918)
(6.18599e-06 -1.45705e-05 0.0376066)
(5.60175e-06 -4.30706e-05 0.0375841)
(6.17867e-06 -4.3077e-05 0.0375989)
(5.6127e-06 -6.95338e-05 0.0375679)
(6.16368e-06 -6.95495e-05 0.0375828)
(5.62278e-06 -9.21656e-05 0.0375409)
(6.14013e-06 -9.2202e-05 0.0375558)
(5.61933e-06 -0.000108572 0.0374947)
(6.10495e-06 -0.000108655 0.0375096)
(5.57497e-06 -0.000115673 0.0373984)
(6.04857e-06 -0.000115855 0.0374131)
(5.4114e-06 -0.000109925 0.0371352)
(5.96423e-06 -0.000110304 0.0371497)
(4.90572e-06 -8.85314e-05 0.0362657)
(5.89202e-06 -8.92197e-05 0.0362796)
(4.00364e-06 -5.36663e-05 0.0331378)
(5.56836e-06 -5.45861e-05 0.0331502)
(1.37624e-06 -1.12653e-05 0.021564)
(5.0234e-06 -1.29475e-05 0.0215721)
(5.26472e-06 1.74699e-05 0.0215168)
(1.25454e-05 2.17739e-05 0.0215382)
(1.13697e-05 8.35532e-05 0.0330796)
(1.61257e-05 8.58999e-05 0.0331126)
(1.33653e-05 0.00013232 0.0362208)
(1.78276e-05 0.000133967 0.0362578)
(1.43604e-05 0.000158369 0.0371091)
(1.84396e-05 0.000159243 0.0371475)
(1.4657e-05 0.000161253 0.0373889)
(1.87757e-05 0.000161668 0.0374278)
(1.47202e-05 0.000147168 0.0374977)
(1.89443e-05 0.000147362 0.0375367)
(1.47138e-05 0.000122141 0.0375521)
(1.90282e-05 0.000122235 0.0375912)
(1.46902e-05 9.06035e-05 0.0375842)
(1.9073e-05 9.06502e-05 0.0376233)
(1.46695e-05 5.54942e-05 0.0376032)
(1.90971e-05 5.55168e-05 0.0376423)
(1.46584e-05 1.86659e-05 0.0376122)
(1.91077e-05 1.86728e-05 0.0376512)
(1.46584e-05 -1.86662e-05 0.0376122)
(1.91077e-05 -1.86731e-05 0.0376512)
(1.46695e-05 -5.54946e-05 0.0376032)
(1.90971e-05 -5.55171e-05 0.0376423)
(1.46902e-05 -9.06039e-05 0.0375842)
(1.9073e-05 -9.06505e-05 0.0376233)
(1.47138e-05 -0.000122142 0.0375521)
(1.90282e-05 -0.000122235 0.0375912)
(1.47203e-05 -0.000147169 0.0374977)
(1.89443e-05 -0.000147363 0.0375367)
(1.4657e-05 -0.000161254 0.0373889)
(1.87756e-05 -0.000161668 0.0374278)
(1.43604e-05 -0.000158369 0.0371091)
(1.84396e-05 -0.000159243 0.0371475)
(1.33654e-05 -0.000132321 0.0362208)
(1.78275e-05 -0.000133967 0.0362578)
(1.13697e-05 -8.35535e-05 0.0330796)
(1.61256e-05 -8.59002e-05 0.0331126)
(5.26473e-06 -1.747e-05 0.0215168)
(1.25454e-05 -2.17741e-05 0.0215382)
(1.79157e-05 2.9087e-05 0.0214304)
(3.39022e-05 4.09514e-05 0.0214834)
(3.42351e-05 0.000134989 0.0329769)
(4.90376e-05 0.000141315 0.0330579)
(3.95455e-05 0.00020211 0.0361409)
(5.59802e-05 0.000206301 0.0362313)
(4.18469e-05 0.000230351 0.037058)
(5.86693e-05 0.000232551 0.0371515)
(4.24878e-05 0.000224804 0.0373604)
(5.98262e-05 0.000225899 0.037455)
(4.26063e-05 0.000198058 0.0374841)
(6.02955e-05 0.000198642 0.0375788)
(4.25867e-05 0.000159863 0.0375472)
(6.04803e-05 0.000160203 0.037642)
(4.25411e-05 0.000116171 0.037584)
(6.05541e-05 0.000116377 0.0376787)
(4.25047e-05 7.01984e-05 0.0376052)
(6.05834e-05 7.03119e-05 0.0376999)
(4.24861e-05 2.34541e-05 0.037615)
(6.05935e-05 2.34907e-05 0.0377097)
(4.24861e-05 -2.34543e-05 0.037615)
(6.05935e-05 -2.34909e-05 0.0377097)
(4.25047e-05 -7.01986e-05 0.0376052)
(6.05834e-05 -7.03121e-05 0.0376999)
(4.25411e-05 -0.000116172 0.037584)
(6.05541e-05 -0.000116377 0.0376787)
(4.25867e-05 -0.000159863 0.0375472)
(6.04803e-05 -0.000160204 0.037642)
(4.26063e-05 -0.000198058 0.0374841)
(6.02955e-05 -0.000198642 0.0375788)
(4.24878e-05 -0.000224804 0.0373604)
(5.98262e-05 -0.000225899 0.037455)
(4.1847e-05 -0.000230352 0.037058)
(5.86693e-05 -0.000232552 0.0371515)
(3.95456e-05 -0.00020211 0.0361409)
(5.59802e-05 -0.000206301 0.0362313)
(3.42352e-05 -0.000134989 0.0329769)
(4.90376e-05 -0.000141315 0.0330579)
(1.79157e-05 -2.90872e-05 0.0214304)
(3.39022e-05 -4.09516e-05 0.0214834)
(4.93988e-05 5.00475e-05 0.0212799)
(0.000100727 9.00306e-05 0.0214066)
(9.06774e-05 0.000225897 0.0328108)
(0.000163073 0.000240104 0.0330056)
(0.000104295 0.000315252 0.0360177)
(0.000188861 0.00032493 0.0362307)
(0.00010976 0.000338384 0.036979)
(0.00019889 0.000344262 0.0371978)
(0.000111155 0.000313533 0.0373113)
(0.000202826 0.000317134 0.0375317)
(0.000111364 0.000264665 0.0374512)
(0.000204228 0.000267078 0.0376718)
(0.000111308 0.000206628 0.0375217)
(0.00020468 0.000208315 0.0377424)
(0.000111218 0.000146556 0.0375611)
(0.000204804 0.000147694 0.0377816)
(0.000111153 8.71706e-05 0.0375828)
(0.000204824 8.78333e-05 0.0378033)
(0.000111121 2.88991e-05 0.0375926)
(0.000204821 2.9117e-05 0.0378131)
(0.000111121 -2.88991e-05 0.0375926)
(0.000204821 -2.91171e-05 0.0378131)
(0.000111153 -8.71707e-05 0.0375828)
(0.000204824 -8.78334e-05 0.0378033)
(0.000111218 -0.000146556 0.0375611)
(0.000204804 -0.000147694 0.0377816)
(0.000111308 -0.000206628 0.0375217)
(0.00020468 -0.000208315 0.0377424)
(0.000111364 -0.000264666 0.0374512)
(0.000204228 -0.000267078 0.0376718)
(0.000111155 -0.000313534 0.0373113)
(0.000202826 -0.000317135 0.0375317)
(0.00010976 -0.000338385 0.036979)
(0.00019889 -0.000344263 0.0371978)
(0.000104295 -0.000315252 0.0360177)
(0.000188861 -0.000324931 0.0362307)
(9.06775e-05 -0.000225897 0.0328108)
(0.000163073 -0.000240105 0.0330056)
(4.93988e-05 -5.00477e-05 0.0212799)
(0.000100727 -9.00308e-05 0.0214066)
(0.000104931 6.43769e-05 0.0210035)
(0.000478364 0.000171792 0.0215157)
(0.000193712 0.000402309 0.0325342)
(0.000856988 0.000421167 0.0333735)
(0.000215317 0.00050907 0.0358382)
(0.000997637 0.000528035 0.036772)
(0.000223707 0.000505942 0.0368727)
(0.0010491 0.000524985 0.0378382)
(0.000225401 0.000440306 0.0372426)
(0.00106781 0.000456265 0.0382181)
(0.000225376 0.000353564 0.0373967)
(0.00107387 0.000366234 0.0383746)
(0.000225142 0.000265762 0.0374697)
(0.00107547 0.000275347 0.0384478)
(0.000224962 0.000183475 0.037507)
(0.00107566 0.000190154 0.0384849)
(0.000224856 0.000107259 0.037526)
(0.0010755 0.000111193 0.0385036)
(0.00022481 3.52609e-05 0.0375341)
(0.00107537 3.65589e-05 0.0385115)
(0.00022481 -3.52607e-05 0.0375341)
(0.00107537 -3.65587e-05 0.0385115)
(0.000224856 -0.000107259 0.037526)
(0.0010755 -0.000111193 0.0385036)
(0.000224962 -0.000183475 0.037507)
(0.00107566 -0.000190154 0.0384849)
(0.000225142 -0.000265762 0.0374697)
(0.00107547 -0.000275347 0.0384478)
(0.000225376 -0.000353565 0.0373967)
(0.00107387 -0.000366234 0.0383746)
(0.000225401 -0.000440307 0.0372426)
(0.00106781 -0.000456266 0.0382181)
(0.000223707 -0.000505944 0.0368727)
(0.0010491 -0.000524986 0.0378382)
(0.000215318 -0.000509072 0.0358382)
(0.000997638 -0.000528037 0.036772)
(0.000193713 -0.000402311 0.0325342)
(0.000856988 -0.000421169 0.0333735)
(0.000104931 -6.43773e-05 0.0210035)
(0.000478364 -0.000171792 0.0215157)
(0.000543219 0.000148191 0.0196286)
(0.0028583 0.000451073 0.02131)
(0.000975645 0.0008145 0.0306944)
(0.00509348 0.000969348 0.0335156)
(0.00108379 0.000882321 0.0340083)
(0.00587252 0.00101274 0.0371956)
(0.00112261 0.000782953 0.0350793)
(0.00613597 0.000900775 0.0383847)
(0.00113476 0.000631132 0.0354592)
(0.00622313 0.000728 0.0388002)
(0.00113777 0.0004803 0.0356068)
(0.00624859 0.000556059 0.0389563)
(0.00113813 0.000347688 0.0356681)
(0.00625352 0.000404155 0.0390181)
(0.00113784 0.000234031 0.0356945)
(0.00625249 0.00027297 0.0390429)
(0.00113752 0.000134706 0.0357057)
(0.00625053 0.000157494 0.0390527)
(0.00113734 4.39589e-05 0.0357098)
(0.0062493 5.1458e-05 0.039056)
(0.00113734 -4.39582e-05 0.0357098)
(0.0062493 -5.14572e-05 0.039056)
(0.00113752 -0.000134705 0.0357057)
(0.00625053 -0.000157494 0.0390527)
(0.00113784 -0.00023403 0.0356945)
(0.00625249 -0.000272969 0.0390429)
(0.00113813 -0.000347688 0.0356681)
(0.00625352 -0.000404155 0.0390181)
(0.00113777 -0.000480301 0.0356068)
(0.00624859 -0.00055606 0.0389563)
(0.00113476 -0.000631134 0.0354592)
(0.00622313 -0.000728002 0.0388002)
(0.00112261 -0.000782956 0.0350793)
(0.00613597 -0.000900779 0.0383847)
(0.00108379 -0.000882326 0.0340083)
(0.00587252 -0.00101275 0.0371956)
(0.000975645 -0.000814503 0.0306944)
(0.00509348 -0.000969352 0.0335156)
(0.000543218 -0.000148192 0.0196286)
(0.0028583 -0.000451074 0.02131)
(0.0021286 0.00038155 0.0153825)
(0.0101407 0.000480581 0.0205304)
(0.00356295 0.00131761 0.024701)
(0.0168871 0.0018928 0.034359)
(0.00395409 0.0013379 0.0276195)
(0.0191546 0.00201684 0.0388886)
(0.00407936 0.00112333 0.0285654)