/*--------------------------------*- C++ -*----------------------------------*\
  =========                 |
  \\      /  F ield         | OpenFOAM: The Open Source CFD Toolbox
   \\    /   O peration     | Website:  https://openfoam.org
    \\  /    A nd           | Version:  6
     \\/     M anipulation  |
\*---------------------------------------------------------------------------*/
FoamFile
{
    version     2.0;
    format      ascii;
    class       volScalarField;
    location    "1500";
    object      p;
}
// * * * * * * * * * * * * * * * * * * * * * * * * * * * * * * * * * * * * * //

dimensions      [0 2 -2 0 0 0 0];

internalField   nonuniform List<scalar> 
7000
(
0.0419419
0.0397377
0.0392451
0.0390561
0.038995
0.0390675
0.0392667
0.0395726
0.0401574
0.0424876
0.039687
0.0374816
0.0369906
0.0368024
0.0367422
0.036816
0.0370169
0.0373244
0.0379097
0.0402442
0.0391537
0.0369497
0.0364589
0.0362712
0.0362118
0.0362867
0.0364887
0.0367975
0.0373843
0.0397198
0.0389096
0.036706
0.0362156
0.0360285
0.0359699
0.0360457
0.0362488
0.0365589
0.0371472
0.039485
0.0387806
0.036577
0.0360868
0.0359002
0.0358422
0.0359188
0.036123
0.0364342
0.0370239
0.0393641
0.0387784
0.0365747
0.0360846
0.0358981
0.0358404
0.0359175
0.0361224
0.0364344
0.0370252
0.0393671
0.0389032
0.0366994
0.0362091
0.0360225
0.0359648
0.036042
0.0362471
0.0365597
0.0371511
0.039494
0.039144
0.0369397
0.0364492
0.0362623
0.0362043
0.0362813
0.0364863
0.036799
0.0373907
0.0397342
0.039676
0.0374701
0.0369796
0.0367923
0.0367339
0.0368105
0.0370152
0.0373278
0.0379194
0.0402636
0.0419336
0.0397288
0.0392366
0.0390486
0.0389896
0.0390653
0.0392692
0.0395814
0.0401734
0.0425145
0.0389962
0.0376243
0.0376735
0.0374915
0.0374329
0.0375109
0.0377195
0.0380302
0.038068
0.0395885
0.0375686
0.0361961
0.0362489
0.0360669
0.036009
0.0360882
0.0362985
0.0366117
0.0366481
0.0381719
0.0375799
0.0362108
0.036263
0.0360817
0.0360247
0.0361052
0.036317
0.0366319
0.036671
0.0381938
0.0373386
0.0359691
0.0360218
0.0358413
0.0357851
0.0358667
0.03608
0.0363964
0.0364375
0.0379632
0.0372071
0.0358374
0.0358903
0.0357103
0.0356547
0.0357372
0.0359516
0.0362695
0.0363124
0.0378401
0.0372048
0.0358347
0.0358878
0.0357078
0.0356525
0.0357354
0.0359505
0.0362693
0.0363136
0.037842
0.0373319
0.0359615
0.0360145
0.0358343
0.0357788
0.0358616
0.0360766
0.0363958
0.0364407
0.0379688
0.0375697
0.0361993
0.036252
0.0360712
0.0360153
0.0360976
0.0363123
0.0366315
0.0366769
0.0382033
0.037557
0.0361829
0.0362365
0.0360553
0.035999
0.0360809
0.0362952
0.0366144
0.036659
0.0381874
0.0389877
0.0376134
0.0376632
0.0374816
0.037424
0.0375042
0.0377166
0.0380336
0.0380798
0.0396037
0.0365374
0.0357687
0.0361426
0.0359833
0.0359893
0.0360784
0.0362443
0.0365542
0.0362684
0.0372256
0.0357027
0.0349371
0.0353168
0.0351566
0.0351641
0.0352549
0.035423
0.0357375
0.0354495
0.0364074
0.0360392
0.0352791
0.0356575
0.0354985
0.0355071
0.0355997
0.0357701
0.0360869
0.0358038
0.0367595
0.0358127
0.0350511
0.0354304
0.0352723
0.035282
0.0353762
0.0355487
0.0358678
0.0355875
0.0365484
0.0357365
0.0349749
0.0353544
0.0351968
0.0352072
0.0353024
0.0354765
0.0357977
0.0355201
0.0364832
0.0357338
0.0349717
0.0353513
0.0351937
0.0352042
0.0352997
0.0354744
0.0357966
0.0355208
0.0364844
0.0358049
0.0350418
0.0354214
0.0352633
0.0352733
0.0353683
0.0355426
0.0358647
0.0355894
0.0365517
0.036027
0.0352646
0.0356434
0.0354843
0.0354934
0.0355874
0.0357605
0.0360821
0.035807
0.0367647
0.0356877
0.0349193
0.0352998
0.0351399
0.0351484
0.0352416
0.0354139
0.0357351
0.0354582
0.0364191
0.0365234
0.0357503
0.0361245
0.0359643
0.0359703
0.0360605
0.0362296
0.0365457
0.036272
0.0372276
0.0352554
0.0347252
0.0351244
0.0349621
0.0350512
0.0351585
0.0352763
0.0356238
0.0353271
0.036102
0.0346464
0.0341223
0.0345283
0.0343645
0.0344565
0.0345668
0.034688
0.0350439
0.0347465
0.0355247
0.0350048
0.0344872
0.0348911
0.0347293
0.034823
0.034936
0.0350612
0.035421
0.0351319
0.0359108
0.0347628
0.0342427
0.0346481
0.0344875
0.0345828
0.0346983
0.0348269
0.0351913
0.0349068
0.0356954
0.0347547
0.0342352
0.0346408
0.0344808
0.034577
0.034694
0.0348252
0.0351929
0.0349131
0.0357049
0.0347513
0.034231
0.0346367
0.0344764
0.0345726
0.0346898
0.0348216
0.0351908
0.0349136
0.0357057
0.034753
0.0342304
0.0346359
0.0344748
0.03457
0.034686
0.0348167
0.0351851
0.0349082
0.0356978
0.0349888
0.0344673
0.0348714
0.0347086
0.0348021
0.0349161
0.0350443
0.0354108
0.035134
0.0359143
0.0346259
0.0340972
0.0345037
0.0343392
0.0344317
0.0345442
0.0346705
0.0350363
0.0347558
0.0355367
0.0352325
0.0346957
0.0350946
0.0349297
0.0350171
0.0351244
0.0352457
0.0356022
0.0353224
0.0360948
0.0343453
0.0339344
0.0342843
0.03412
0.0342737
0.0344063
0.0345081
0.0349071
0.0346823
0.0354209
0.0338416
0.0334394
0.0337962
0.0336304
0.0337892
0.0339271
0.0340351
0.0344488
0.0342305
0.0349788
0.0341447
0.0337488
0.0341031
0.0339403
0.0341018
0.0342442
0.0343591
0.0347802
0.0345767
0.0353328
0.0338841
0.033485
0.0338415
0.0336802
0.0338442
0.0339907
0.0341117
0.0345412
0.0343468
0.0351207
0.0339203
0.0335226
0.0338792
0.0337186
0.033884
0.0340329
0.0341579
0.0345932
0.0344074
0.0351877
0.0339157
0.0335169
0.0338735
0.0337124
0.0338775
0.0340264
0.0341521
0.0345891
0.0344074
0.0351881
0.033871
0.0334685
0.0338248
0.0336622
0.0338253
0.0339718
0.034095
0.0345298
0.0343478
0.0351225
0.0341233
0.0337219
0.0340758
0.0339107
0.0340707
0.0342132
0.0343317
0.0347618
0.0345782
0.0353358
0.0338133
0.0334047
0.0337616
0.0335936
0.0337517
0.0338914
0.0340061
0.0344336
0.0342441
0.0349968
0.0343116
0.0338909
0.0342393
0.0340699
0.0342196
0.0343505
0.0344564
0.0348681
0.0346756
0.0354062
0.033316
0.0330256
0.0333561
0.0332155
0.0334193
0.0335838
0.0336975
0.0341359
0.0339677
0.0346955
0.0329181
0.0326393
0.032977
0.0328356
0.0330474
0.0332212
0.0333471
0.033811
0.0336613
0.0344234
0.0331941
0.0329215
0.0332566
0.0331195
0.0333353
0.0335165
0.0336544
0.0341331
0.0340085
0.0347969
0.0329377
0.0326617
0.0329997
0.0328646
0.0330844
0.0332722
0.0334205
0.0339149
0.0338086
0.0346316
0.032999
0.0327249
0.0330631
0.032929
0.0331507
0.0333422
0.033497
0.0340014
0.03391
0.0347481
0.032993
0.0327173
0.0330552
0.0329202
0.0331411
0.0333321
0.0334872
0.0339939
0.0339087
0.0347477
0.0329204
0.0326397
0.0329771
0.0328393
0.0330568
0.0332433
0.0333931
0.0338948
0.0338071
0.0346328
0.0331655
0.0328855
0.0332193
0.0330779
0.0332899
0.0334692
0.0336102
0.0341015
0.034009
0.034802
0.0328806
0.0325926
0.0329294
0.0327836
0.0329925
0.0331667
0.0333005
0.0337863
0.0336834
0.0344559
0.0332688
0.0329652
0.0332927
0.0331435
0.0333394
0.0334992
0.0336175
0.0340774
0.0339592
0.0346888
0.0321801
0.0320022
0.0323272
0.0322263
0.0324729
0.0326742
0.0328182
0.0332984
0.0331744
0.0339482
0.0318803
0.0317175
0.03205
0.0319501
0.0322086
0.0324254
0.0325919
0.033116
0.0330407
0.0338969
0.0321422
0.0319856
0.0323158
0.0322218
0.0324863
0.032715
0.0329017
0.0334532
0.0334248
0.0343477
0.0319044
0.0317446
0.0320786
0.0319873
0.0322581
0.0324973
0.0327014
0.0332809
0.0332895
0.0342833
0.0319809
0.0318235
0.0321576
0.0320677
0.0323413
0.032586
0.0328003
0.033396
0.033431
0.034459
0.0319729
0.0318134
0.032147
0.0320556
0.0323275
0.0325708
0.0327845
0.0333815
0.0334253
0.0344554
0.0318818
0.031716
0.0320485
0.0319527
0.0322188
0.0324539
0.0326571
0.0332422
0.0332787
0.0342793
0.0321056
0.0319391
0.0322667
0.0321652
0.0324223
0.032645
0.0328317
0.0333955
0.0334168
0.0343545
0.0318315
0.0316572
0.0319874
0.0318796
0.0321313
0.0323451
0.0325191
0.033069
0.0330716
0.0339625
0.0321187
0.0319231
0.0322425
0.0321276
0.0323601
0.0325513
0.0326982
0.0332055
0.03318
0.0339785
0.0310328
0.0309394
0.0312489
0.0311875
0.0314688
0.0317088
0.0318965
0.0324287
0.0323786
0.0332378
0.030805
0.0307299
0.0310471
0.0309892
0.0312873
0.0315517
0.0317783
0.0323873
0.0324371
0.0335048
0.0310433
0.0309741
0.0312895
0.0312394
0.0315464
0.0318287
0.0320879
0.0327476
0.0328879
0.0341281
0.0308245
0.0307527
0.0310729
0.0310266
0.0313427
0.0316411
0.0319284
0.0326378
0.0328518
0.0342551
0.030908
0.030839
0.0311592
0.0311147
0.0314347
0.031741
0.0320435
0.032779
0.0330372
0.0345173
0.0308977
0.0308262
0.0311454
0.0310983
0.0314152
0.0317181
0.0320176
0.0327521
0.0330184
0.034504
0.0307957
0.0307165
0.0310338
0.0309799
0.0312873
0.0315762
0.0318563
0.0325655
0.0328136
0.0342513
0.0309966
0.0309151
0.0312257
0.0311633
0.0314564
0.0317247
0.0319752
0.0326424
0.0328553
0.03417
0.0307435
0.0306532
0.0309654
0.0308943
0.0311789
0.0314328
0.0316611
0.032301
0.0324762
0.0336686
0.0309541
0.0308387
0.0311388
0.0310557
0.0313134
0.031533
0.0317178
0.0322917
0.0324045
0.0334234
0.0298742
0.029839
0.0301234
0.0300954
0.0303988
0.0306707
0.0309018
0.0315019
0.0315151
0.0324595
0.0296958
0.0296821
0.0299745
0.0299533
0.0302792
0.0305865
0.0308792
0.0316036
0.0318149
0.0331954
0.0299032
0.029895
0.0301865
0.030175
0.0305136
0.0308472
0.0311901
0.0320023
0.0323931
0.0341985
0.0297009
0.0296914
0.0299885
0.0299823
0.0303337
0.0306912
0.0310783
0.031973
0.0325085
0.0346905
0.0297843
0.029778
0.0300751
0.0300713
0.0304278
0.0307964
0.031206
0.0321386
0.032741
0.035079
0.0297715
0.0297621
0.0300576
0.0300499
0.0304014
0.0307639
0.0311668
0.0320894
0.0326892
0.0350323
0.0296652
0.0296467
0.0299392
0.0299216
0.0302588
0.0305993
0.0309687
0.0318399
0.0323973
0.0346606
0.0298462
0.0298232
0.0301069
0.0300768
0.0303928
0.0307006
0.0310195
0.0318101
0.032281
0.0342988
0.0296199
0.0295887
0.0298729
0.0298314
0.0301344
0.0304199
0.0307023
0.031439
0.0318316
0.0335777
0.029779
0.0297169
0.0299869
0.0299271
0.0301935
0.0304296
0.0306462
0.0312841
0.0315955
0.0330571
0.0286658
0.0286714
0.028928
0.0289257
0.0292349
0.0295235
0.0297778
0.0304148
0.0305529
0.03124
0.0285254
0.0285553
0.0288201
0.028828
0.029165
0.0295001
0.0298412
0.0306587
0.031136
0.0326779
0.0287033
0.0287383
0.0290032
0.0290226
0.0293762
0.0297466
0.0301596
0.0311187
0.0319345
0.0345734
0.0285178
0.0285531
0.0288244
0.0288509
0.0292217
0.0296248
0.0301025
0.03119
0.0322767
0.0358228
0.0285968
0.0286357
0.028907
0.0289366
0.0293138
0.0297311
0.0302388
0.0313808
0.0325578
0.0364077
0.0285813
0.0286168
0.0288858
0.0289099
0.0292795
0.0296864
0.0301813
0.0313005
0.0324375
0.0362468
0.0284746
0.0285002
0.0287646
0.0287753
0.0291244
0.0294982
0.0299406
0.030972
0.0320104
0.0358637
0.0286342
0.028653
0.0289063
0.0288998
0.0292184
0.0295431
0.0299043
0.0307918
0.0316395
0.0350456
0.0284341
0.0284437
0.0286957
0.0286745
0.028975
0.0292671
0.0295709
0.0303647
0.0310632
0.0337333
0.0285509
0.0285266
0.0287628
0.0287166
0.0289705
0.0291973
0.0294127
0.0300885
0.0306977
0.0328698
0.0273848
0.0274167
0.0276441
0.0276567
0.0279495
0.028221
0.0284412
0.0289664
0.0290342
0.0295687
0.0272752
0.0273345
0.0275701
0.0275957
0.0279197
0.0282443
0.0285647
0.0292993
0.029747
0.0315711
0.0274271
0.0274915
0.027728
0.0277669
0.028111
0.0284793
0.0288948
0.029829
0.030784
0.0347797
0.0272592
0.0273257
0.0275695
0.0276175
0.0279835
0.0283939
0.028898
0.0300183
0.0313412
0.0368957
0.0273313
0.0274022
0.0276461
0.0276982
0.0280722
0.0285
0.029044
0.0302418
0.0316396
0.0374796
0.0273128
0.0273805
0.0276213
0.0276666
0.0280307
0.0284436
0.0289691
0.0301363
0.0314265
0.0369986
0.0272078
0.027265
0.0274997
0.027528
0.0278653
0.0282336
0.0286881
0.02973
0.0308052
0.0362422
0.0273464
0.0273944
0.0276156
0.0276214
0.0279182
0.0282185
0.0285534
0.0293688
0.0300602
0.0342373
0.0271673
0.027207
0.0274254
0.0274137
0.0276867
0.0279434
0.0281947
0.0288599
0.0293466
0.0322621
0.0272526
0.0272537
0.0274541
0.0274105
0.0276276
0.0278055
0.027953
0.0285015
0.0291091
0.0319513
0.0260353
0.0260809
0.0262762
0.0262906
0.026543
0.0267592
0.0269011
0.0272291
0.026914
0.0287464
0.0259514
0.0260269
0.0262296
0.0262582
0.0265401
0.0268019
0.0270168
0.0274838
0.0272526
0.0297264
0.02608
0.0261603
0.0263646
0.0264073
0.0267107
0.0270163
0.0273192
0.0279552
0.0279443
0.0315815
0.025929
0.0260139
0.0262263
0.0262803
0.0266095
0.0269614
0.0273538
0.028173
0.0282914
0.0323898
0.025993
0.0260836
0.0262965
0.0263561
0.0266958
0.0270673
0.0274999
0.0284116
0.0285371
0.0323752
0.0259715
0.0260598
0.0262691
0.0263215
0.0266504
0.0270033
0.0274086
0.0282991
0.0283216
0.031699
0.0258695
0.0259475
0.0261495
0.0261821
0.026479
0.0267755
0.027085
0.0278038
0.0274096
0.0295137
0.0259863
0.0260534
0.0262397
0.0262448
0.0264907
0.0266982
0.0268415
0.0272055
0.0261744
0.0255602
0.0258261
0.0258842
0.0260655
0.0260501
0.0262664
0.0264199
0.0264581
0.0266041
0.025484
0.0241542
0.0258823
0.0259004
0.0260627
0.0260101
0.0261645
0.0262356
0.0261854
0.0262892
0.0258479
0.0269433
0.0246208
0.0246694
0.0248317
0.0248394
0.0250403
0.02518
0.0252133
0.025387
0.0242828
0.0245952
0.0245567
0.0246376
0.0248059
0.0248269
0.0250503
0.0252164
0.0252669
0.0254628
0.0242579
0.0251534
0.0246628
0.0247485
0.0249185
0.0249532
0.0251966
0.0253986
0.0255007
0.0257763
0.0245471
0.0254052
0.024527
0.02462
0.0247986
0.0248464
0.0251183
0.0253667
0.0255372
0.0259586
0.0247195
0.0250329
0.0245817
0.0246821
0.0248617
0.0249174
0.0252041
0.0254779
0.0256885
0.0262474
0.0252028
0.0254212
0.0245569
0.0246565
0.0248324
0.0248815
0.0251588
0.0254157
0.0255975
0.0261719
0.0252423
0.0251519
0.0244583
0.0245488
0.0247163
0.0247441
0.0249858
0.0251778
0.0252453
0.0256187
0.0244156
0.0231029
0.0245563
0.0246344
0.0247843
0.0247804
0.0249615
0.0250446
0.024908
0.0248151
0.022916
0.018721
0.0244122
0.0244829
0.0246264
0.0245999
0.0247461
0.0247641
0.0245078
0.0240972
0.0218798
0.0168305
0.0244489
0.0244773
0.0246008
0.0245337
0.0246155
0.0245528
0.0242391
0.023825
0.0222524
0.0203798
0.0231529
0.0231999
0.023333
0.0233347
0.0234933
0.0235766
0.0235225
0.0236879
0.0223742
0.0213803
0.0231043
0.0231853
0.0233224
0.0233359
0.0235089
0.0236039
0.0235312
0.0236571
0.0222432
0.0220947
0.0231892
0.0232746
0.0234134
0.0234401
0.0236318
0.0237611
0.023722
0.0238728
0.0224492
0.0216952
0.0230667
0.0231625
0.0233102
0.0233528
0.0235779
0.0237637
0.0237931
0.0240956
0.0228104
0.0211477
0.0231114
0.0232169
0.0233668
0.0234212
0.0236705
0.0239049
0.024009
0.0245477
0.0238691
0.0228161
0.0230833
0.0231902
0.0233368
0.0233874
0.0236338
0.0238668
0.0239666
0.0245735
0.0243187
0.02343
0.0229885
0.0230882
0.023226
0.0232559
0.0234675
0.0236359
0.0236247
0.0240236
0.0236192
0.0218779
0.0230677
0.0231548
0.0232735
0.023269
0.0234137
0.0234555
0.0232233
0.0230858
0.0219031
0.0176661
0.0229384
0.0230177
0.0231275
0.0230977
0.0232
0.0231552
0.0227652
0.0221624
0.0201417
0.0143881
0.0229556
0.0229937
0.0230832
0.0230097
0.0230436
0.0229064
0.0224421
0.0217721
0.0199476
0.0168144
0.0216327
0.0216782
0.0217919
0.0218021
0.0219541
0.0220635
0.0220564
0.0224486
0.0216962
0.0207969
0.0215944
0.0216753
0.0217906
0.0218111
0.0219716
0.0220865
0.0220613
0.0223912
0.0215497
0.0213717
0.0216586
0.0217431
0.0218592
0.0218923
0.0220709
0.0222234
0.0222395
0.0225652
0.0218087
0.0209768
0.021547
0.0216444
0.0217693
0.021821
0.0220383
0.0222662
0.0223776
0.0228879
0.022625
0.0217418
0.0215807
0.02169
0.0218178
0.021886
0.022139
0.022449
0.0226949
0.0235482
0.0243859
0.0255232
0.0215484
0.0216613
0.0217861
0.0218541
0.0221118
0.0224405
0.0227198
0.0236835
0.0252538
0.0275099
0.0214569
0.0215647
0.0216799
0.0217285
0.0219534
0.0222164
0.0223895
0.0231046
0.0244033
0.0258423
0.0215203
0.0216155
0.0217102
0.0217222
0.0218758
0.0219945
0.0219241
0.022055
0.0222414
0.0210079
0.0214032
0.0214923
0.021576
0.0215596
0.0216622
0.021666
0.0213764
0.0208887
0.0196845
0.0156249
0.0214084
0.0214562
0.0215191
0.0214556
0.0214839
0.0213728
0.0209594
0.0203279
0.0187696
0.0157148
0.0200733
0.0201213
0.0202265
0.0202629
0.0204443
0.0206494
0.0208073
0.0215239
0.0214752
0.0208732
0.0200414
0.0201246
0.0202277
0.0202725
0.0204564
0.0206592
0.0208006
0.0214227
0.021179
0.0207863
0.0200855
0.0201705
0.0202724
0.0203272
0.0205251
0.0207617
0.0209487
0.0215104
0.0212561
0.0200921
0.0199825
0.0200818
0.0201907
0.0202648
0.0205019
0.0208258
0.0211426
0.0218861
0.0222918
0.0224421
0.0200044
0.0201166
0.0202279
0.020322
0.0206023
0.0210378
0.021561
0.0227386
0.0247512
0.0296108
0.0199673
0.0200847
0.0201922
0.0202887
0.0205801
0.0210532
0.0216646
0.0230233
0.0263378
0.0348367
0.0198785
0.0199927
0.0200896
0.0201675
0.0204288
0.0208351
0.0213343
0.0224198
0.0252918
0.0325816
0.0199264
0.0200286
0.020104
0.0201443
0.0203333
0.020583
0.0208085
0.0212832
0.0225083
0.0253686
0.0198202
0.0199162
0.0199781
0.019987
0.0201183
0.020232
0.0201892
0.0199673
0.0194697
0.0174837
0.0198118
0.0198688
0.0199097
0.0198689
0.0199207
0.019902
0.0196853
0.0192757
0.0179851
0.0148535
0.0184732
0.0185243
0.0186245
0.0186928
0.0189143
0.0192263
0.0195659
0.0205716
0.0211441
0.0199166
0.0184424
0.0185268
0.0186191
0.0186899
0.018902
0.0191904
0.0194953
0.0203456
0.0204975
0.0190551
0.0184665
0.0185491
0.0186356
0.0187092
0.0189222
0.0192195
0.0195451
0.0202435
0.0201574
0.0181935
0.0183692
0.018465
0.0185537
0.0186415
0.0188815
0.0192499
0.0197003
0.0205117
0.0207808
0.0213416
0.0183782
0.0184854
0.0185731
0.0186794
0.0189597
0.0194453
0.0201515
0.02142
0.0233879
0.031588
0.0183353
0.0184474
0.0185286
0.0186373
0.0189306
0.0194665
0.0203183
0.021834
0.0255562
0.0402336
0.0182484
0.0183583
0.0184269
0.0185174
0.0187838
0.0192556
0.0199868
0.0212036
0.0244804
0.0374032
0.0182841
0.0183826
0.0184298
0.0184837
0.0186826
0.0190023
0.0194447
0.020085
0.0215297
0.0280594
0.0181883
0.0182824
0.0183159
0.0183397
0.0184834
0.0186743
0.0188542
0.0188886
0.0189009
0.0188462
0.0181722
0.0182293
0.0182435
0.0182198
0.0182891
0.0183549
0.0183497
0.0182564
0.0176086
0.0148103
0.0168457
0.0168956
0.0169849
0.0170746
0.0173218
0.017714
0.018214
0.0194964
0.021187
0.0208006
0.0168118
0.0168905
0.016964
0.0170456
0.0172661
0.0176014
0.018031
0.0191228
0.0201449
0.0192289
0.0168169
0.0168881
0.0169491
0.0170215
0.0172205
0.0175208
0.0179102
0.0187823
0.0192722
0.0178862
0.0167231
0.0168032
0.016858
0.0169317
0.0171285
0.0174399
0.017866
0.0186927
0.0186778
0.0192777
0.0167183
0.0168054
0.0168521
0.0169344
0.0171508
0.0175384
0.0181766
0.0193072
0.0201263
0.0291217
0.0166696
0.0167587
0.0167937
0.0168735
0.0170957
0.0175246
0.0183236
0.0196019
0.0218715
0.0383548
0.0165845
0.0166713
0.0166914
0.0167525
0.0169497
0.0173251
0.0180121
0.0188922
0.0206533
0.0348381
0.0166096
0.0166862
0.0166869
0.0167165
0.0168588
0.0171191
0.0175741
0.0180188
0.0186168
0.0267264
0.0165247
0.0165982
0.0165878
0.016596
0.0167007
0.0168822
0.0171914
0.0173752
0.0179424
0.0208643
0.0165009
0.0165413
0.0165167
0.0164879
0.0165407
0.0166497
0.0168558
0.0171418
0.018054
0.0188205
0.015192
0.0152286
0.0152921
0.0153741
0.0156045
0.0160074
0.0166103
0.0179837
0.0211564
0.0287915
0.0151514
0.0152105
0.0152499
0.0153122
0.0154988
0.0158159
0.016308
0.0175662
0.0200567
0.0266748
0.0151398
0.0151846
0.0152048
0.0152448
0.0153866
0.0156255
0.0160087
0.0170526
0.0188684
0.0238042
0.0150484
0.0150951
0.0150985
0.0151204
0.0152183
0.0153791
0.0156263
0.0164165
0.0166199
0.0202927
0.0150305
0.0150766
0.0150614
0.0150732
0.0151515
0.015299
0.0155846
0.0163315
0.0155828
0.0244552
0.0149766
0.0150196
0.0149857
0.014984
0.0150479
0.0151954
0.0155777
0.0161612
0.0156715
0.0303616
0.0148943
0.0149332
0.014882
0.0148604
0.0148969
0.0149982
0.0153025
0.0153109
0.0139589
0.0263043
0.0149131
0.014943
0.0148762
0.0148332
0.0148349
0.0148787
0.0151053
0.0149034
0.0133678
0.0227319
0.0148413
0.0148712
0.0147994
0.014752
0.0147503
0.014801
0.0151148
0.015158
0.0155532
0.0253689
0.0148151
0.014817
0.01474
0.0146771
0.0146669
0.0147494
0.015162
0.0157246
0.0181934
0.0298699
0.0135342
0.0135423
0.0135617
0.0135978
0.0137507
0.0140397
0.0146258
0.016013
0.0180941
0.0345877
0.0134861
0.01351
0.0134998
0.0135089
0.0136124
0.0138211
0.0143007
0.0157965
0.0180622
0.035547
0.013462
0.0134655
0.0134329
0.0134117
0.0134575
0.013574
0.0139075
0.0152234
0.0174085
0.0337201
0.0133741
0.0133713
0.0133118
0.0132525
0.0132109
0.0131625
0.0131393
0.013915
0.0137577
0.0238653
0.0133453
0.0133323
0.0132434
0.01315
0.0130382
0.0128627
0.0126035
0.0128364
0.00959462
0.0166124
0.0132886
0.0132656
0.0131507
0.0130288
0.0128701
0.0126254
0.0123413
0.0119866
0.00712268
0.0153454
0.0132108
0.0131807
0.013046
0.0129016
0.0127059
0.0123986
0.0121044
0.0111454
0.0052743
0.0138431
0.0132267
0.0131887
0.0130429
0.0128894
0.0126803
0.0123535
0.0121802
0.0113514
0.00579802
0.0155059
0.0131702
0.0131358
0.0129929
0.0128574
0.0126883
0.0124552
0.0126244
0.0125742
0.0102063
0.0262493
0.0131449
0.0130884
0.0129526
0.0128312
0.0127137
0.0126438
0.0131874
0.0140945
0.015111
0.0366846
0.0276912
0.0300361
0.0272499
0.0232875
0.0202911
0.0187108
0.0183382
0.0184644
0.0191479
0.0182914
0.029113
0.0299267
0.0264462
0.0221199
0.0185152
0.0166256
0.0164489
0.0171512
0.0186063
0.0187693
0.0328075
0.0324662
0.0291224
0.0250225
0.0206867
0.017846
0.0169031
0.0171443
0.0185821
0.0193971
0.0358273
0.0354847
0.0324825
0.0279668
0.0227962
0.019255
0.0179173
0.0178623
0.0190414
0.0198366
0.0369263
0.0367669
0.0332897
0.0277801
0.0222274
0.0187808
0.017821
0.0182515
0.0196623
0.0203164
0.03666
0.0372167
0.0325278
0.0258953
0.0206135
0.0180149
0.0178699
0.0189096
0.0204836
0.0206241
0.0362024
0.0372588
0.0315083
0.0243792
0.0198087
0.0182405
0.0188009
0.0200974
0.021546
0.0211453
0.033578
0.0357838
0.0306205
0.0240437
0.0204128
0.0195772
0.0203445
0.0215035
0.0228246
0.022685
0.0306865
0.0319625
0.0289764
0.0244424
0.0219851
0.0215708
0.0221756
0.0229039
0.0239139
0.0241117
0.0313473
0.0320721
0.0301048
0.026855
0.0247235
0.0239641
0.0238666
0.0238466
0.0242973
0.0236314
0.028793
0.0269445
0.0233197
0.0196445
0.0173132
0.0165921
0.0171006
0.0182669
0.0198
0.0215974
0.0283226
0.0257092
0.0219745
0.0177268
0.014708
0.0134269
0.0137566
0.0154087
0.0181865
0.0204058
0.0294701
0.0271944
0.0246018
0.020406
0.0164615
0.0143727
0.0141299
0.0152492
0.0175424
0.0195105
0.0312435
0.0300199
0.0278514
0.0230092
0.018173
0.0155725
0.0150986
0.0159022
0.0177778
0.0194392
0.0321979
0.0315596
0.0287506
0.0228858
0.0177645
0.0153219
0.0150214
0.016033
0.0181253
0.019717
0.0320478
0.0309773
0.0267226
0.0209554
0.0165746
0.0148002
0.0150214
0.0164331
0.0189178
0.0205821
0.0304962
0.0290044
0.0240948
0.0189659
0.0157015
0.0148007
0.0157309
0.0176854
0.0203402
0.0220005
0.0257806
0.0261602
0.0224033
0.0184873
0.0162445
0.0158113
0.0170005
0.0191814
0.0218893
0.023772
0.0222997
0.0228364
0.0206961
0.0180314
0.0166407
0.0168213
0.0183439
0.0205944
0.0233419
0.0254959
0.0261201
0.0252751
0.0231498
0.0208733
0.0200371
0.0205376
0.0217889
0.0229812
0.0244485
0.0260016
0.0255105
0.0226567
0.0197543
0.017513
0.0164468
0.0160883
0.0161976
0.0173573
0.0192482
0.0209711
0.0236628
0.0207989
0.0179126
0.0151824
0.0134358
0.0125856
0.012866
0.0144133
0.0172885
0.0190638
0.0225434
0.0212588
0.0194817
0.0161427
0.0134688
0.0123224
0.0124281
0.0137705
0.0162963
0.0178151
0.023687
0.023576
0.0218651
0.0172766
0.013617
0.0123526
0.0124872
0.0137115
0.0160565
0.0172438
0.0255613
0.0256619
0.0228644
0.0172587
0.0134508
0.0122802
0.0126793
0.0139696
0.0161526
0.01693
0.0255617
0.0244195
0.0211016
0.0164228
0.0131745
0.0123055
0.0130684
0.0144439
0.0166079
0.0174042
0.0231098
0.0214999
0.0184856
0.0152282
0.013279
0.013067
0.0139418
0.0153779
0.0177976
0.0189852
0.0187203
0.0184389
0.0163552
0.0149168
0.0142551
0.0141539
0.0147729
0.0164524
0.0192938
0.0209469
0.0148123
0.0158207
0.0149145
0.0142515
0.0139323
0.0140405
0.0150646
0.0172844
0.0206318
0.0227815
0.0196413
0.0192098
0.0177884
0.0166971
0.0163861
0.0168974
0.0183617
0.0203018
0.0225471
0.0241581
0.0221418
0.0211028
0.0194885
0.0188033
0.0188279
0.0175944
0.0159477
0.0157172
0.0169363
0.0175742
0.0200945
0.0183165
0.01654
0.0153408
0.0143174
0.0133714
0.0125613
0.0131263
0.015439
0.0162818
0.0190045
0.0182891
0.0163656
0.0136867
0.011809
0.0109436
0.0106555
0.011633
0.0141521
0.015222
0.0208377
0.020369
0.0176895
0.013196
0.0106253
0.0100579
0.0101847
0.0111652
0.013549
0.0143614
0.0232347
0.0226267
0.0184702
0.0133262
0.0105766
0.00998853
0.010597
0.0117903
0.0138161
0.0138912
0.0224657
0.02075
0.017277
0.0133429
0.0108891
0.0105765
0.0115874
0.0127128
0.0143346
0.0140561
0.0190492
0.0170765
0.0149095
0.0128786
0.0116434
0.0117468
0.0126013
0.0135524
0.0151557
0.0153261
0.0155275
0.0137293
0.0125876
0.0125398
0.0124769
0.0124454
0.0127922
0.0138885
0.0161599
0.0170102
0.0115189
0.0119362
0.0114721
0.0118562
0.0120994
0.0121223
0.0126001
0.0140984
0.0169684
0.0184505
0.0162133
0.0160101
0.0148569
0.0144448
0.0144798
0.0148218
0.0157287
0.01723
0.0192121
0.0200822
0.0216813
0.0214022
0.0203597
0.0201362
0.0196133
0.0173209
0.014769
0.0137692
0.0143948
0.0143593
0.0192088
0.0184892
0.01704
0.0163126
0.015032
0.0131382
0.0113649
0.0111089
0.0129788
0.0135167
0.0188636
0.0175885
0.0154377
0.012826
0.0110838
0.00980196
0.00898662
0.0094307
0.011674
0.0126163
0.0210462
0.0190948
0.0157904
0.011299
0.00907505
0.00853457
0.00876858
0.00946469
0.0114374
0.0119548
0.0239107
0.0215403
0.0163326
0.0112007
0.00874392
0.00851451
0.00943279
0.0104751
0.0121795
0.0119771
0.0234185
0.0198522
0.0153621
0.0113846
0.0092198
0.00919741
0.0102457
0.0113901
0.012827
0.0122923
0.0197422
0.016123
0.0132789
0.0113715
0.010161
0.0100114
0.0106882
0.0117738
0.0133353
0.0132021
0.0157554
0.0120227
0.0108819
0.011464
0.0111063
0.0104327
0.0105467
0.0115889
0.0137143
0.0142688
0.0120169
0.0108122
0.0101709
0.0112054
0.0117471
0.0113985
0.0112319
0.0120047
0.0142589
0.0153172
0.0153213
0.0147134
0.0136388
0.0137898
0.014251
0.0143584
0.0145212
0.015195
0.0166979
0.0172662
0.0219043
0.0213831
0.0204203
0.0194995
0.0177938
0.0152889
0.0128563
0.011687
0.0120434
0.0114439
0.0185687
0.0186169
0.0175871
0.0158915
0.0142948
0.0122374
0.0102193
0.0094895
0.0107248
0.0106114
0.017613
0.0170053
0.0155347
0.012862
0.0110751
0.00948682
0.00876391
0.0086308
0.0100409
0.0100854
0.0193339
0.0184153
0.015559
0.0111113
0.00881655
0.00808125
0.0087312
0.00913048
0.0103575
0.00999919
0.0238504
0.0216755
0.015851
0.0103234
0.00773991
0.00750764
0.00867624
0.00977469
0.011262
0.0105913
0.0261768
0.0209833
0.0148091
0.0102198
0.00774204
0.0074938
0.00855034
0.0101356
0.0118965
0.0112419
0.0232535
0.0175301
0.0126969
0.0100911
0.0082646
0.00760164
0.00851773
0.0101752
0.0122348
0.011946
0.0174437
0.0123969
0.0102676
0.0105899
0.00955918
0.00823588
0.00871569
0.0101058
0.0123529
0.01257
0.0133232
0.0109161
0.0100504
0.0117976
0.0126407
0.01154
0.0108268
0.0112192
0.0131258
0.0136007
0.0144781
0.0139999
0.0133276
0.0141484
0.015133
0.0148629
0.0142164
0.0142855
0.0155751
0.0158475
0.0196183
0.0199344
0.0197543
0.0179367
0.0162798
0.0139368
0.01188
0.010725
0.0104477
0.00897622
0.0161704
0.0174468
0.0180864
0.0160185
0.0145816
0.0124689
0.0105233
0.00933555
0.0093861
0.00786329
0.014855
0.0161914
0.0161445
0.0138955
0.0122377
0.0105575
0.00991626
0.00923437
0.00922173
0.0076771
0.0165622
0.0177337
0.0160397
0.0119408
0.00978475
0.00894758
0.00948916
0.00960013
0.00966732
0.0079604
0.0231363
0.0217752
0.0161768
0.0103606
0.00782349
0.00740331
0.00844497
0.00959268
0.0105798
0.00903839
0.0282277
0.0222576
0.0149647
0.00974856
0.00709555
0.0065466
0.00753017
0.00951834
0.0114657
0.0101967
0.0253211
0.0187827
0.0125563
0.00916718
0.00673924
0.00573066
0.00686877
0.00931351
0.0117919
0.01083
0.0181846
0.0128721
0.010112
0.00982426
0.0076214
0.00553815
0.00654472
0.00906317
0.0118533
0.0114382
0.0134941
0.0110594
0.0102156
0.0127199
0.0127298
0.00961935
0.00893618
0.0102988
0.0128569
0.0126644
0.0135298
0.0136916
0.0135484
0.0147308
0.0155491
0.0142876
0.0129336
0.0133007
0.0152177
0.0150946
0.017963
0.0189265
0.019929
0.0192567
0.0174901
0.0143644
0.0115709
0.0103021
0.0101217
0.00773281
0.0144047
0.0163037
0.018703
0.0182418
0.0163772
0.0131837
0.0105032
0.00872518
0.00850615
0.00610405
0.0121324
0.0149614
0.0170631
0.0163231
0.0144797
0.0120468
0.0103058
0.00870811
0.00837522
0.00593619
0.01323
0.0160317
0.0172018
0.0142103
0.0116994
0.0102765
0.00992309
0.00930267
0.00906571
0.00645613
0.0199788
0.0202207
0.0173077
0.0119905
0.00896545
0.00826381
0.00900348
0.0100497
0.0108344
0.00822118
0.0264829
0.0216769
0.0161275
0.010688
0.00783845
0.00733656
0.00833145
0.0104805
0.01263
0.0103783
0.0227191
0.0182676
0.0141762
0.0104842
0.00731887
0.0063616
0.00741732
0.0103503
0.0132697
0.0115237
0.0161793
0.0127609
0.0115618
0.011742
0.00799851
0.00489864
0.00595769
0.00962325
0.0134629
0.0126579
0.0132006
0.0117811
0.0112391
0.0147823
0.0134249
0.00752543
0.00678628
0.00988178
0.0142032
0.0140764
0.0160762
0.0152114
0.0149624
0.0161998
0.0164878
0.0130212
0.0105574
0.0122946
0.0160621
0.0159674
0.026494
0.0225341
0.023406
0.0248544
0.0223402
0.0169491
0.0101991
0.00587517
0.00860187
0.0161369
0.0232004
0.0196277
0.0218366
0.0237224
0.0209334
0.0145167
0.00709204
0.00228644
0.00592985
0.0140658
0.0172524
0.0167264
0.0209388
0.0226027
0.0196197
0.0137503
0.00673804
0.00155639
0.00577364
0.0149551
0.0138418
0.0173299
0.0219522
0.0208826
0.016485
0.0114336
0.00655413
0.00233326
0.00686174
0.0165727
0.017631
0.0209028
0.0221945
0.0180828
0.0123208
0.00880929
0.00657059
0.0049115
0.00922968
0.0186556
0.0229765
0.0221784
0.0214275
0.0163434
0.0107663
0.00819901
0.00713109
0.00723284
0.0115931
0.0189243
0.018538
0.0189369
0.0209318
0.0180032
0.0121283
0.00842908
0.00756031
0.00904983
0.0135612
0.0180596
0.0153925
0.0154043
0.0183432
0.0205532
0.0149428
0.00833909
0.00668228
0.00951675
0.0151608
0.0187622
0.0186061
0.0159263
0.0168996
0.0216265
0.0196769
0.0104556
0.00615599
0.00892073
0.0159266
0.0202645
0.0313543
0.0231375
0.020831
0.0224806
0.0224535
0.0156811
0.00900277
0.00977599
0.0169173
0.0246747
0.0532026
0.0338589
0.0285731
0.0293752
0.0287651
0.0257731
0.0159635
0.0056417
0.0286112
0.10118
0.0564745
0.0333422
0.0286019
0.0304654
0.0297254
0.0255275
0.014679
0.00497182
0.0301507
0.104586
0.0482252
0.0298046
0.0287413
0.0310129
0.0302039
0.0260125
0.0148729
0.00508466
0.0319855
0.107712
0.032414
0.0274944
0.0294124
0.0302955
0.0290995
0.0251342
0.0144585
0.0044941
0.0325166
0.111915
0.0251255
0.0276533
0.0290538
0.0285705
0.0269958
0.0234842
0.014235
0.004828
0.0322928
0.114323
0.0237564