/*--------------------------------*- C++ -*----------------------------------*\
  =========                 |
  \\      /  F ield         | OpenFOAM: The Open Source CFD Toolbox
   \\    /   O peration     | Website:  https://openfoam.org
    \\  /    A nd           | Version:  6
     \\/     M anipulation  |
\*---------------------------------------------------------------------------*/
FoamFile
{
    version     2.0;
    format      ascii;
    class       surfaceScalarField;
    location    "1500";
    object      phi;
}
// * * * * * * * * * * * * * * * * * * * * * * * * * * * * * * * * * * * * * //

dimensions      [0 3 -1 0 0 0 0];

internalField   nonuniform List<scalar> 
19500
(
1.53921e-07
1.57087e-07
9.96888e-05
1.55541e-08
1.57192e-07
9.99809e-05
8.98983e-09
1.57219e-07
9.98491e-05
2.93434e-09
1.57185e-07
9.98486e-05
-3.849e-09
1.57146e-07
9.98493e-05
-1.03171e-08
1.57082e-07
9.9849e-05
-1.5309e-08
1.56997e-07
9.98476e-05
-2.0122e-08
1.56923e-07
9.98475e-05
-1.62131e-07
1.56803e-07
9.99848e-05
1.56596e-07
9.9681e-05
1.54023e-07
1.7471e-08
9.99853e-05
1.5486e-08
1.74099e-08
0.000100278
8.97641e-09
1.73923e-08
0.000100146
2.90837e-09
1.73753e-08
0.000100146
-3.88839e-09
1.73514e-08
0.000100146
-1.03696e-08
1.73239e-08
0.000100146
-1.53718e-08
1.72976e-08
0.000100144
-2.00863e-08
1.7282e-08
0.000100144
-1.62363e-07
1.72733e-08
0.000100281
1.7328e-08
9.99765e-05
1.54059e-07
1.19063e-08
9.98513e-05
1.5467e-08
1.19123e-08
0.000100144
8.95007e-09
1.18973e-08
0.000100012
2.88047e-09
1.18787e-08
0.000100011
-3.92742e-09
1.18535e-08
0.000100012
-1.04132e-08
1.18223e-08
0.000100012
-1.54004e-08
1.17893e-08
0.00010001
-2.00874e-08
1.17671e-08
0.00010001
-1.62495e-07
1.17521e-08
0.000100148
1.17152e-08
9.98427e-05
1.5405e-07
6.57146e-09
9.9851e-05
1.54593e-08
6.58127e-09
0.000100144
8.93319e-09
6.58215e-09
0.000100012
2.85791e-09
6.57536e-09
0.000100011
-3.95675e-09
6.56195e-09
0.000100012
-1.04436e-08
6.54197e-09
0.000100011
-1.54208e-08
6.51896e-09
0.00010001
-2.00841e-08
6.50496e-09
0.00010001
-1.62584e-07
6.49328e-09
0.000100147
6.47409e-09
9.98423e-05
1.54062e-07
1.96373e-10
9.98521e-05
1.54576e-08
2.12513e-10
0.000100145
8.92661e-09
2.20727e-10
0.000100013
2.84644e-09
2.28285e-10
0.000100012
-3.97387e-09
2.32795e-10
0.000100013
-1.04613e-08
2.33322e-10
0.000100012
-1.54308e-08
2.31863e-10
0.000100011
-2.00711e-08
2.3825e-10
0.000100011
-1.62669e-07
2.5053e-10
0.000100148
2.63368e-10
9.98432e-05
1.54076e-07
-6.20437e-09
9.98521e-05
1.54664e-08
-6.18394e-09
0.000100145
8.93512e-09
-6.16943e-09
0.000100013
2.85215e-09
-6.14861e-09
0.000100012
-3.97112e-09
-6.12708e-09
0.000100013
-1.04581e-08
-6.10642e-09
0.000100012
-1.5423e-08
-6.08581e-09
0.000100011
-2.00448e-08
-6.05779e-09
0.000100011
-1.62708e-07
-6.01983e-09
0.000100149
-5.97343e-09
9.98432e-05
1.54092e-07
-1.16072e-08
9.98511e-05
1.54847e-08
-1.15893e-08
0.000100144
8.95739e-09
-1.15616e-08
0.000100012
2.87371e-09
-1.15314e-08
0.000100011
-3.94961e-09
-1.14991e-08
0.000100012
-1.04345e-08
-1.14664e-08
0.000100012
-1.53972e-08
-1.14324e-08
0.00010001
-2.00056e-08
-1.13913e-08
0.00010001
-1.62699e-07
-1.13467e-08
0.000100148
-1.12822e-08
9.98423e-05
1.54123e-07
-1.72849e-08
9.98514e-05
1.5506e-08
-1.72041e-08
0.000100144
8.98717e-09
-1.71775e-08
0.000100012
2.90449e-09
-1.7151e-08
0.000100011
-3.91618e-09
-1.71194e-08
0.000100012
-1.03966e-08
-1.70838e-08
0.000100012
-1.53576e-08
-1.70419e-08
0.00010001
-1.99555e-08
-1.69867e-08
0.00010001
-1.62666e-07
-1.69419e-08
0.000100148
-1.69236e-08
9.98427e-05
1.54103e-07
-1.57227e-07
9.99856e-05
1.55315e-08
-1.57304e-07
0.000100278
9.02058e-09
-1.57317e-07
0.000100146
2.93628e-09
-1.57269e-07
0.000100146
-3.8751e-09
-1.57216e-07
0.000100147
-1.03455e-08
-1.57142e-07
0.000100146
-1.53095e-08
-1.57059e-07
0.000100145
-1.99114e-08
-1.56987e-07
0.000100144
-1.62542e-07
-1.56852e-07
0.000100282
-1.56604e-07
9.99767e-05
1.54029e-07
9.96886e-05
1.56193e-08
9.99809e-05
9.05569e-09
9.9849e-05
2.98907e-09
9.98485e-05
-3.80382e-09
9.98493e-05
-1.0258e-08
9.9849e-05
-1.52267e-08
9.98476e-05
-1.98896e-08
9.98474e-05
-1.62294e-07
9.99851e-05
9.96807e-05
2.18752e-07
2.24686e-07
9.92442e-05
6.75082e-08
2.24844e-07
9.99061e-05
3.90255e-08
2.24558e-07
9.96517e-05
1.31902e-08
2.2446e-07
9.96486e-05
-6.68705e-09
2.24239e-07
9.96435e-05
-2.60769e-08
2.23912e-07
9.96429e-05
-5.03724e-08
2.23491e-07
9.96467e-05
-7.60173e-08
2.22991e-07
9.96485e-05
-2.32129e-07
2.2279e-07
9.99165e-05
2.21806e-07
9.92257e-05
2.18928e-07
7.16275e-08
9.99183e-05
6.75253e-08
7.16508e-08
0.000100581
3.89644e-08
7.15498e-08
0.000100326
1.30293e-08
7.1416e-08
0.000100323
-6.92937e-09
7.1259e-08
0.000100318
-2.64077e-08
7.10645e-08
0.000100317
-5.07798e-08
7.08522e-08
0.00010032
-7.64634e-08
7.06871e-08
0.00010032
-2.33067e-07
7.05993e-08
0.000100589
7.00084e-08
9.9894e-05
2.18676e-07
4.48091e-08
9.96583e-05
6.74267e-08
4.4804e-08
0.000100321
3.88661e-08
4.47474e-08
0.000100066
1.28825e-08
4.46288e-08
0.000100063
-7.12954e-09
4.4474e-08
0.000100057
-2.66374e-08
4.42795e-08
0.000100056
-5.098e-08
4.40715e-08
0.00010006
-7.65666e-08
4.39062e-08
0.000100061
-2.3338e-07
4.37743e-08
0.000100329
4.31639e-08
9.9635e-05
2.18674e-07
2.01606e-08
9.96559e-05
6.73373e-08
2.01328e-08
0.000100319
3.87474e-08
2.00943e-08
0.000100064
1.27301e-08
2.00135e-08
0.00010006
-7.31992e-09
1.98951e-08
0.000100055
-2.68414e-08
1.97401e-08
0.000100054
-5.11426e-08
1.9575e-08
0.000100057
-7.66653e-08
1.94462e-08
0.000100058
-2.34018e-07
1.93499e-08
0.000100327
1.88093e-08
9.96314e-05
2.18641e-07
9.37898e-10
9.96516e-05
6.72875e-08
9.27323e-10
0.000100314
3.86666e-08
9.01936e-10
0.000100059
1.26125e-08
8.623e-10
0.000100056
-7.4733e-09
7.93663e-10
0.000100051
-2.70052e-08
6.99256e-10
0.000100049
-5.12712e-08
6.03773e-10
0.000100053
-7.67497e-08
5.4309e-10
0.000100053
-2.34583e-07
5.19983e-10
0.000100323
9.21846e-11
9.96261e-05
2.18607e-07
-1.83607e-08
9.96518e-05
6.72675e-08
-1.83555e-08
0.000100314
3.86276e-08
-1.83697e-08
0.000100059
1.25456e-08
-1.83707e-08
0.000100056
-7.5653e-09
-1.83914e-08
0.000100051
-2.70987e-08
-1.84256e-08
0.00010005
-5.13296e-08
-1.84486e-08
0.000100053
-7.67753e-08
-1.84345e-08
0.000100054
-2.35018e-07
-1.83725e-08
0.000100324
-1.86491e-08
9.96257e-05
2.18572e-07
-4.32231e-08
9.96564e-05
6.72742e-08
-4.32389e-08
0.000100319
3.8627e-08
-4.32384e-08
0.000100064
1.25265e-08
-4.32074e-08
0.000100061
-7.59766e-09
-4.31953e-08
0.000100055
-2.71206e-08
-4.31869e-08
0.000100054
-5.13125e-08
-4.31532e-08
0.000100057
-7.67309e-08
-4.3078e-08
0.000100058
-2.35284e-07
-4.29462e-08
0.000100329
-4.3017e-08
9.96302e-05
2.1851e-07
-7.03747e-08
9.96591e-05
6.73155e-08
-7.0413e-08
0.000100321
3.86587e-08
-7.03646e-08
0.000100067
1.25389e-08
-7.03184e-08
0.000100063
-7.59022e-09
-7.02994e-08
0.000100058
-2.70894e-08
-7.02748e-08
0.000100057
-5.12378e-08
-7.02077e-08
0.00010006
-7.66414e-08
-7.01089e-08
0.000100061
-2.35356e-07
-6.99672e-08
0.000100332
-7.00203e-08
9.96331e-05
2.18712e-07
-2.24283e-07
9.99199e-05
6.73603e-08
-2.24504e-07
0.000100583
3.86565e-08
-2.24313e-07
0.000100328
1.25332e-08
-2.24366e-07
0.000100325
-7.57509e-09
-2.24369e-07
0.000100319
-2.7019e-08
-2.24344e-07
0.000100318
-5.11079e-08
-2.24293e-07
0.000100322
-7.65082e-08
-2.24192e-07
0.000100323
-2.35682e-07
-2.24457e-07
0.000100594
-2.24175e-07
9.9894e-05
2.18466e-07
9.92451e-05
6.72698e-08
9.99069e-05
3.86019e-08
9.96526e-05
1.25129e-08
9.96494e-05
-7.58595e-09
9.96441e-05
-2.70203e-08
9.96432e-05
-5.10444e-08
9.96465e-05
-7.65381e-08
9.96476e-05
-2.35426e-07
9.99185e-05
9.92204e-05
2.43538e-07
2.53969e-07
9.87457e-05
8.45147e-08
2.54313e-07
9.98097e-05
4.95744e-08
2.53476e-07
9.94321e-05
1.43904e-08
2.53384e-07
9.94292e-05
-1.44485e-08
2.52955e-07
9.9418e-05
-4.205e-08
2.52361e-07
9.94166e-05
-7.34877e-08
2.51618e-07
9.94249e-05
-1.02397e-07
2.50573e-07
9.94252e-05
-2.6791e-07
2.5044e-07
9.98297e-05
2.48654e-07
9.8708e-05
2.4391e-07
9.31911e-08
9.98341e-05
8.47073e-08
9.34392e-08
0.0001009
4.94194e-08
9.32014e-08
0.000100521
1.40293e-08
9.29645e-08
0.000100518
-1.50179e-08
9.26977e-08
0.000100506
-4.28231e-08
9.23347e-08
0.000100503
-7.44551e-08
9.18939e-08
0.000100509
-1.03584e-07
9.1487e-08
0.000100507
-2.69618e-07
9.11885e-08
0.000100912
8.98024e-08
9.97819e-05
2.43125e-07
6.16079e-08
9.94457e-05
8.44721e-08
6.16223e-08
0.00010051
4.92584e-08
6.15342e-08
0.000100132
1.37694e-08
6.1331e-08
0.000100129
-1.5376e-08
6.10655e-08
0.000100117
-4.32547e-08
6.07008e-08
0.000100114
-7.49218e-08
6.02574e-08
0.000100121
-1.03867e-07
5.98148e-08
0.00010012
-2.69903e-07
5.93477e-08
0.000100526
5.80535e-08
9.93954e-05
2.43203e-07
2.88378e-08
9.94445e-05
8.43123e-08
2.88136e-08
0.000100509
4.90505e-08
2.87482e-08
0.000100131
1.34934e-08
2.86131e-08
0.000100127
-1.574e-08
2.8412e-08
0.000100115
-4.36916e-08
2.81225e-08
0.000100113
-7.53736e-08
2.77598e-08
0.00010012
-1.04269e-07
2.73754e-08
0.000100118
-2.71225e-07
2.69748e-08
0.000100525
2.58283e-08
9.9391e-05
2.43116e-07
1.22346e-09
9.94351e-05
8.42421e-08
1.20009e-09
0.0001005
4.89222e-08
1.17201e-09
0.000100121
1.32882e-08
1.11901e-09
0.000100118
-1.60343e-08
1.01308e-09
0.000100106
-4.40611e-08
8.42264e-10
0.000100103
-7.57773e-08
6.17665e-10
0.00010011
-1.04666e-07
3.61223e-10
0.000100108
-2.72276e-07
8.76931e-11
0.000100516
-7.64644e-10
9.9379e-05
2.43068e-07
-2.65063e-08
9.94355e-05
8.42186e-08
-2.65276e-08
0.0001005
4.88674e-08
-2.65207e-08
0.000100121
1.31803e-08
-2.64949e-08
0.000100118
-1.62079e-08
-2.65078e-08
0.000100106
-4.42924e-08
-2.65582e-08
0.000100104
-7.60384e-08
-2.66374e-08
0.00010011
-1.04933e-07
-2.67471e-08
0.000100108
-2.73091e-07
-2.68708e-08
0.000100518
-2.73547e-08
9.93778e-05
2.43062e-07
-5.96013e-08
9.94456e-05
8.42399e-08
-5.96597e-08
0.00010051
4.88838e-08
-5.96353e-08
0.000100132
1.31692e-08
-5.95478e-08
0.000100129
-1.62571e-08
-5.94969e-08
0.000100117
-4.43747e-08
-5.946e-08
0.000100114
-7.61348e-08
-5.94244e-08
0.000100121
-1.05039e-07
-5.94203e-08
0.000100119
-2.73601e-07
-5.93887e-08
0.000100529
-5.95264e-08
9.93875e-05
2.42898e-07
-9.1663e-08
9.94475e-05
8.4345e-08
-9.19617e-08
0.000100511
4.89742e-08
-9.17925e-08
0.000100133
1.3229e-08
-9.16735e-08
0.00010013
-1.62241e-08
-9.16106e-08
0.000100119
-4.43547e-08
-9.15406e-08
0.000100116
-7.61272e-08
-9.1445e-08
0.000100123
-1.05057e-07
-9.13697e-08
0.000100121
-2.73669e-07
-9.14633e-08
0.000100532
-9.10807e-08
9.93898e-05
2.4359e-07
-2.53599e-07
9.98374e-05
8.45061e-08
-2.53968e-07
0.000100903
4.89993e-08
-2.53249e-07
0.000100524
1.32643e-08
-2.53367e-07
0.000100521
-1.61802e-08
-2.53276e-07
0.000100509
-4.42902e-08
-2.53177e-07
0.000100507
-7.60055e-08
-2.53077e-07
0.000100514
-1.05144e-07
-2.5285e-07
0.000100512
-2.74437e-07
-2.53566e-07
0.000100924
-2.52881e-07
9.97796e-05
2.43192e-07
9.87478e-05
8.42202e-08
9.98113e-05
4.89761e-08
9.94339e-05
1.33255e-08
9.9431e-05
-1.607e-08
9.94195e-05
-4.41314e-08
9.94173e-05
-7.58425e-08
9.94243e-05
-1.04695e-07
9.94229e-05
-2.73816e-07
9.98324e-05
9.86928e-05
2.56182e-07
2.71897e-07
9.82167e-05
9.05364e-08
2.72508e-07
9.9702e-05
4.9589e-08
2.71054e-07
9.9201e-05
1.00156e-08
2.70962e-07
9.91968e-05
-2.35947e-08
2.70179e-07
9.91803e-05
-5.50361e-08
2.69184e-07
9.91776e-05
-8.83776e-08
2.67966e-07
9.91889e-05
-1.19674e-07
2.66075e-07
9.91888e-05
-2.93921e-07
2.65859e-07
9.97362e-05
2.62453e-07
9.81494e-05
2.56851e-07
1.04503e-07
9.97438e-05
9.09225e-08
1.05004e-07
0.000101233
4.93132e-08
1.04557e-07
0.000100728
9.41655e-09
1.04178e-07
0.000100723
-2.46156e-08
1.0374e-07
0.000100705
-5.65031e-08
1.03113e-07
0.0001007
-9.0108e-08
1.02303e-07
0.000100707
-1.21901e-07
1.01485e-07
0.000100702
-2.9711e-07
1.00933e-07
0.00010125
9.82746e-08
9.9647e-05
2.55471e-07
6.89082e-08
9.9225e-05
9.0473e-08
6.89578e-08
0.00010071
4.90183e-08
6.87971e-08
0.000100208
8.94548e-09
6.8482e-08
0.000100203
-2.52351e-08
6.8057e-08
0.000100185
-5.72603e-08
6.74399e-08
0.000100181
-9.0971e-08
6.66421e-08
0.000100189
-1.22473e-07
6.57724e-08
0.000100185
-2.97743e-07
6.48764e-08
0.000100735
6.25414e-08
9.91315e-05
2.55665e-07
3.32626e-08
9.92237e-05
9.02251e-08
3.32928e-08
0.000100709
4.86906e-08
3.31687e-08
0.000100207
8.49022e-09
3.29695e-08
0.000100202
-2.58567e-08
3.26626e-08
0.000100184
-5.80508e-08
3.21913e-08
0.000100179
-9.18459e-08
3.15595e-08
0.000100187
-1.23308e-07
3.08228e-08
0.000100183
-3.00164e-07
3.00567e-08
0.000100735
2.80511e-08
9.91234e-05
2.55468e-07
1.65376e-09
9.92105e-05
9.01333e-08
1.64017e-09
0.000100696
4.85063e-08
1.61652e-09
0.000100193
8.17129e-09
1.56547e-09
0.000100189
-2.63408e-08
1.43085e-09
0.000100171
-5.87017e-08
1.1825e-09
0.000100166
-9.26094e-08
8.17216e-10
0.000100173
-1.24106e-07
3.4529e-10
0.000100168
-3.01905e-07
-2.16438e-10
0.000100722
-1.54104e-09
9.91048e-05
2.5542e-07
-3.01111e-08
9.92111e-05
9.01176e-08
-3.01719e-08
0.000100696
4.84491e-08
-3.01011e-08
0.000100194
8.03116e-09
-3.00122e-08
0.000100189
-2.65952e-08
-2.99824e-08
0.000100171
-5.90826e-08
-3.00124e-08
0.000100166
-9.30839e-08
-3.01047e-08
0.000100174
-1.24627e-07
-3.02943e-08
0.000100169
-3.03227e-07
-3.06208e-08
0.000100725
-3.11707e-08
9.91025e-05
2.55521e-07
-6.61918e-08
9.92255e-05
9.01734e-08
-6.62722e-08
0.000100711
4.85139e-08
-6.61752e-08
0.000100209
8.06642e-09
-6.59861e-08
0.000100204
-2.66192e-08
-6.58475e-08
0.000100186
-5.91801e-08
-6.57223e-08
0.000100181
-9.32385e-08
-6.56079e-08
0.000100189
-1.24828e-07
-6.5579e-08
0.000100184
-3.04045e-07
-6.56559e-08
0.000100741
-6.55485e-08
9.91162e-05
2.55241e-07
-1.02498e-07
9.92279e-05
9.03743e-08
-1.03019e-07
0.000100712
4.87104e-08
-1.02639e-07
0.000100211
8.23285e-09
-1.024e-07
0.000100206
-2.64919e-08
-1.02245e-07
0.000100189
-5.90909e-08
-1.0207e-07
0.000100184
-9.31968e-08
-1.01848e-07
0.000100192
-1.2488e-07
-1.01749e-07
0.000100188
-3.03891e-07
-1.01924e-07
0.000100745
-1.01239e-07
9.91196e-05
2.56532e-07
-2.71146e-07
9.97489e-05
9.07453e-08
-2.7176e-07
0.000101237
4.88244e-08
-2.70471e-07
0.000100733
8.37119e-09
-2.70644e-07
0.000100729
-2.63817e-08
-2.70324e-07
0.000100711
-5.89968e-08
-2.70052e-07
0.000100707
-9.30951e-08
-2.69883e-07
0.000100715
-1.25035e-07
-2.69311e-07
0.00010071
-3.05395e-07
-2.70813e-07
0.000101271
-2.68917e-07
9.96403e-05
2.55867e-07
9.82202e-05
9.02511e-08
9.97046e-05
4.88934e-08
9.92043e-05
8.58386e-09
9.92e-05
-2.59937e-08
9.9183e-05
-5.85019e-08
9.91791e-05
-9.25324e-08
9.91878e-05
-1.24293e-07
9.9184e-05
-3.03662e-07
9.97397e-05
9.81191e-05
2.63669e-07
2.85679e-07
9.76665e-05
9.37011e-08
2.86562e-07
9.95846e-05
4.6383e-08
2.84477e-07
9.8963e-05
2.91307e-09
2.84337e-07
9.89551e-05
-3.44593e-08
2.83013e-07
9.89338e-05
-6.86599e-08
2.81371e-07
9.89293e-05
-1.02791e-07
2.79382e-07
9.89423e-05
-1.36117e-07
2.76126e-07
9.89443e-05
-3.18125e-07
2.75086e-07
9.96399e-05
2.69078e-07
9.75601e-05
2.64671e-07
1.13849e-07
9.96502e-05
9.42512e-08
1.14582e-07
0.000101575
4.59356e-08
1.13891e-07
0.000100946
1.98815e-09
1.13317e-07
0.000100938
-3.61633e-08
1.12599e-07
0.000100913
-7.11679e-08
1.11536e-07
0.000100903
-1.05829e-07
1.1011e-07
0.00010091
-1.40023e-07
1.08564e-07
0.000100902
-3.23706e-07
1.07274e-07
0.000101599
1.02673e-07
9.9487e-05
2.62688e-07
7.42151e-08
9.90011e-05
9.35436e-08
7.43041e-08
0.000100919
4.54261e-08
7.40382e-08
0.000100295
1.16982e-09
7.35692e-08
0.000100287
-3.72353e-08
7.29012e-08
0.000100263
-7.24898e-08
7.18893e-08
0.000100255
-1.07443e-07
7.05146e-08
0.000100263
-1.41285e-07
6.89449e-08
0.000100257
-3.25452e-07
6.71886e-08
0.000100956
6.30865e-08
9.88428e-05
2.63018e-07
3.65725e-08
9.89975e-05
9.31887e-08
3.67078e-08
0.000100916
4.49325e-08
3.65e-08
0.000100292
4.49174e-10
3.62239e-08
0.000100283
-3.82608e-08
3.57765e-08
0.000100259
-7.38473e-08
3.50525e-08
0.000100251
-1.09045e-07
3.40196e-08
0.000100258
-1.42943e-07
3.27723e-08
0.000100251
-3.29765e-07
3.13243e-08
0.000100955
2.78995e-08
9.8826e-05
2.62676e-07
2.22959e-09
9.89815e-05
9.30645e-08
2.2663e-09
0.000100899
4.46735e-08
2.25426e-09
0.000100275
-2.31098e-11
2.23104e-09
0.000100267
-3.90117e-08
2.08986e-09
0.000100242
-7.49054e-08
1.77614e-09
0.000100234
-1.10362e-07
1.25697e-09
0.00010024
-1.44417e-07
5.36823e-10
0.000100233
-3.32725e-07
-4.98188e-10
0.00010094
-2.4976e-09
9.87997e-05
2.62654e-07
-3.23307e-08
9.89824e-05
9.30737e-08
-3.23987e-08
0.0001009
4.46356e-08
-3.22262e-08
0.000100276
-1.73427e-10
-3.20167e-08
0.000100268
-3.93358e-08
-3.18769e-08
0.000100244
-7.54429e-08
-3.18058e-08
0.000100235
-1.11101e-07
-3.18331e-08
0.000100242
-1.45304e-07
-3.20308e-08
0.000100234
-3.34846e-07
-3.26272e-08
0.000100944
-3.30734e-08
9.87955e-05
2.62955e-07
-7.05836e-08
9.90002e-05
9.32062e-08
-7.06243e-08
0.000100918
4.48029e-08
-7.04179e-08
0.000100294
-2.15828e-11
-7.00614e-08
0.000100286
-3.92519e-08
-6.97477e-08
0.000100262
-7.54701e-08
-6.9425e-08
0.000100254
-1.1126e-07
-6.91165e-08
0.000100261
-1.45591e-07
-6.89447e-08
0.000100254
-3.36027e-07
-6.90747e-08
0.000100966
-6.85672e-08
9.8813e-05
2.62588e-07
-1.11131e-07
9.90054e-05
9.35494e-08
-1.11864e-07
0.000100922
4.51761e-08
-1.11266e-07
0.000100299
3.51026e-10
-1.10856e-07
0.000100291
-3.89086e-08
-1.10526e-07
0.000100268
-7.518e-08
-1.10142e-07
0.00010026
-1.1106e-07
-1.09717e-07
0.000100268
-1.45531e-07
-1.0938e-07
0.000100261
-3.35547e-07
-1.09892e-07
0.000100974
-1.07957e-07
9.88213e-05
2.64437e-07
-2.84336e-07
9.96571e-05
9.41359e-08
-2.85037e-07
0.00010158
4.54206e-08
-2.83119e-07
0.000100953
6.60196e-10
-2.83263e-07
0.000100946
-3.86614e-08
-2.82531e-07
0.000100922
-7.50177e-08
-2.81934e-07
0.000100914
-1.10831e-07
-2.81526e-07
0.000100922
-1.45961e-07
-2.80461e-07
0.000100915
-3.37133e-07
-2.82235e-07
0.000101633
-2.79018e-07
9.94711e-05
2.63646e-07
9.76721e-05
9.35596e-08
9.95894e-05
4.57141e-08
9.89686e-05
1.1783e-09
9.89609e-05
-3.77893e-08
9.89391e-05
-7.38477e-08
9.89328e-05
-1.09789e-07
9.89416e-05
-1.44131e-07
9.89372e-05
-3.34399e-07
9.96451e-05
9.7504e-05
2.65249e-07
2.94737e-07
9.71062e-05
9.33658e-08
2.95874e-07
9.94602e-05
4.05745e-08
2.93112e-07
9.87224e-05
-6.79159e-09
2.92809e-07
9.87094e-05
-4.80728e-08
2.90702e-07
9.86841e-05
-8.46824e-08
2.88061e-07
9.86776e-05
-1.1864e-07
2.84716e-07
9.86909e-05
-1.51919e-07
2.79154e-07
9.86964e-05
-3.38931e-07
2.76431e-07
9.95476e-05
2.64719e-07
9.69523e-05
2.66605e-07
1.21047e-07
9.95569e-05
9.40446e-08
1.21997e-07
0.000101921
3.98663e-08
1.21035e-07
0.000101172
-8.23127e-09
1.20208e-07
0.000101158
-5.08134e-08
1.19067e-07
0.000101127
-8.89084e-08
1.17328e-07
0.000101112
-1.23839e-07
1.14883e-07
0.000101114
-1.58516e-07
1.11956e-07
0.000101102
-3.49727e-07
1.09213e-07
0.000101953
1.0077e-07
9.92976e-05
2.63987e-07
7.88541e-08
9.87791e-05
9.30376e-08
7.89899e-08
0.000101133
3.90547e-08
7.86042e-08
0.000100391
-9.55573e-09
7.79483e-08
0.000100377
-5.25936e-08
7.69441e-08
0.000100348
-9.1234e-08
7.53571e-08
0.000100335
-1.26792e-07
7.3083e-08
0.00010034
-1.61295e-07
7.02062e-08
0.000100331
-3.54387e-07
6.68246e-08
0.000101188
5.91296e-08
9.85264e-05
2.64447e-07
3.98154e-08
9.87719e-05
9.25683e-08
4.0099e-08
0.000101127
3.83566e-08
3.98172e-08
0.000100385
-1.06411e-08
3.94823e-08
0.000100371
-5.42144e-08
3.88875e-08
0.000100341
-9.35172e-08
3.78558e-08
0.000100327
-1.29683e-07
3.62751e-08
0.00010033
-1.64581e-07
3.41322e-08
0.00010032
-3.62335e-07
3.14847e-08
0.000101184
2.53423e-08
9.84938e-05
2.63948e-07
3.0542e-09
9.87541e-05
9.24185e-08
3.19916e-09
0.000101107
3.80303e-08
3.24076e-09
0.000100366
-1.12814e-08
3.32297e-09
0.000100352
-5.52997e-08
3.26247e-09
0.000100322
-9.51637e-08
2.97179e-09
0.000100308
-1.31908e-07
2.34413e-09
0.000100311
-1.67263e-07
1.30043e-09
0.0001003
-3.67742e-07
-4.77305e-10
0.000101168
-3.66601e-09
9.84573e-05
2.64e-07
-3.39969e-08
9.87553e-05
9.25041e-08
-3.40136e-08
0.000101108
3.80845e-08
-3.36745e-08
0.000100367
-1.1355e-08
-3.32241e-08
0.000100354
-5.56099e-08
-3.2817e-08
0.000100324
-9.58295e-08
-3.24546e-08
0.00010031
-1.32968e-07
-3.22196e-08
0.000100313
-1.68744e-07
-3.22613e-08
0.000100302
-3.71273e-07
-3.32116e-08
0.000101175
-3.34931e-08
9.84505e-05
2.64588e-07
-7.38396e-08
9.87754e-05
9.27969e-08
-7.37633e-08
0.00010113
3.84743e-08
-7.33803e-08
0.000100388
-1.0925e-08
-7.27236e-08
0.000100375
-5.52275e-08
-7.20533e-08
0.000100346
-9.55897e-08
-7.13066e-08
0.000100333
-1.3296e-07
-7.05357e-08
0.000100337
-1.69087e-07
-6.99363e-08
0.000100327
-3.72961e-07
-7.01566e-08
0.000101203
-6.85344e-08
9.84718e-05
2.6421e-07
-1.17337e-07
9.87846e-05
9.33639e-08
-1.18123e-07
0.000101137
3.91641e-08
-1.17222e-07
0.000100397
-1.01476e-08
-1.16523e-07
0.000100384
-5.442e-08
-1.15847e-07
0.000100356
-9.48154e-08
-1.15056e-07
0.000100344
-1.32306e-07
-1.14144e-07
0.000100349
-1.68754e-07
-1.13473e-07
0.00010034
-3.71707e-07
-1.13834e-07
0.000101217
-1.10796e-07
9.84879e-05
2.66752e-07
-2.92245e-07
9.95653e-05
9.42532e-08
-2.93044e-07
0.000101927
3.96439e-08
-2.90453e-07
0.000101181
-9.52983e-09
-2.90409e-07
0.000101168
-5.38807e-08
-2.89021e-07
0.000101139
-9.4367e-08
-2.878e-07
0.000101127
-1.3191e-07
-2.86925e-07
0.000101132
-1.68962e-07
-2.8499e-07
0.000101122
-3.73698e-07
-2.87588e-07
0.000102006
-2.81186e-07
9.92647e-05
2.65803e-07
9.71138e-05
9.3684e-08
9.94683e-05
4.03458e-08
9.87314e-05
-8.45329e-09
9.87191e-05
-5.21477e-08
9.86936e-05
-9.22039e-08
9.86848e-05
-1.29744e-07
9.86919e-05
-1.66444e-07
9.8687e-05
-3.68271e-07
9.95569e-05
9.68531e-05
2.61279e-07
2.9946e-07
9.65452e-05
8.89365e-08
3.00787e-07
9.93315e-05
3.11909e-08
2.97281e-07
9.84827e-05
-2.00891e-08
2.96636e-07
9.84639e-05
-6.51473e-08
2.93418e-07
9.84357e-05
-1.03883e-07
2.8917e-07
9.84269e-05
-1.3646e-07
2.83454e-07
9.84394e-05
-1.66442e-07
2.74021e-07
9.84511e-05
-3.5653e-07
2.6693e-07
9.9466e-05
2.45062e-07
9.63482e-05
2.62975e-07
1.25728e-07
9.94674e-05
8.96863e-08
1.26863e-07
0.000102268
3.00917e-08
1.25582e-07
0.000101403
-2.23465e-08
1.24411e-07
0.000101383
-6.95733e-08
1.22634e-07
0.000101345
-1.10897e-07
1.1981e-07
0.000101322
-1.45576e-07
1.15629e-07
0.000101316
-1.78798e-07
1.10127e-07
0.000101297
-3.76564e-07
1.04193e-07
0.00010231
8.76738e-08
9.90749e-05
2.5968e-07
8.22326e-08
9.85626e-05
8.8312e-08
8.24219e-08
0.000101348
2.88489e-08
8.18919e-08
0.000100494
-2.44135e-08
8.10006e-08
0.000100474
-7.25064e-08
7.9527e-08
0.000100439
-1.14948e-07
7.70819e-08
0.00010042
-1.51142e-07
7.33297e-08
0.000100418
-1.8484e-07
6.82488e-08
0.000100406
-3.87901e-07
6.17589e-08
0.000101429
4.67558e-08
9.81757e-05
2.60236e-07
4.26057e-08
9.85511e-05
8.77095e-08
4.30773e-08
0.000101338
2.78844e-08
4.27421e-08
0.000100483
-2.60127e-08
4.23796e-08
0.000100463
-7.5044e-08
4.16415e-08
0.000100427
-1.18723e-07
4.0244e-08
0.000100408
-1.56247e-07
3.78876e-08
0.000100403
-1.91145e-07
3.45306e-08
0.000100388
-4.03069e-07
2.98148e-08
0.000101424
1.87164e-08
9.81147e-05
2.59586e-07
4.16943e-09
9.85328e-05
8.75484e-08
4.48851e-09
0.000101318
2.75056e-08
4.65017e-09
0.000100464
-2.68322e-08
4.95594e-09
0.000100444
-7.65483e-08
5.12864e-09
0.000100408
-1.21174e-07
5.0403e-09
0.000100388
-1.59759e-07
4.48302e-09
0.000100382
-1.95727e-07
3.25618e-09
0.000100365
-4.13224e-07
4.95505e-10
0.000101411
-4.52413e-09
9.80631e-05
2.59768e-07
-3.46677e-08
9.85343e-05
8.77847e-08
-3.45393e-08
0.000101319
2.77644e-08
-3.39319e-08
0.000100466
-2.66787e-08
-3.30579e-08
0.000100446
-7.66746e-08
-3.21273e-08
0.000100411
-1.21772e-07
-3.11195e-08
0.000100392
-1.61043e-07
-3.01806e-08
0.000100386
-1.97878e-07
-2.96204e-08
0.00010037
-4.19219e-07
-3.06221e-08
0.000101424
-2.98853e-08
9.80525e-05
2.60753e-07
-7.54315e-08
9.85554e-05
8.83595e-08
-7.51293e-08
0.000101343
2.85613e-08
-7.44536e-08
0.000100489
-2.57069e-08
-7.32997e-08
0.00010047
-7.56283e-08
-7.19856e-08
0.000100436
-1.20812e-07
-7.04185e-08
0.000100418
-1.60354e-07
-6.87069e-08
0.000100414
-1.97619e-07
-6.71849e-08
0.0001004
-4.20938e-07
-6.70409e-08
0.000101459
-6.29828e-08
9.80796e-05
2.60501e-07
-1.20622e-07
9.85694e-05
8.92825e-08
-1.21447e-07
0.000101355
2.97785e-08
-1.20179e-07
0.000100503
-2.42113e-08
-1.19033e-07
0.000100484
-7.39396e-08
-1.17768e-07
0.000100451
-1.19045e-07
-1.16241e-07
0.000100435
-1.5867e-07
-1.14556e-07
0.000100434
-1.96409e-07
-1.12899e-07
0.000100422
-4.18143e-07
-1.13468e-07
0.000101481
-1.06805e-07
9.81098e-05
2.63727e-07
-2.9561e-07
9.94765e-05
9.05445e-08
-2.96219e-07
0.000102275
3.06346e-08
-2.92803e-07
0.000101413
-2.3089e-08
-2.92321e-07
0.000101396
-7.28438e-08
-2.89942e-07
0.000101361
-1.18077e-07
-2.87722e-07
0.000101344
-1.57618e-07
-2.85888e-07
0.000101343
-1.96588e-07
-2.82601e-07
0.00010133
-4.19114e-07
-2.8537e-07
0.000102398
-2.74874e-07
9.90095e-05
2.6288e-07
9.65556e-05
9.01862e-08
9.9345e-05
3.20074e-08
9.84969e-05
-2.10579e-08
9.848e-05
-6.97603e-08
9.84525e-05
-1.14139e-07
9.84417e-05
-1.53902e-07
9.84457e-05
-1.91806e-07
9.84414e-05
-4.11147e-07
9.94879e-05
9.61641e-05
2.53399e-07
3.01487e-07
9.59906e-05
8.11729e-08
3.0294e-07
9.92011e-05
1.80804e-08
2.98643e-07
9.82476e-05
-3.77487e-08
2.97412e-07
9.8223e-05
-8.69147e-08
2.92641e-07
9.81932e-05
-1.27411e-07
2.8597e-07
9.8183e-05
-1.56995e-07
2.76355e-07
9.81945e-05
-1.80788e-07
2.60227e-07
9.82145e-05
-3.61347e-07
2.46061e-07
9.94001e-05
2.04791e-07
9.57801e-05
2.55428e-07
1.28853e-07
9.93849e-05
8.18996e-08
1.30121e-07
0.000102614
1.63957e-08
1.2847e-07
0.000101639
-4.12759e-08
1.26829e-07
0.000101611
-9.39226e-08
1.24128e-07
0.000101567
-1.38904e-07
1.19666e-07
0.000101535
-1.73221e-07
1.12635e-07
0.000101516
-2.0185e-07
1.02647e-07
0.000101484
-3.98625e-07
8.95702e-08
0.000102661
5.66832e-08
9.88225e-05
2.51442e-07
8.46045e-08
9.83558e-05
8.00821e-08
8.48496e-08
0.000101565
1.45559e-08
8.41558e-08
0.000100605
-4.44019e-08
8.29776e-08
0.000100577
-9.85923e-08
8.08778e-08
0.000100537
-1.45826e-07
7.72164e-08
0.000100512
-1.83097e-07
7.12563e-08
0.000100498
-2.14144e-07
6.23496e-08
0.000100477
-4.24578e-07
4.90841e-08
0.000101677
1.78183e-08
9.77876e-05
2.52052e-07
4.49e-08
9.83392e-05
7.93216e-08
4.56028e-08
0.000101551
1.32518e-08
4.52592e-08
0.000100589
-4.67015e-08
4.49404e-08
0.000100562
-1.0245e-07
4.41241e-08
0.000100521
-1.5194e-07
4.238e-08
0.000100494
-1.9215e-07
3.91658e-08
0.000100477
-2.26682e-07
3.39258e-08
0.000100451
-4.56107e-07
2.49255e-08
0.000101673
3.49629e-09
9.76704e-05
2.51277e-07
5.59669e-09
9.83214e-05
7.91841e-08
6.18362e-09
0.00010153
1.28716e-08
6.57654e-09
0.00010057
-4.76561e-08
7.30822e-09
0.000100543
-1.04391e-07
8.00631e-09
0.000100502
-1.55398e-07
8.53329e-09
0.000100475
-1.97657e-07
8.50814e-09
0.000100457
-2.35096e-07
7.46668e-09
0.000100429
-4.77175e-07
3.33289e-09
0.000101671
-5.57312e-09
9.75923e-05
2.51678e-07
-3.4235e-08
9.83232e-05
7.96908e-08
-3.38359e-08
0.000101532
1.35318e-08
-3.28036e-08
0.000100572
-4.69824e-08
-3.12136e-08
0.000100546
-1.03926e-07
-2.93103e-08
0.000100506
-1.55497e-07
-2.70219e-08
0.00010048
-1.98761e-07
-2.45793e-08
0.000100464
-2.37936e-07
-2.23732e-08
0.000100439
-4.87519e-07
-2.34341e-08
0.000101696
-2.25056e-08
9.75791e-05
2.53185e-07
-7.54181e-08
9.83442e-05
8.07273e-08
-7.476e-08
0.000101557
1.50319e-08
-7.36217e-08
0.000100596
-4.50045e-08
-7.16526e-08
0.000100571
-1.0157e-07
-6.92146e-08
0.000100533
-1.53017e-07
-6.61581e-08
0.000100509
-1.96408e-07
-6.26132e-08
0.000100497
-2.3697e-07
-5.88621e-08
0.000100476
-4.90454e-07
-5.82605e-08
0.000101743
-5.09136e-08
9.7615e-05
2.53235e-07
-1.21993e-07
9.83635e-05
8.22078e-08
-1.22581e-07
0.000101575
1.71207e-08
-1.20768e-07
0.000100616
-4.2265e-08
-1.18895e-07
0.000100592
-9.82582e-08
-1.16634e-07
0.000100556
-1.49267e-07
-1.13834e-07
0.000100535
-1.92621e-07
-1.10523e-07
0.000100526
-2.34349e-07
-1.07086e-07
0.000100511
-4.85627e-07
-1.07029e-07
0.000101776
-9.52157e-08
9.76658e-05
2.5732e-07
-2.95637e-07
9.93938e-05
8.40109e-08
-2.96012e-07
0.000102623
1.85995e-08
-2.91675e-07
0.00010165
-4.02914e-08
-2.90398e-07
0.000101627
-9.61541e-08
-2.8655e-07
0.000101588
-1.47097e-07
-2.82622e-07
0.000101565
-1.90429e-07
-2.78987e-07
0.000101555
-2.334e-07
-2.73943e-07
0.000101538
-4.8467e-07
-2.77252e-07
0.000102814
-2.60375e-07
9.86872e-05
2.56619e-07
9.60037e-05
8.41038e-08
9.92219e-05
2.10447e-08
9.82687e-05
-3.67001e-08
9.82478e-05
-9.07952e-08
9.82206e-05
-1.40372e-07
9.82094e-05
-1.83865e-07
9.821e-05
-2.25276e-07
9.82073e-05
-4.71833e-07
9.94536e-05
9.54341e-05
2.4309e-07
3.0218e-07
9.54456e-05
7.10495e-08
3.03664e-07
9.90699e-05
1.84398e-09
2.98557e-07
9.80186e-05
-5.96441e-08
2.96491e-07
9.79885e-05
-1.13737e-07
2.89702e-07
9.79585e-05
-1.56208e-07
2.79532e-07
9.79473e-05
-1.82217e-07
2.63682e-07
9.79586e-05
-1.92157e-07
2.36591e-07
9.7992e-05
-3.38801e-07
2.07954e-07
9.93425e-05
1.32971e-07
9.53167e-05
2.45414e-07
1.31404e-07
9.93106e-05
7.16444e-08
1.32735e-07
0.000102959
-6.42905e-10
1.30682e-07
0.00010188
-6.49879e-08
1.28433e-07
0.000101844
-1.24555e-07
1.24462e-07
0.000101792
-1.74984e-07
1.17518e-07
0.000101749
-2.1016e-07
1.05805e-07
0.000101711
-2.33657e-07
8.6838e-08
0.00010166
-4.10435e-07
5.89458e-08
0.000102992
-1.87575e-08
9.85739e-05
2.40748e-07
8.66354e-08
9.81603e-05
6.932e-08
8.69348e-08
0.000101783
-3.25494e-09
8.60791e-08
0.000100722
-6.95643e-08
8.45672e-08
0.000100688
-1.31898e-07
8.16733e-08
0.000100643
-1.86673e-07
7.63012e-08
0.000100609
-2.28717e-07
6.68047e-08
0.000100581
-2.60791e-07
5.12008e-08
0.000100548
-4.76825e-07
2.64355e-08
0.000101932
-4.11864e-08
9.73443e-05
2.4137e-07
4.70491e-08
9.81379e-05
6.83816e-08
4.80326e-08
0.000101763
-4.98123e-09
4.77608e-08
0.000100701
-7.27965e-08
4.76018e-08
0.000100667
-1.3771e-07
4.68441e-08
0.000100622
-1.96691e-07
4.48734e-08
0.000100585
-2.44691e-07
4.06735e-08
0.000100553
-2.85636e-07
3.3028e-08
0.000100512
-5.43598e-07
1.97621e-08
0.000101944
-2.08112e-08
9.71176e-05
2.40527e-07
7.38102e-09
9.81211e-05
6.8331e-08
8.35187e-09
0.000101742
-5.27341e-09
9.13318e-09
0.000100683
-7.37933e-08
1.05786e-08
0.000100649
-1.40065e-07
1.22576e-08
0.000100604
-2.01351e-07
1.40622e-08
0.000100568
-2.52628e-07
1.55199e-08
0.000100534
-2.98015e-07
1.59494e-08
0.000100493
-5.80941e-07
1.13952e-08
0.000101967
-1.49767e-09
9.70023e-05
2.4126e-07
-3.29841e-08
9.8123e-05
6.92744e-08
-3.21349e-08
0.000101745
-3.93109e-09
-3.04645e-08
0.000100686
-7.2152e-08
-2.77477e-08
0.000100653