/*--------------------------------*- C++ -*----------------------------------*\
  =========                 |
  \\      /  F ield         | OpenFOAM: The Open Source CFD Toolbox
   \\    /   O peration     | Website:  https://openfoam.org
    \\  /    A nd           | Version:  6
     \\/     M anipulation  |
\*---------------------------------------------------------------------------*/
FoamFile
{
    version     2.0;
    format      ascii;
    class       volScalarField;
    location    "1600";
    object      p;
}
// * * * * * * * * * * * * * * * * * * * * * * * * * * * * * * * * * * * * * //

dimensions      [0 2 -2 0 0 0 0];

internalField   nonuniform List<scalar> 
7000
(
0.0410158
0.0388062
0.038311
0.0381189
0.038054
0.0381224
0.0383173
0.0386196
0.0392
0.0415166
0.0387589
0.0365479
0.0360542
0.0358625
0.0357982
0.0358673
0.0360632
0.0363663
0.0369464
0.039266
0.0382243
0.0360146
0.0355209
0.0353295
0.0352656
0.0353351
0.0355315
0.0358351
0.0364159
0.0387351
0.0379782
0.0357686
0.035275
0.0350839
0.0350201
0.0350898
0.0352864
0.0355902
0.0361713
0.0384907
0.0378464
0.0356366
0.0351429
0.0349516
0.0348876
0.0349572
0.0351536
0.0354572
0.0360383
0.0383574
0.037841
0.0356306
0.0351366
0.0349449
0.0348804
0.0349492
0.0351449
0.0354478
0.0360284
0.0383466
0.0379624
0.0357514
0.035257
0.0350645
0.034999
0.0350668
0.0352613
0.0355632
0.0361428
0.0384595
0.0381998
0.0359881
0.035493
0.0352997
0.0352332
0.0352997
0.035493
0.0357936
0.0363722
0.0386874
0.038728
0.0365145
0.0360192
0.0358251
0.0357576
0.035823
0.036015
0.0363146
0.036892
0.0392069
0.0409761
0.0387633
0.038266
0.0380708
0.038002
0.0380657
0.038256
0.0385541
0.0391313
0.0414428
0.038065
0.036686
0.0367333
0.0365476
0.0364842
0.0365567
0.0367593
0.0370648
0.0370998
0.038597
0.0366334
0.0352537
0.0353045
0.0351186
0.0350556
0.0351288
0.0353326
0.03564
0.0356729
0.0371726
0.0366439
0.0352674
0.0353176
0.0351321
0.0350696
0.0351435
0.0353481
0.0356562
0.035691
0.0371883
0.0364003
0.035023
0.0350734
0.0348882
0.0348259
0.0349002
0.0351051
0.0354136
0.0354488
0.0369472
0.0362656
0.0348878
0.034938
0.0347527
0.0346902
0.0347642
0.034969
0.0352773
0.0353127
0.0368108
0.0362597
0.0348812
0.0349311
0.0347452
0.0346819
0.0347551
0.034959
0.0352664
0.0353013
0.0367979
0.036383
0.0350037
0.0350532
0.0348663
0.0348019
0.0348737
0.035076
0.035382
0.0354157
0.03691
0.0366171
0.0352374
0.0352863
0.0350983
0.0350325
0.0351027
0.0353034
0.0356078
0.0356404
0.0371317
0.0366017
0.0352182
0.0352675
0.0350787
0.0350119
0.0350809
0.0352801
0.0355834
0.0356139
0.0371067
0.0380213
0.0366374
0.0366828
0.0364932
0.0364249
0.0364919
0.0366889
0.0369896
0.0370218
0.0385115
0.0355919
0.0348141
0.0351866
0.0350229
0.0350231
0.0351053
0.0352635
0.0355663
0.0352799
0.0362026
0.0347514
0.0339765
0.0343548
0.0341899
0.0341913
0.0342749
0.0344348
0.0347416
0.034452
0.0353755
0.0350874
0.0343178
0.0346947
0.0345307
0.0345327
0.0346173
0.0347787
0.0350866
0.0348005
0.0357205
0.0348577
0.0340863
0.0344637
0.0343001
0.0343025
0.0343876
0.0345497
0.0348583
0.0345731
0.035496
0.0347777
0.0340058
0.034383
0.0342191
0.0342211
0.034306
0.0344679
0.0347765
0.0344919
0.035414
0.0347708
0.0339979
0.0343748
0.03421
0.0342108
0.0342944
0.034455
0.0347622
0.0344768
0.0353966
0.0348376
0.0340632
0.0344395
0.0342734
0.0342725
0.034354
0.0345121
0.0348169
0.0345297
0.0354458
0.0350556
0.0342815
0.0346567
0.0344888
0.034486
0.0345651
0.0347205
0.0350228
0.0347336
0.0356441
0.0347151
0.0339347
0.0343113
0.0341421
0.0341379
0.0342153
0.0343686
0.0346691
0.0343764
0.0352894
0.0355391
0.0347541
0.0351242
0.0349547
0.034948
0.0350225
0.0351729
0.0354689
0.0351795
0.0360919
0.0342921
0.0337506
0.0341486
0.0339807
0.0340626
0.0341611
0.0342693
0.034608
0.034311
0.0350362
0.0336753
0.0331396
0.0335444
0.0333749
0.0334595
0.0335608
0.0336718
0.0340181
0.0337196
0.0344473
0.0340334
0.033504
0.0339066
0.0337387
0.0338245
0.0339277
0.0340414
0.0343898
0.0340976
0.0348237
0.0337874
0.0332549
0.0336586
0.0334912
0.0335776
0.0336819
0.0337974
0.0341478
0.0338576
0.0345898
0.0337746
0.0332422
0.0336456
0.0334778
0.0335637
0.0336678
0.0337834
0.0341342
0.0338455
0.0345766
0.0337664
0.0332325
0.0336353
0.0334661
0.0335503
0.0336525
0.0337658
0.0341146
0.0338246
0.0345516
0.0337631
0.0332263
0.0336284
0.0334572
0.0335387
0.0336374
0.0337467
0.034091
0.0337975
0.0345183
0.0339945
0.0334584
0.0338585
0.0336847
0.0337632
0.0338579
0.0339624
0.0343018
0.0340049
0.0347151
0.0336317
0.0330881
0.0334903
0.0333142
0.0333906
0.0334825
0.0335834
0.0339199
0.0336168
0.0343283
0.0342263
0.0336745
0.0340691
0.0338928
0.0339648
0.0340524
0.0341496
0.0344786
0.0341786
0.0348901
0.0333645
0.0329407
0.0332892
0.033118
0.033263
0.0333846
0.0334741
0.0338615
0.0336389
0.0342981
0.0328509
0.0324352
0.0327909
0.0326182
0.0327684
0.0328952
0.0329905
0.033391
0.033172
0.0338418
0.0331542
0.0327448
0.0330978
0.0329277
0.0330798
0.0332102
0.0333107
0.0337157
0.0335074
0.0341819
0.0328885
0.0324752
0.0328299
0.0326604
0.0328138
0.0329465
0.0330508
0.0334609
0.0332578
0.0339453
0.0329193
0.0325065
0.0328609
0.0326907
0.0328436
0.0329764
0.0330815
0.0334933
0.0332941
0.0339814
0.0329094
0.0324944
0.0328479
0.0326757
0.032826
0.0329558
0.0330574
0.0334656
0.0332646
0.0339442
0.0328592
0.0324397
0.0327921
0.0326168
0.0327628
0.0328869
0.0329814
0.0333816
0.0331734
0.0338406
0.0331064
0.0326875
0.0330368
0.0328579
0.0329989
0.0331164
0.0332025
0.0335932
0.0333775
0.0340258
0.0327981
0.0323715
0.0327235
0.0325408
0.0326787
0.0327915
0.0328713
0.0332562
0.0330303
0.0336746
0.0332838
0.0328455
0.0331893
0.0330061
0.033137
0.0332433
0.0333177
0.0336916
0.0334664
0.0341117
0.0323216
0.0320174
0.0323462
0.0321975
0.0323905
0.0325412
0.0326398
0.0330643
0.0328969
0.0335071
0.0319116
0.0316184
0.0319548
0.0318055
0.0320071
0.0321676
0.0322776
0.0327243
0.0325702
0.033208
0.0321886
0.0319016
0.0322353
0.03209
0.032295
0.0324617
0.0325813
0.0330379
0.0329024
0.0335594
0.0319262
0.0316347
0.031971
0.0318265
0.032034
0.0322054
0.0323328
0.032801
0.0326792
0.0333642
0.0319816
0.0316908
0.0320265
0.0318813
0.0320886
0.0322609
0.0323908
0.0328639
0.0327511
0.0334412
0.0319697
0.0316759
0.0320104
0.0318623
0.0320657
0.0322333
0.0323577
0.032825
0.0327083
0.033384
0.0318913
0.0315912
0.0319241
0.0317712
0.0319679
0.0321262
0.0322384
0.0326907
0.0325589
0.0332067
0.0321309
0.0318306
0.0321593
0.0320011
0.0321899
0.0323374
0.032435
0.0328687
0.0327207
0.0333312
0.0318492
0.0315406
0.0318719
0.0317084
0.0318925
0.0320323
0.0321188
0.032541
0.0323754
0.0329733
0.032225
0.0319011
0.032224
0.0320588
0.0322329
0.0323632
0.0324413
0.0328474
0.0326814
0.0332809
0.0311782
0.0309871
0.0313098
0.0311999
0.0314343
0.0316196
0.0317451
0.0322072
0.0320964
0.0326865
0.0308641
0.0306873
0.0310185
0.0309103
0.0311581
0.0313602
0.0315073
0.0320055
0.0319218
0.0325728
0.0311284
0.0309578
0.0312869
0.0311844
0.0314378
0.0316505
0.0318145
0.0323326
0.0322818
0.0329847
0.0308837
0.0307085
0.0310411
0.0309401
0.0311983
0.0314197
0.0315991
0.0321421
0.0321243
0.0328944
0.0309542
0.0307795
0.0311114
0.0310099
0.0312682
0.031492
0.0316776
0.0322322
0.0322371
0.0330296
0.0309404
0.0307616
0.0310919
0.0309861
0.0312388
0.0314553
0.031632
0.0321765
0.0321747
0.032937
0.0308434
0.0306563
0.0309843
0.0308713
0.0311137
0.0313152
0.0314705
0.0319863
0.0319517
0.0326467
0.031061
0.030872
0.0311943
0.0310737
0.0313039
0.0314876
0.0316175
0.0320983
0.0320259
0.0326453
0.0307923
0.030595
0.0309196
0.0307916
0.0310145
0.0311857
0.0312967
0.0317548
0.0316519
0.0322378
0.0310668
0.0308494
0.0311647
0.0310329
0.0312423
0.0314002
0.031498
0.0319357
0.0318301
0.0324316
0.030032
0.0299279
0.0302344
0.0301637
0.0304319
0.0306537
0.0308207
0.0313372
0.0313171
0.0319501
0.0297875
0.0297008
0.0300168
0.0299514
0.0302395
0.0304887
0.0306925
0.0312657
0.0312897
0.0320285
0.0300301
0.0299494
0.0302642
0.0302067
0.0305037
0.03077
0.0310024
0.031614
0.0317022
0.0325704
0.0298037
0.0297185
0.0300379
0.029983
0.0302883
0.0305703
0.0308315
0.0314948
0.0316638
0.0327014
0.0298814
0.0297963
0.0301151
0.0300598
0.0303661
0.030653
0.0309271
0.031618
0.0318412
0.0329564
0.0298657
0.0297749
0.0300915
0.0300302
0.0303282
0.0306039
0.0308636
0.0315377
0.0317463
0.0327989
0.0297581
0.0296567
0.0299701
0.0298983
0.0301808
0.0304323
0.0306549
0.0312736
0.0314051
0.0322884
0.0299525
0.0298471
0.030153
0.0300703
0.0303345
0.0305578
0.0307371
0.0312875
0.0313342
0.0320379
0.029707
0.0295926
0.0298999
0.0298074
0.0300606
0.0302646
0.030412
0.0309197
0.0309107
0.0315467
0.0299057
0.0297673
0.0300651
0.0299661
0.0302022
0.0303879
0.030517
0.0309995
0.0310001
0.0316869
0.0288837
0.0288432
0.0291243
0.0290885
0.0293805
0.0296368
0.0298506
0.0304407
0.0305682
0.0313243
0.0286864
0.0286664
0.0289585
0.0289328
0.0292534
0.0295512
0.0298238
0.0304969
0.0306678
0.0315365
0.0289007
0.0288864
0.0291787
0.0291635
0.0294977
0.0298217
0.0301403
0.0308838
0.0311757
0.0323514
0.0286906
0.0286721
0.0289703
0.0289596
0.0293068
0.0296568
0.0300268
0.0308708
0.0313452
0.0329538
0.028769
0.0287497
0.0290474
0.0290365
0.0293859
0.0297447
0.0301388
0.0310394
0.0316444
0.0334926
0.0287516
0.0287248
0.0290195
0.0290001
0.0293373
0.0296786
0.0300491
0.0309204
0.0315029
0.033228
0.0286405
0.0286003
0.0288905
0.0288563
0.0291707
0.029474
0.0297814
0.0305473
0.0309591
0.0322513
0.0288146
0.0287674
0.0290478
0.0289984
0.0292861
0.0295462
0.0297806
0.0304218
0.030639
0.0314925
0.0285989
0.0285429
0.0288237
0.0287615
0.0290334
0.0292642
0.0294478
0.0300132
0.0301295
0.030843
0.0287457
0.0286609
0.0289319
0.0288598
0.0291106
0.0293188
0.0294798
0.0300223
0.0301738
0.0310762
0.0276947
0.0277039
0.0279573
0.0279512
0.028254
0.0285327
0.0287818
0.0294423
0.0298299
0.0308269
0.0275334
0.0275658
0.0278317
0.0278417
0.028183
0.0285207
0.0288544
0.0296223
0.0300041
0.0308786
0.0277213
0.0277589
0.0280267
0.0280499
0.0284101
0.0287854
0.0291897
0.0300763
0.0306956
0.0323218
0.0275279
0.0275617
0.0278368
0.0278665
0.0282459
0.0286617
0.0291513
0.030219
0.0312408
0.033948
0.0276031
0.0276348
0.0279095
0.0279391
0.0283219
0.0287516
0.0292809
0.0304555
0.0317773
0.0351764
0.0275843
0.0276061
0.0278768
0.0278947
0.0282603
0.0286633
0.0291535
0.0302836
0.0315751
0.0347655
0.0274742
0.0274798
0.0277443
0.027742
0.0280755
0.0284212
0.0288088
0.0297533
0.0306638
0.0327395
0.0276272
0.0276223
0.0278748
0.0278519
0.0281485
0.0284307
0.0287035
0.0294264
0.0298946
0.0307937
0.0274407
0.0274261
0.0276776
0.0276385
0.0279132
0.0281546
0.028352
0.0289435
0.0292225
0.0299249
0.0275461
0.0274996
0.0277415
0.0276893
0.0279401
0.028157
0.028333
0.0289083
0.0293134
0.030597
0.0264395
0.0264877
0.0267121
0.0267284
0.0270254
0.0273056
0.0275581
0.0282039
0.0288042
0.0303441
0.0263079
0.026382
0.0266209
0.0266599
0.027006
0.0273632
0.027725
0.0284978
0.0289532
0.029537
0.0264739
0.0265529
0.0267954
0.0268499
0.0272204
0.0276276
0.0280917
0.029051
0.0298584
0.0320696
0.0262985
0.026374
0.0266251
0.0266886
0.0270852
0.0275495
0.0281414
0.0293776
0.0308639
0.0353687
0.026369
0.0264407
0.0266917
0.0267547
0.0271555
0.0276381
0.0282855
0.0296827
0.031706
0.0377935
0.0263494
0.0264085
0.0266544
0.0267016
0.0270788
0.0275227
0.0281071
0.0294347
0.0314653
0.0372303
0.0262434
0.0262833
0.0265209
0.0265419
0.026876
0.0272396
0.0276674
0.0287039
0.030109
0.0335074
0.0263757
0.0264012
0.0266246
0.0266188
0.0269045
0.0271817
0.0274417
0.0281294
0.028742
0.0295793
0.0262142
0.0262302
0.0264511
0.0264257
0.026683
0.0269068
0.027066
0.0275548
0.0278292
0.0284355
0.0262878
0.0262676
0.026479
0.0264375
0.0266692
0.02687
0.0270195
0.027511
0.0280227
0.0301298
0.0251195
0.0251967
0.0253891
0.0254181
0.0256898
0.0259373
0.0261334
0.0265998
0.0268438
0.0278428
0.0250129
0.0251185
0.025327
0.0253845
0.0257146
0.0260538
0.0263804
0.0269986
0.0270508
0.0265009
0.0251602
0.0252698
0.025483
0.0255573
0.0259149
0.0263117
0.0267672
0.0276408
0.0280735
0.0296894
0.0250027
0.0251089
0.0253318
0.0254164
0.0258045
0.0262686
0.0268793
0.0280836
0.0291917
0.0339101
0.0250679
0.0251684
0.0253911
0.0254733
0.025864
0.026345
0.0270086
0.0283647
0.0300214
0.0366656
0.0250484
0.0251334
0.0253498
0.0254114
0.0257711
0.0262014
0.0267699
0.0280051
0.0297549
0.0360721
0.0249488
0.0250119
0.0252184
0.0252479
0.0255548
0.0258871
0.0262527
0.0271253
0.0283139
0.0319945
0.0250612
0.0251062
0.0252966
0.0252939
0.0255431
0.0257715
0.0259314
0.0263788
0.026663
0.0271389
0.024923
0.0249578
0.0251445
0.0251193
0.025334
0.0254979
0.0255427
0.0257382
0.0254248
0.0251512
0.0249694
0.0249658
0.025144
0.0251009
0.0252901
0.025435
0.0254958
0.025713
0.0255668
0.0274607
0.0237338
0.0238296
0.0239857
0.0240174
0.0242489
0.0244327
0.0245207
0.02475
0.0243539
0.0235108
0.0236481
0.0237744
0.0239478
0.0240127
0.0243095
0.0245969
0.024839
0.0252947
0.0249911
0.0235717
0.0237784
0.0239076
0.0240864
0.0241674
0.0244918
0.0248376
0.0252177
0.0259981
0.0261238
0.0277198
0.0236381
0.0237639
0.0239527
0.0240437
0.0243986
0.0248091
0.0253327
0.0264182
0.0269133
0.0312985
0.0236986
0.0238165
0.0240048
0.0240903
0.0244416
0.0248565
0.0253956
0.0265124
0.0271506
0.0325259
0.0236805
0.0237806
0.0239617
0.0240215
0.0243339
0.0246875
0.0250963
0.0259725
0.0266037
0.0310156
0.0235901
0.0236662
0.0238367
0.02386
0.0241136
0.024366
0.024562
0.0250489
0.0254403
0.0279214
0.0236863
0.0237412
0.0238951
0.0238826
0.0240736
0.0242186
0.0242113
0.0242941
0.0239742
0.0234476
0.0235704
0.0236162
0.0237658
0.0237293
0.0238819
0.0239528
0.023826
0.0236552
0.0224911
0.0204161
0.0235988
0.0236035
0.0237461
0.0236911
0.0238202
0.0238737
0.0237858
0.0236763
0.022377
0.0220578
0.022292
0.0223985
0.022517
0.0225472
0.0227401
0.0228684
0.0228568
0.0229538
0.0223824
0.0202641
0.0222246
0.0223629
0.022499
0.0225654
0.0228278
0.0230692
0.0232351
0.0236452
0.0233715
0.0220161
0.0223394
0.0224791
0.0226202
0.0227001
0.0229871
0.0232812
0.0235782
0.0243584
0.0245121
0.0270571
0.0222153
0.0223515
0.0225023
0.0225898
0.0229016
0.0232449
0.0236364
0.024635
0.0248294
0.0292478
0.022272
0.0223983
0.0225482
0.022625
0.0229211
0.0232425
0.0235708
0.0243888
0.024078
0.026868
0.022257
0.0223638
0.0225064
0.0225533
0.0228001
0.0230479
0.0232123
0.0236052
0.0230184
0.0237899
0.0221781
0.0222604
0.0223936
0.0224025
0.0225888
0.0227468
0.0227396
0.022749
0.0222311
0.0225971
0.022261
0.0223204
0.0224381
0.0224111
0.0225371
0.0225998
0.0224337
0.0221487
0.0213291
0.0198387
0.0221672
0.0222182
0.0223317
0.0222807
0.0223685
0.0223508
0.0220641
0.02162
0.0200061
0.0164672
0.0221815
0.0221913
0.0223003
0.022232
0.0223013
0.0222653
0.0220298
0.0217507
0.0198502
0.0174695
0.0207949
0.020904
0.0209846
0.0210116
0.0211763
0.0212884
0.0212366
0.0213136
0.0210332
0.018761
0.0207432
0.0208852
0.0209826
0.0210467
0.0212819
0.0215096
0.0216421
0.0220764
0.0220702
0.0219679
0.0208439
0.0209854
0.0210867
0.0211605
0.0214156
0.0216917
0.0219505
0.0228107
0.023334
0.028664
0.0207355
0.0208734
0.0209839
0.0210621
0.0213348
0.0216461
0.0219553
0.0229737
0.0234749
0.0299743
0.0207898
0.0209167
0.0210262
0.021089
0.0213311
0.02159
0.0217564
0.0223752
0.0219617
0.023904
0.0207798
0.0208871
0.0209907
0.0210217
0.0212049
0.0213758
0.0213678
0.0214035
0.0205351
0.0196968
0.0207152
0.0207994
0.0208969
0.0208934
0.0210196
0.0211164
0.0210165
0.0207127
0.0198718
0.0196885
0.0207894
0.0208509
0.0209367
0.0209014
0.0209765
0.0209988
0.020801
0.0203357
0.0193943
0.0180511
0.0207173
0.0207735
0.0208569
0.0208002
0.0208429
0.0207884
0.0204592
0.0199463
0.0184974
0.0144062
0.0207261
0.0207415
0.0208241
0.0207533
0.0207881
0.0207213
0.0204391
0.0202292
0.0185989
0.0151049
0.0192588
0.0193631
0.0194076
0.0194317
0.019577
0.0197122
0.019696
0.0198076
0.0198939
0.0179899
0.0192212
0.0193589
0.0194177
0.0194767
0.019687
0.0199275
0.020067
0.0205077
0.0206202
0.0220768
0.0193087
0.0194439
0.019505
0.0195693
0.0197956
0.0200854
0.0203585
0.0212851
0.0220258
0.0308482
0.0192154
0.0193476
0.0194178
0.0194853
0.0197256
0.0200506
0.0203747
0.0214529
0.0224475
0.0329118
0.0192691
0.0193903
0.0194609
0.0195113
0.019711
0.0199629
0.0201108
0.0206614
0.0207139
0.0250614
0.019266
0.0193696
0.0194374
0.0194593
0.0195972
0.0197485
0.0197532
0.019689
0.0192242
0.0199972
0.0192178
0.0193024
0.0193698
0.0193662
0.0194578
0.019546
0.0195347
0.0192309
0.0183994
0.0188642
0.0192863
0.0193508
0.0194125
0.0193855
0.0194411
0.0194771
0.0194086
0.0190551
0.018213
0.0171945
0.0192354
0.019298
0.0193602
0.0193166
0.0193497
0.0193258
0.0191089
0.018761
0.0179464
0.0140334
0.0192424
0.0192674
0.0193343
0.0192816
0.0193219
0.0193061
0.0191228
0.0191758
0.0184174
0.0145238
0.0176908
0.0177798
0.0177866
0.0177999
0.0179157
0.0180804
0.0181374
0.0182911
0.0187273
0.0174377
0.0176651
0.0177864
0.0178023
0.0178419
0.0180041
0.0182363
0.0183599
0.0186966
0.0185093
0.02054
0.0177397
0.0178562
0.0178717
0.0179104
0.0180809
0.0183559
0.0186062
0.0193901
0.0195594
0.0303361
0.0176605
0.0177756
0.0178003
0.0178431
0.0180281
0.018345
0.0186842
0.0196367
0.0203384
0.0342877
0.0177151
0.017821
0.0178488
0.0178783
0.0180234
0.0182615
0.0184531
0.0188962
0.0187023
0.026486
0.0177205
0.0178133
0.017844
0.0178557
0.0179521
0.0180917
0.0182091
0.0181764
0.0175937
0.0203793
0.0176905
0.0177714
0.0178103
0.0178126
0.0178876
0.0179818
0.0181418
0.0180701
0.0171414
0.0179125
0.0177573
0.0178234
0.0178651
0.0178584
0.0179221
0.0180002
0.0181463
0.0181608
0.0176921
0.0169531
0.0177271
0.0177968
0.0178441
0.0178295
0.017886
0.0179438
0.0179635
0.0179959
0.0182703
0.0152797
0.0177392
0.0177766
0.0178363
0.0178211
0.0179042
0.0180075
0.0180533
0.0184907
0.0190719
0.0156203
0.0161118
0.0161721
0.0161388
0.0161288
0.0161933
0.0163649
0.016517
0.016764
0.0179357
0.0189037
0.016095
0.016185
0.0161523
0.0161514
0.0162238
0.0163873
0.0164381
0.0165942
0.0159243
0.0176883
0.0161566
0.0162393
0.0162022
0.0161912
0.0162546
0.0164308
0.0165537
0.016922
0.0155092
0.0248282
0.0160905
0.016174
0.0161461
0.0161411
0.0162202
0.0164361
0.0166804
0.0172175
0.016194
0.0298409
0.0161469
0.0162252
0.0162044
0.0161952
0.0162497
0.0163922
0.0165452
0.0167535
0.0147597
0.0225333
0.0161617
0.0162342
0.0162241
0.0162157
0.0162571
0.0163337
0.016512
0.01656
0.0149306
0.0177027
0.0161508
0.0162214
0.0162302
0.0162357
0.0162997
0.0163823
0.0166801
0.0169892
0.0161222
0.0174974
0.016218
0.0162817
0.0163039
0.0163203
0.0164098
0.0165425
0.0169151
0.0174722
0.0180722
0.0189585
0.0162062
0.0162795
0.0163129
0.0163332
0.0164342
0.0166016
0.0169313
0.0174873
0.0195066
0.019414
0.0162266
0.0162746
0.0163289
0.0163589
0.0165033
0.0167562
0.0171193
0.0179762
0.0204546
0.019816
0.0145372
0.014555
0.0144793
0.0144313
0.0144142
0.0145482
0.0148356
0.0151978
0.0173403
0.0266088
0.0145264
0.0145683
0.0144813
0.0144159
0.0143486
0.0143637
0.0143045
0.0142123
0.0133031
0.0182101
0.0145741
0.0146055
0.014509
0.0144202
0.0143151
0.0142792
0.0141643
0.0139407
0.010532
0.0184694
0.0145192
0.0145539
0.0144654
0.0143829
0.0142903
0.0142655
0.0142409
0.0141417
0.0104636
0.0216133
0.0145773
0.0146124
0.0145349
0.0144598
0.0143688
0.0142822
0.0141812
0.0140916
0.00971586
0.0154225
0.0146009
0.0146398
0.014582
0.0145313
0.0144835
0.0144047
0.0144664
0.0146497
0.0120159
0.0156586
0.0146081
0.0146575
0.0146301
0.0146213
0.0146567
0.0146808
0.0150099
0.0157421
0.0154949
0.021873
0.0146766
0.0147285
0.0147256
0.0147514
0.0148569
0.0150201
0.0155731
0.0166173
0.0187862
0.0274904
0.0146802
0.0147475
0.0147599
0.0148018
0.0149347
0.015181
0.0158137
0.01676
0.0205746
0.0302029
0.0147107
0.0147609
0.0148014
0.014862
0.0150461
0.0154
0.0160779
0.0171578
0.0213988
0.0306045
0.0129911
0.0129545
0.0128381
0.0127413
0.0126216
0.0126422
0.0130522
0.0137208
0.0149176
0.0349235
0.0129826
0.012963
0.0128223
0.0126789
0.0124425
0.0122271
0.0120554
0.0119701
0.00992339
0.022158
0.013016
0.0129825
0.0128271
0.0126472
0.0123392
0.0119911
0.0116033
0.0110782
0.00480497
0.0123487
0.0129699
0.012942
0.0127926
0.0126161
0.0123136
0.011934
0.0115214
0.0110314
0.00349991
0.00867322
0.0130284
0.0130071
0.0128715
0.0127125
0.0124449
0.0120381
0.0115264
0.0114843
0.00497101
0.00822718
0.0130584
0.0130516
0.0129433
0.0128312
0.0126726
0.0123837
0.0121961
0.0128803
0.00973643
0.0172997
0.0130806
0.013097
0.0130282
0.0129831
0.0129673
0.0128903
0.0131626
0.0145539
0.0145444
0.0308132
0.0131495
0.0131776
0.0131412
0.0131505
0.0132397
0.0133688
0.0140231
0.0156209
0.017901
0.0392704
0.0131622
0.0132099
0.0131888
0.0132206
0.0133397
0.0135552
0.0143812
0.0157175
0.018904
0.0416089
0.0132027
0.0132391
0.0132481
0.0133007
0.0134607
0.0137577
0.0146045
0.0158064
0.0187131
0.0388729
0.0303317
0.0327415
0.031116
0.0269766
0.0241822
0.0233498
0.0234211
0.0235855
0.0240122
0.023453
0.0299171
0.0337327
0.0305128
0.0252733
0.0224966
0.021984
0.0224606
0.0230547
0.023936
0.0240812
0.03364
0.0353179
0.0299978
0.0246086
0.0218136
0.0211024
0.0214885
0.0221342
0.0231597
0.0230471
0.0368323
0.0366154
0.0311781
0.0260279
0.0226056
0.0210958
0.0210283
0.0215134
0.0224827
0.0220324
0.0389687
0.0374381
0.0328252
0.0283151
0.0244727
0.022119
0.0213185
0.021318
0.0219626
0.0215382
0.0380099
0.0361991
0.0325577
0.0285327
0.0247051
0.0221882
0.0210202
0.0205494
0.0208748
0.02032
0.033282
0.0318428
0.0286353
0.0251158
0.0220683
0.0201248
0.0191351
0.0186578
0.0190488
0.0182999
0.028648
0.0278285
0.0248522
0.0220409
0.0198919
0.0184937
0.0177798
0.0174549
0.0178653
0.0166196
0.0278872
0.0282266
0.0255027
0.0224904
0.0202936
0.0189015
0.0181641
0.0177594
0.0180392
0.0167123
0.029971
0.0308434
0.0282324
0.0245797
0.0217488
0.0199049
0.0188519
0.0182811
0.0185162
0.0174159
0.0275623
0.0277969
0.0253673
0.0221104
0.0203948
0.0203676
0.021389
0.0226685
0.02409
0.0252685
0.0271435
0.0267731
0.0229711
0.0197276
0.0181169
0.0182883
0.0197107
0.0214382
0.0233654
0.0245125
0.0315598
0.027976
0.0233947
0.0200023
0.017941
0.0177498
0.0189392
0.0206056
0.0224965
0.0235418
0.0345703
0.0299577
0.0254527
0.0217616
0.0191401
0.018147
0.0186338
0.0200565
0.0218677
0.0230508
0.0358823
0.0314918
0.0275333
0.0239278
0.0210672
0.0195069
0.019298
0.0200397
0.0214129
0.0225881
0.0341803
0.0306248
0.0272579
0.0238654
0.0211398
0.01964
0.0190871
0.0192278
0.0202271
0.0213217
0.0295563
0.0262092
0.0230223
0.020278
0.0184295
0.0175601
0.0172035
0.0173
0.0183497
0.0193693
0.0252242
0.0220345
0.0192946
0.0175291
0.0165012
0.0160817
0.0159965
0.0163328
0.0174187
0.0181804
0.0243026
0.0220369
0.0194123
0.0179222
0.0171984
0.0167321
0.0166762
0.0170501
0.0180151
0.0191911
0.0275204
0.0263752
0.0237297
0.0215103
0.0200741
0.0190215
0.0183792
0.0183046
0.0189319
0.0203487
0.0241357
0.0233046
0.0211595
0.0193304
0.0183521
0.0181831
0.0191122
0.0208257
0.0228117
0.0238211
0.0241071
0.0210068
0.0181975
0.0168984
0.0162749
0.0165006
0.0177499
0.0196206
0.0218638
0.0226952
0.0268674
0.0220112
0.0191382
0.017209
0.0157364
0.0154886
0.0165727
0.0184352
0.0207013
0.0216077
0.028905
0.0247162
0.0213665
0.0184799
0.0162831
0.0152314
0.0155289
0.0171599
0.0197335
0.0212192
0.0291957
0.0267356
0.0232533
0.0201443
0.0176976
0.0161331
0.0157308
0.016788
0.0193341
0.0210525
0.0267388
0.0253715
0.0225533
0.0198687
0.0178086
0.0165636
0.0159139
0.0164961
0.0186932
0.0202332
0.0231103
0.0209879
0.0188399
0.0172719
0.0161964
0.0157921
0.0155286
0.0159321
0.0175456
0.0187487
0.0201687
0.0177217
0.0159818
0.0154585
0.015302
0.0153643
0.0154958
0.0158271
0.0169663
0.0178642
0.0197587
0.0178546
0.0164184
0.0163702
0.0165363
0.0164872
0.0163467
0.0166197
0.0177191
0.0190823
0.0232346
0.0218597
0.0203823
0.0199116
0.0195152
0.0185925
0.017693
0.0177738
0.0188652
0.0205105
0.0214132
0.0199332
0.0182597
0.0174814
0.0168069
0.0162235
0.016675
0.0182102
0.0201997
0.0206412
0.0208996
0.0171332
0.0153967
0.0152083
0.0149854
0.014796
0.0154646
0.0170298
0.0192078
0.0196127
0.0222399
0.0187234
0.016333
0.0150434
0.0138227
0.0130592
0.0136432
0.0153303
0.0175906
0.0179866
0.0236572
0.0215805
0.0184393
0.0158217
0.013409
0.0115364
0.0114291
0.0131531
0.0160567
0.0171749
0.0225502
0.0226534
0.0193808
0.0166789
0.0139862
0.0116569
0.0108837
0.0122877
0.0155351
0.0173134
0.0192133
0.0197771
0.0183394
0.0163337
0.014051
0.0122557
0.011421
0.0123617
0.0154063
0.0172428
0.0169427
0.016113
0.0160541
0.0154204
0.0140603
0.0129445
0.0121636
0.0127878
0.0152704
0.0166171
0.0156829
0.0144499
0.0145189
0.0152598
0.0150852
0.014486
0.0139752
0.01437
0.015865
0.0166346
0.0158911
0.0152651
0.0156957
0.0171228
0.0177897
0.0171803
0.0162652
0.016085
0.016989
0.0178608
0.0193894
0.0189134
0.0193488
0.0205136
0.0205277
0.0189843
0.0171474
0.0165679
0.0175392
0.0186125
0.0199756
0.0176642
0.0163984
0.0162632
0.0153467
0.0141272
0.0141272
0.0154441
0.0173638
0.0177744
0.0190152
0.0148406
0.0137883
0.014167
0.0136046
0.0124625
0.0127466
0.0142945
0.0164194
0.0166434
0.0207476
0.0170605
0.0144419
0.0134538
0.0117752
0.0101408
0.01078
0.0126754
0.0145988
0.0144613
0.0220126
0.0200439
0.0167651
0.0139335
0.0105984
0.0079082
0.00815068
0.0102771
0.0127201
0.0131042
0.0190197
0.0199665
0.0171945
0.0141045
0.0102983
0.00737947
0.00694503
0.00887591
0.011945
0.0131098
0.0154131
0.0164242
0.0161314
0.0139412
0.010424
0.00802648
0.0073588
0.00876042
0.0119212
0.0132998
0.0141696
0.0141402
0.0149767
0.0141631
0.0115424
0.0095326
0.00846503
0.00928845
0.012101
0.0132238
0.0135183
0.0134594
0.0147804
0.0154469
0.0139043
0.0119478
0.0106614
0.011131
0.0133131
0.0142213
0.0132189
0.0142857
0.0163758
0.0180369
0.0176334
0.0156727
0.0140249
0.013871
0.0151814
0.0161318
0.0168692
0.0173125
0.0190984
0.020885
0.0203681
0.0182003
0.0159116
0.0148809
0.0155986
0.0163266
0.0187197
0.016212
0.0157492
0.0159249
0.0138981
0.0117803
0.0117176
0.0132992
0.0152658
0.0154634
0.0172906
0.0135223
0.0131552
0.0136591
0.0115154
0.00957825
0.0102496
0.0123578
0.0145379
0.0144347
0.0207656
0.0164361
0.0135711
0.012228
0.00882676
0.00696091
0.00857496
0.0113918
0.0130151
0.012185
0.0230911
0.0202953
0.0164647
0.0127226
0.00765391
0.00483824
0.00632225
0.00934622
0.0111281
0.0104003
0.0195182
0.0196598
0.0169849
0.0128583
0.00750258
0.00418493
0.00483478
0.00766439
0.0101218
0.0098409
0.0155915
0.0158164
0.015898
0.01294
0.00793167
0.00473026
0.00469786
0.00715304
0.0100349
0.00983254
0.0139656
0.0139
0.0149059
0.0136742
0.00971736
0.00668572
0.00558546
0.00723266
0.010303
0.00990042
0.012591
0.0134752
0.0150919
0.0156079
0.0122336
0.00929908
0.00749735
0.00835739
0.0113101
0.0112943
0.0117451
0.0137628
0.0163602
0.0179534
0.015717
0.0129583
0.0108256
0.0108362
0.0129339
0.013566
0.0151116
0.0156884
0.0179639
0.0197893
0.0183842
0.0157173
0.0134653
0.01265
0.0135138
0.0136598
0.0163496
0.0153623
0.016093
0.0162789
0.0128974
0.0100984
0.0102239
0.012443
0.0144988
0.0139789
0.0143406
0.0124854
0.0133693
0.0136808
0.00959664
0.00742541
0.00879393
0.0118429
0.0141121
0.0133524
0.0198897
0.0160061
0.0136914
0.0117669
0.00660078
0.00492646
0.00764415
0.0116504
0.0132081
0.0114923
0.0243159
0.0210236
0.0173616
0.0127054
0.00614019
0.00338448
0.00613035
0.0103132
0.0115441
0.00939491
0.0201154
0.019843
0.0180315
0.0133705
0.00658641
0.00300916
0.00487962
0.0088303
0.0103656
0.00785455
0.0149346
0.0156607
0.0166267
0.0136486
0.00753851
0.00374454
0.00450645
0.00815387
0.0101062
0.00712593
0.0127634
0.0137672
0.0155603
0.0144013
0.00995857
0.00588219
0.00485165
0.00773425
0.0101954
0.00705733
0.0116052
0.0132618
0.0153235
0.0161275
0.0125693
0.00841968
0.00595754
0.00774135
0.0107534
0.00880859
0.0113263
0.0130635
0.0156575
0.0175071
0.0151235
0.0113856
0.00860133
0.00906025
0.0116158
0.0110271
0.0140298
0.0140259
0.0163867
0.0185725
0.0170984
0.0136127
0.0113306
0.0108562
0.0118283
0.0110989
0.0152289
0.0153918
0.0170387
0.0183956
0.0151661
0.0106252
0.0106478
0.0133623
0.0160579
0.0150471
0.0109019
0.0117429
0.0145934
0.0160942
0.0114369
0.00782326
0.00956377
0.0132373
0.0160179
0.0148064
0.0156126
0.0147733
0.01545
0.0142054
0.0080402
0.00610021
0.00950881
0.0139196
0.0156931
0.0134174
0.0210999
0.0199177
0.0192691
0.0152426
0.00793377
0.00528921
0.0089283
0.0135569
0.0144312
0.0108839
0.0159956
0.0173777
0.019268
0.0163106
0.00878149
0.00522098
0.00813345
0.0127681
0.0130602
0.00741888
0.011259
0.0138196
0.0170283
0.0167456
0.0104687
0.00632462
0.00768065
0.0119024
0.011605
0.00475344
0.0106235
0.0125072
0.0157512
0.0171829
0.0133344
0.00839253
0.00714268
0.0102956
0.0101219
0.00419946
0.0115149
0.0125311
0.0153735
0.0180524
0.0158358
0.0105428
0.0070545
0.00913076
0.0101918
0.00652022
0.0128164
0.0127662
0.0150282
0.0184378
0.0181387
0.0131072
0.00889245
0.00950394
0.0112989
0.00961786
0.0154463
0.0138138
0.0156158
0.0200058
0.0197951
0.0149162
0.0119266
0.0115002
0.0118703
0.0101073
0.0247313
0.0190465
0.0199301
0.0241839
0.0225679
0.015337
0.0120884
0.013125
0.0176832
0.0204068
0.0121359
0.0140555
0.0182364
0.022904
0.019777
0.012525
0.0118688
0.0140401
0.0179303
0.0202071
0.0130223
0.0157934
0.0202778
0.0215056
0.0156398
0.0106698
0.0120417
0.0145456
0.0173533
0.0199237
0.0163906
0.0191501
0.023152
0.0215502
0.0144865
0.00963651
0.0113604
0.0142264
0.0156385
0.0177836
0.0115965
0.0155572
0.0226301
0.0226798
0.0154337
0.00980072
0.0106735
0.0134813
0.0130019
0.0137778
0.00973192
0.0133539
0.0204881
0.0238115
0.0181994
0.011709
0.0101054
0.010725
0.00927098
0.0108577
0.015815
0.013742
0.0187891
0.0243762
0.0214056
0.0140499
0.008645
0.00637345
0.00675924
0.011029
0.0214644
0.0158495
0.0182853
0.0246009
0.0232077
0.0153746
0.0068067
0.00385316
0.00714022
0.0139577
0.0247986
0.0171154
0.0175069
0.0247239
0.0251216
0.0177987
0.00906436
0.00595624
0.0101717
0.0174279
0.0273367
0.0188994
0.0192129
0.0267463
0.0265084
0.0198394
0.0128933
0.00949715
0.0123253
0.0185491
0.0565566
0.0318578
0.0257044
0.0285662
0.0282494
0.0230963
0.0161372
0.0119838
0.0287081
0.0738749
0.0345571
0.0244348
0.0250943
0.0286015
0.0274236
0.0218652
0.0164519
0.0134099
0.0305806
0.0783477
0.0240027
0.0241114
0.0262523
0.0276434
0.0254059
0.0215864
0.0176361
0.014111
0.0315956
0.0852921
0.0203695
0.0243382
0.0270425
0.0273444
0.0253771
0.0231868
0.0190865
0.0135689
0.030583
0.0887367
0.019032
0.0230687
0.0273106
0.028704
0.0275314
0.025954
0.0204675
0.0119931
0.0280722
0.0903996
0.0297548