/*--------------------------------*- C++ -*----------------------------------*\
  =========                 |
  \\      /  F ield         | OpenFOAM: The Open Source CFD Toolbox
   \\    /   O peration     | Website:  https://openfoam.org
    \\  /    A nd           | Version:  6
     \\/     M anipulation  |
\*---------------------------------------------------------------------------*/
FoamFile
{
    version     2.0;
    format      ascii;
    class       surfaceScalarField;
    location    "1600";
    object      phi;
}
// * * * * * * * * * * * * * * * * * * * * * * * * * * * * * * * * * * * * * //

dimensions      [0 3 -1 0 0 0 0];

internalField   nonuniform List<scalar> 
19500
(
1.54387e-07
1.5722e-07
9.96882e-05
1.58194e-08
1.57327e-07
9.99811e-05
9.35033e-09
1.57357e-07
9.98489e-05
3.39877e-09
1.57329e-07
9.98485e-05
-3.27594e-09
1.57301e-07
9.98492e-05
-9.64321e-09
1.57254e-07
9.9849e-05
-1.45914e-08
1.5719e-07
9.98476e-05
-1.93399e-08
1.57137e-07
9.98475e-05
-1.607e-07
1.5703e-07
9.99842e-05
1.56833e-07
9.96824e-05
1.54495e-07
1.75135e-08
9.9985e-05
1.57519e-08
1.74509e-08
0.000100278
9.34139e-09
1.7433e-08
0.000100146
3.37925e-09
1.74167e-08
0.000100146
-3.3071e-09
1.73959e-08
0.000100146
-9.68532e-09
1.73732e-08
0.000100146
-1.46396e-08
1.73504e-08
0.000100145
-1.93124e-08
1.73291e-08
0.000100144
-1.60892e-07
1.73109e-08
0.000100281
1.73383e-08
9.99785e-05
1.54535e-07
1.19799e-08
9.98508e-05
1.5734e-08
1.19888e-08
0.000100144
9.32045e-09
1.19769e-08
0.000100012
3.36167e-09
1.19645e-08
0.000100011
-3.33239e-09
1.19509e-08
0.000100012
-9.7156e-09
1.19361e-08
0.000100012
-1.46601e-08
1.19209e-08
0.00010001
-1.93293e-08
1.19066e-08
0.00010001
-1.60988e-07
1.18914e-08
0.000100147
1.18611e-08
9.98444e-05
1.54533e-07
6.66635e-09
9.98506e-05
1.57261e-08
6.68079e-09
0.000100144
9.30939e-09
6.68664e-09
0.000100012
3.35094e-09
6.68882e-09
0.000100011
-3.34558e-09
6.69142e-09
0.000100012
-9.73006e-09
6.69321e-09
0.000100012
-1.46723e-08
6.69393e-09
0.00010001
-1.93458e-08
6.69219e-09
0.00010001
-1.61008e-07
6.68254e-09
0.000100147
6.68247e-09
9.98441e-05
1.54556e-07
3.00389e-10
9.98516e-05
1.57249e-08
3.21363e-10
0.000100145
9.31095e-09
3.34897e-10
0.000100013
3.35492e-09
3.51941e-10
0.000100012
-3.34211e-09
3.73338e-10
0.000100013
-9.72733e-09
3.96649e-10
0.000100013
-1.46704e-08
4.19967e-10
0.000100011
-1.93517e-08
4.39217e-10
0.000100011
-1.61006e-07
4.53579e-10
0.000100148
4.87514e-10
9.98452e-05
1.54583e-07
-6.09824e-09
9.98516e-05
1.57338e-08
-6.07372e-09
0.000100145
9.32757e-09
-6.05495e-09
0.000100013
3.37617e-09
-6.02609e-09
0.000100012
-3.31877e-09
-5.98973e-09
0.000100013
-9.7036e-09
-5.94922e-09
0.000100013
-1.46507e-08
-5.90791e-09
0.000100011
-1.93444e-08
-5.87146e-09
0.000100011
-1.60956e-07
-5.83512e-09
0.000100148
-5.77289e-09
9.98453e-05
1.54611e-07
-1.15166e-08
9.98507e-05
1.57508e-08
-1.14959e-08
0.000100144
9.35602e-09
-1.14668e-08
0.000100012
3.41055e-09
-1.14328e-08
0.000100011
-3.28021e-09
-1.1392e-08
0.000100012
-9.66372e-09
-1.13482e-08
0.000100012
-1.46169e-08
-1.13049e-08
0.00010001
-1.9325e-08
-1.1267e-08
0.00010001
-1.60869e-07
-1.12325e-08
0.000100147
-1.11556e-08
9.98446e-05
1.54651e-07
-1.72254e-08
9.98509e-05
1.57688e-08
-1.71477e-08
0.000100144
9.3877e-09
-1.7124e-08
0.000100012
3.44759e-09
-1.71014e-08
0.000100012
-3.23847e-09
-1.70731e-08
0.000100012
-9.62064e-09
-1.70437e-08
0.000100012
-1.45809e-08
-1.70163e-08
0.000100011
-1.93e-08
-1.69916e-08
0.00010001
-1.60782e-07
-1.69649e-08
0.000100147
-1.6969e-08
9.98451e-05
1.54636e-07
-1.56663e-07
9.99846e-05
1.57909e-08
-1.56729e-07
0.000100278
9.41991e-09
-1.56735e-07
0.000100146
3.47988e-09
-1.56675e-07
0.000100145
-3.19785e-09
-1.56608e-07
0.000100146
-9.57616e-09
-1.56521e-07
0.000100146
-1.45495e-08
-1.56423e-07
0.000100144
-1.92751e-08
-1.56344e-07
0.000100144
-1.60652e-07
-1.56226e-07
0.000100281
-1.56011e-07
9.99784e-05
1.54569e-07
9.96886e-05
1.58717e-08
9.99818e-05
9.4504e-09
9.98496e-05
3.52557e-09
9.98492e-05
-3.14081e-09
9.985e-05
-9.5126e-09
9.98498e-05
-1.44849e-08
9.98485e-05
-1.92961e-08
9.98484e-05
-1.60439e-07
9.99849e-05
9.96836e-05
2.1776e-07
2.2479e-07
9.92449e-05
6.57271e-08
2.24997e-07
9.99074e-05
3.64757e-08
2.24761e-07
9.96527e-05
1.00038e-08
2.24751e-07
9.96495e-05
-1.02308e-08
2.24664e-07
9.96442e-05
-2.96127e-08
2.2453e-07
9.96433e-05
-5.36082e-08
2.24364e-07
9.96466e-05
-7.88205e-08
2.24159e-07
9.96479e-05
-2.34916e-07
2.24223e-07
9.99154e-05
2.23732e-07
9.92236e-05
2.17961e-07
7.15007e-08
9.99196e-05
6.57515e-08
7.15524e-08
0.000100583
3.64386e-08
7.14756e-08
0.000100328
9.89937e-09
7.1384e-08
0.000100325
-1.03667e-08
7.13013e-08
0.000100319
-2.97735e-08
7.1217e-08
0.000100318
-5.38076e-08
7.11426e-08
0.000100321
-7.9043e-08
7.11021e-08
0.000100322
-2.35438e-07
7.10674e-08
0.00010059
7.08777e-08
9.98957e-05
2.17742e-07
4.45512e-08
9.96592e-05
6.56715e-08
4.45813e-08
0.000100322
3.63801e-08
4.45465e-08
0.000100067
9.82218e-09
4.44696e-08
0.000100064
-1.04614e-08
4.43926e-08
0.000100059
-2.98713e-08
4.43138e-08
0.000100057
-5.3892e-08
4.42418e-08
0.000100061
-7.90857e-08
4.41833e-08
0.000100061
-2.35368e-07
4.40937e-08
0.00010033
4.39693e-08
9.96357e-05
2.17792e-07
1.97477e-08
9.96568e-05
6.55995e-08
1.97627e-08
0.00010032
3.63023e-08
1.97445e-08
0.000100065
9.74414e-09
1.97056e-08
0.000100062
-1.05397e-08
1.96679e-08
0.000100056
-2.99428e-08
1.96329e-08
0.000100055
-5.39494e-08
1.96048e-08
0.000100058
-7.91347e-08
1.95765e-08
0.000100059
-2.35522e-07
1.95278e-08
0.000100327
1.95527e-08
9.96328e-05
2.17823e-07
4.18015e-10
9.96524e-05
6.55672e-08
4.58463e-10
0.000100316
3.62646e-08
4.59188e-10
0.000100061
9.70625e-09
4.71686e-10
0.000100057
-1.05742e-08
4.99484e-10
0.000100052
-2.99705e-08
5.45429e-10
0.000100051
-5.39764e-08
6.09998e-10
0.000100054
-7.91652e-08
6.77712e-10
0.000100054
-2.35531e-07
7.44178e-10
0.000100323
9.34459e-10
9.96283e-05
2.17864e-07
-1.89228e-08
9.96524e-05
6.55706e-08
-1.88603e-08
0.000100316
3.6279e-08
-1.88397e-08
0.000100061
9.73454e-09
-1.87745e-08
0.000100058
-1.05275e-08
-1.86797e-08
0.000100052
-2.9905e-08
-1.85504e-08
0.000100051
-5.39052e-08
-1.83881e-08
0.000100054
-7.90954e-08
-1.82073e-08
0.000100055
-2.3536e-07
-1.80013e-08
0.000100323
-1.7642e-08
9.96287e-05
2.17912e-07
-4.37651e-08
9.96569e-05
6.56106e-08
-4.37263e-08
0.000100321
3.63464e-08
-4.36848e-08
0.000100065
9.83047e-09
-4.35769e-08
0.000100062
-1.0397e-08
-4.34368e-08
0.000100057
-2.97411e-08
-4.32553e-08
0.000100056
-5.37192e-08
-4.30327e-08
0.000100059
-7.89022e-08
-4.2783e-08
0.00010006
-2.34998e-07
-4.24795e-08
0.000100327
-4.19783e-08
9.96341e-05
2.1793e-07
-7.08786e-08
9.96594e-05
6.56914e-08
-7.08594e-08
0.000100323
3.6455e-08
-7.07671e-08
0.000100068
9.96913e-09
-7.06386e-08
0.000100065
-1.02183e-08
-7.04878e-08
0.000100059
-2.95217e-08
-7.02987e-08
0.000100058
-5.34682e-08
-7.00723e-08
0.000100062
-7.86365e-08
-6.98199e-08
0.000100062
-2.34486e-07
-6.95542e-08
0.00010033
-6.9074e-08
9.96378e-05
2.18212e-07
-2.23757e-07
9.99187e-05
6.57878e-08
-2.23884e-07
0.000100583
3.65481e-08
-2.23575e-07
0.000100327
1.01086e-08
-2.23441e-07
0.000100324
-1.00248e-08
-2.23181e-07
0.000100319
-2.92787e-08
-2.22833e-07
0.000100318
-5.31742e-08
-2.22422e-07
0.000100321
-7.83664e-08
-2.21972e-07
0.000100321
-2.34276e-07
-2.21799e-07
0.000100589
-2.21077e-07
9.98963e-05
2.18097e-07
9.92463e-05
6.58463e-08
9.99098e-05
3.67184e-08
9.96548e-05
1.03964e-08
9.96518e-05
-9.66684e-09
9.96468e-05
-2.88713e-08
9.96462e-05
-5.27299e-08
9.96499e-05
-7.79059e-08
9.96515e-05
-2.33528e-07
9.99187e-05
9.92288e-05
2.42747e-07
2.54302e-07
9.87474e-05
8.29074e-08
2.54715e-07
9.9812e-05
4.71588e-08
2.53961e-07
9.9434e-05
1.12108e-08
2.54021e-07
9.9431e-05
-1.82292e-08
2.53826e-07
9.94194e-05
-4.61799e-08
2.53571e-07
9.94173e-05
-7.77128e-08
2.53277e-07
9.94244e-05
-1.06377e-07
2.52786e-07
9.9423e-05
-2.71179e-07
2.53254e-07
9.98269e-05
2.52151e-07
9.87001e-05
2.43167e-07
9.31734e-08
9.9837e-05
8.31662e-08
9.34953e-08
0.000100904
4.71186e-08
9.32991e-08
0.000100524
1.10363e-08
9.31488e-08
0.000100521
-1.85163e-08
9.30247e-08
0.000100509
-4.65623e-08
9.28735e-08
0.000100507
-7.81807e-08
9.27071e-08
0.000100513
-1.07031e-07
9.26109e-08
0.00010051
-2.72307e-07
9.26258e-08
0.000100916
9.19406e-08
9.97834e-05
2.42439e-07
6.15316e-08
9.94478e-05
8.29623e-08
6.16473e-08
0.000100513
4.70238e-08
6.16058e-08
0.000100134
1.08922e-08
6.15052e-08
0.000100131
-1.86937e-08
6.14089e-08
0.000100119
-4.67494e-08
6.12901e-08
0.000100117
-7.83657e-08
6.11571e-08
0.000100123
-1.07027e-07
6.1047e-08
0.000100121
-2.71946e-07
6.08676e-08
0.000100526
6.0516e-08
9.93949e-05
2.42618e-07
2.86772e-08
9.94465e-05
8.28571e-08
2.87788e-08
0.000100512
4.69185e-08
2.87661e-08
0.000100133
1.07837e-08
2.87504e-08
0.00010013
-1.88127e-08
2.87458e-08
0.000100118
-4.68745e-08
2.8738e-08
0.000100115
-7.84806e-08
2.87254e-08
0.000100122
-1.07126e-07
2.87076e-08
0.000100119
-2.72403e-07
2.86092e-08
0.000100524
2.85767e-08
9.93923e-05
2.42657e-07
1.01988e-09
9.94369e-05
8.28517e-08
1.14121e-09
0.000100503
4.69118e-08
1.18017e-09
0.000100124
1.07758e-08
1.27186e-09
0.000100121
-1.8823e-08
1.40112e-09
0.000100109
-4.68895e-08
1.56446e-09
0.000100106
-7.85107e-08
1.75357e-09
0.000100112
-1.07201e-07
1.93994e-09
0.000100109
-2.72439e-07
2.04347e-09
0.000100514
2.40634e-09
9.93821e-05
2.42755e-07
-2.66997e-08
9.94369e-05
8.29093e-08
-2.657e-08
0.000100503
4.70058e-08
-2.64821e-08
0.000100124
1.09058e-08
-2.62894e-08
0.000100121
-1.86577e-08
-2.60349e-08
0.000100109
-4.66996e-08
-2.57101e-08
0.000100106
-7.83215e-08
-2.53251e-08
0.000100112
-1.07067e-07
-2.49263e-08
0.00010011
-2.72138e-07
-2.45663e-08
0.000100514
-2.38144e-08
9.9383e-05
2.42904e-07
-5.97481e-08
9.94466e-05
8.30262e-08
-5.96624e-08
0.000100513
4.71945e-08
-5.95511e-08
0.000100134
1.11664e-08
-5.92901e-08
0.000100131
-1.83256e-08
-5.89659e-08
0.000100119
-4.63098e-08
-5.85538e-08
0.000100116
-7.79039e-08
-5.80639e-08
0.000100123
-1.06673e-07
-5.75494e-08
0.000100121
-2.71493e-07
-5.69929e-08
0.000100525
-5.59969e-08
9.9395e-05
2.42887e-07
-9.17618e-08
9.94482e-05
8.32302e-08
-9.1949e-08
0.000100515
4.74615e-08
-9.1696e-08
0.000100135
1.15024e-08
-9.14168e-08
0.000100133
-1.79133e-08
-9.1106e-08
0.000100121
-4.58298e-08
-9.07116e-08
0.000100118
-7.73834e-08
-9.02352e-08
0.000100125
-1.06154e-07
-8.97538e-08
0.000100123
-2.70473e-07
-8.93072e-08
0.000100527
-8.80947e-08
9.93997e-05
2.43694e-07
-2.52485e-07
9.98352e-05
8.34926e-08
-2.52708e-07
0.000100904
4.76595e-08
-2.51831e-07
0.000100523
1.17984e-08
-2.51676e-07
0.00010052
-1.7532e-08
-2.51197e-07
0.000100508
-4.5373e-08
-2.50598e-07
0.000100505
-7.68481e-08
-2.49922e-07
0.000100512
-1.05687e-07
-2.48998e-07
0.000100509
-2.70361e-07
-2.49024e-07
0.000100913
-2.47811e-07
9.97852e-05
2.43479e-07
9.87501e-05
8.34075e-08
9.98169e-05
4.79562e-08
9.94382e-05
1.23055e-08
9.94357e-05
-1.68562e-08
9.94248e-05
-4.45689e-08
9.94233e-05
-7.59247e-08
9.94313e-05
-1.04561e-07
9.9431e-05
-2.69146e-07
9.98337e-05
9.87118e-05
2.55892e-07
2.72468e-07
9.82188e-05
8.9253e-08
2.73158e-07
9.97053e-05
4.75155e-08
2.71818e-07
9.92037e-05
7.02655e-09
2.71944e-07
9.91993e-05
-2.74956e-08
2.71504e-07
9.91823e-05
-5.98061e-08
2.71019e-07
9.91783e-05
-9.38074e-08
2.70533e-07
9.91874e-05
-1.24999e-07
2.696e-07
9.91842e-05
-2.98365e-07
2.70354e-07
9.97291e-05
2.68392e-07
9.81343e-05
2.56623e-07
1.04654e-07
9.97479e-05
8.97591e-08
1.05274e-07
0.000101238
4.74398e-08
1.04893e-07
0.000100733
6.74133e-09
1.04658e-07
0.000100729
-2.80496e-08
1.04451e-07
0.000100711
-6.05993e-08
1.04167e-07
0.000100706
-9.46805e-08
1.03829e-07
0.000100713
-1.26343e-07
1.03604e-07
0.000100707
-3.0029e-07
1.03577e-07
0.000101256
1.02259e-07
9.96495e-05
2.55323e-07
6.90497e-08
9.92278e-05
8.93634e-08
6.92632e-08
0.000100715
4.72508e-08
6.91746e-08
0.000100212
6.4542e-09
6.90293e-08
0.000100207
-2.83771e-08
6.8876e-08
0.000100189
-6.09305e-08
6.86536e-08
0.000100184
-9.5009e-08
6.83736e-08
0.000100192
-1.26399e-07
6.80969e-08
0.000100187
-2.99661e-07
6.77068e-08
0.000100734
6.69148e-08
9.91304e-05
2.55665e-07
3.33659e-08
9.92262e-05
8.92135e-08
3.36012e-08
0.000100714
4.70949e-08
3.35613e-08
0.000100211
6.27359e-09
3.35639e-08
0.000100206
-2.85987e-08
3.35788e-08
0.000100188
-6.11929e-08
3.35691e-08
0.000100183
-9.5296e-08
3.35227e-08
0.00010019
-1.26692e-07
3.34233e-08
0.000100184
-3.00654e-07
3.32082e-08
0.000100732
3.28885e-08
9.91255e-05
2.55649e-07
1.75431e-09
9.92125e-05
8.92383e-08
1.97489e-09
0.000100701
4.71153e-08
2.05879e-09
0.000100197
6.28023e-09
2.25223e-09
0.000100192
-2.86148e-08
2.50748e-09
0.000100174
-6.12453e-08
2.81624e-09
0.000100169
-9.54264e-08
3.15561e-09
0.000100176
-1.26902e-07
3.45591e-09
0.00010017
-3.00842e-07
3.62388e-09
0.000100717
4.1398e-09
9.91103e-05
2.55812e-07
-2.99803e-08
9.92126e-05
8.93654e-08
-2.97975e-08
0.000100701
4.73088e-08
-2.95975e-08
0.000100197
6.53713e-09
-2.92309e-08
0.000100193
-2.83019e-08
-2.8759e-08
0.000100175
-6.09034e-08
-2.81609e-08
0.00010017
-9.51258e-08
-2.74562e-08
0.000100177
-1.26663e-07
-2.67259e-08
0.000100171
-3.00443e-07
-2.60927e-08
0.000100718
-2.47003e-08
9.9112e-05
2.56138e-07
-6.60176e-08
9.92263e-05
8.95848e-08
-6.58782e-08
0.000100716
4.76592e-08
-6.56482e-08
0.000100212
7.02312e-09
-6.5181e-08
0.000100207
-2.76876e-08
-6.46029e-08
0.00010019
-6.01871e-08
-6.38612e-08
0.000100185
-9.43631e-08
-6.29652e-08
0.000100192
-1.25903e-07
-6.19891e-08
0.000100187
-2.99385e-07
-6.09818e-08
0.000100733
-5.90505e-08
9.91307e-05
2.56061e-07
-1.02328e-07
9.92282e-05
8.99472e-08
-1.02665e-07
0.000100718
4.81391e-08
-1.02169e-07
0.000100214
7.63558e-09
-1.01686e-07
0.00010021
-2.69368e-08
-1.0115e-07
0.000100192
-5.93062e-08
-1.00456e-07
0.000100188
-9.33765e-08
-9.95992e-08
0.000100196
-1.2488e-07
-9.86477e-08
0.000100191
-2.97394e-07
-9.79016e-08
0.000100736
-9.5752e-08
9.91391e-05
2.57517e-07
-2.69618e-07
9.97448e-05
9.04608e-08
-2.70092e-07
0.000101238
4.85112e-08
-2.68598e-07
0.000100731
8.17266e-09
-2.68418e-07
0.000100727
-2.6284e-08
-2.6758e-07
0.000100709
-5.85423e-08
-2.66616e-07
0.000100704
-9.23983e-08
-2.6554e-07
0.000100712
-1.24089e-07
-2.63902e-07
0.000100706
-2.97296e-07
-2.64125e-07
0.000101252
-2.61601e-07
9.9654e-05
2.57035e-07
9.82231e-05
9.02169e-08
9.97135e-05
4.897e-08
9.92108e-05
8.94574e-09
9.92073e-05
-2.51643e-08
9.91913e-05
-5.71046e-08
9.91887e-05
-9.07927e-08
9.91994e-05
-1.22165e-07
9.91982e-05
-2.9485e-07
9.97423e-05
9.81544e-05
2.64246e-07
2.86463e-07
9.76681e-05
9.28048e-08
2.87406e-07
9.95894e-05
4.46914e-08
2.85448e-07
9.89664e-05
1.00424e-10
2.85582e-07
9.89584e-05
-3.86711e-08
2.84715e-07
9.89364e-05
-7.45039e-08
2.8382e-07
9.89303e-05
-1.10264e-07
2.82974e-07
9.89399e-05
-1.44574e-07
2.81335e-07
9.89363e-05
-3.23932e-07
2.82505e-07
9.96278e-05
2.7875e-07
9.75316e-05
2.6529e-07
1.14175e-07
9.96549e-05
9.35003e-08
1.15057e-07
0.000101583
4.44963e-08
1.14457e-07
0.000100953
-4.05007e-10
1.14087e-07
0.000100945
-3.96944e-08
1.13701e-07
0.000100921
-7.59778e-08
1.13153e-07
0.000100913
-1.11823e-07
1.12474e-07
0.000100919
-1.4656e-07
1.11924e-07
0.000100911
-3.27508e-07
1.11914e-07
0.000101607
1.09258e-07
9.94914e-05
2.63397e-07
7.45672e-08
9.90039e-05
9.28744e-08
7.48674e-08
0.000100925
4.41438e-08
7.46977e-08
0.0001003
-9.47023e-10
7.44641e-08
0.000100292
-4.03114e-08
7.4172e-08
0.000100268
-7.66112e-08
7.37226e-08
0.00010026
-1.1249e-07
7.31113e-08
0.000100267
-1.46622e-07
7.24464e-08
0.00010026
-3.27286e-07
7.1639e-08
0.000100954
6.96974e-08
9.88423e-05
2.63909e-07
3.69153e-08
9.89998e-05
9.26597e-08
3.73188e-08
0.000100923
4.38905e-08
3.72244e-08
0.000100297
-1.28369e-09
3.72309e-08
0.000100288
-4.07628e-08
3.72334e-08
0.000100264
-7.71929e-08
3.71632e-08
0.000100256
-1.13172e-07
3.69744e-08
0.000100262
-1.47323e-07
3.66623e-08
0.000100254
-3.2953e-07
3.59956e-08
0.000100949
3.50272e-08
9.88308e-05
2.6379e-07
2.59401e-09
9.8983e-05
9.27027e-08
2.94221e-09
0.000100906
4.39194e-08
3.08154e-09
0.00010028
-1.29732e-09
3.41081e-09
0.000100272
-4.08466e-08
3.83427e-09
0.000100247
-7.73911e-08
4.33735e-09
0.000100238
-1.13542e-07
4.87418e-09
0.000100244
-1.47999e-07
5.34764e-09
0.000100235
-3.30173e-07
5.37784e-09
0.00010093
6.27721e-09
9.88098e-05
2.64035e-07
-3.19209e-08
9.8983e-05
9.29209e-08
-3.16652e-08
0.000100907
4.42442e-08
-3.13066e-08
0.00010028
-8.69949e-10
-3.0689e-08
0.000100272
-4.03343e-08
-2.98929e-08
0.000100248
-7.68465e-08
-2.88741e-08
0.000100239
-1.13077e-07
-2.76508e-08
0.000100246
-1.47818e-07
-2.63446e-08
0.000100237
-3.29498e-07
-2.52912e-08
0.00010093
-2.25129e-08
9.88125e-05
2.64621e-07
-7.01452e-08
9.89999e-05
9.32945e-08
-6.98871e-08
0.000100925
4.4833e-08
-6.94869e-08
0.000100298
-4.69568e-11
-6.87199e-08
0.000100291
-3.92828e-08
-6.77518e-08
0.000100267
-7.56022e-08
-6.64868e-08
0.000100259
-1.11727e-07
-6.49195e-08
0.000100266
-1.46487e-07
-6.31247e-08
0.000100258
-3.27448e-07
-6.12288e-08
0.00010095
-5.75879e-08
9.88392e-05
2.64518e-07
-1.1072e-07
9.90043e-05
9.38735e-08
-1.11225e-07
0.00010093
4.56239e-08
-1.10457e-07
0.000100303
9.87991e-10
-1.09693e-07
0.000100295
-3.79905e-08
-1.08806e-07
0.000100272
-7.40499e-08
-1.07637e-07
0.000100265
-1.09915e-07
-1.06136e-07
0.000100273
-1.44484e-07
-1.04406e-07
0.000100267
-3.23765e-07
-1.02794e-07
0.000100957
-9.86102e-08
9.88571e-05
2.66562e-07
-2.82534e-07
9.96499e-05
9.46716e-08
-2.83099e-07
0.000101582
4.62449e-08
-2.80948e-07
0.00010095
1.893e-09
-2.80669e-07
0.000100943
-3.69018e-08
-2.79286e-07
0.000100919
-7.27418e-08
-2.77736e-07
0.00010091
-1.08206e-07
-2.76021e-07
0.000100917
-1.42776e-07
-2.7319e-07
0.000100909
-3.22606e-07
-2.72804e-07
0.000101602
-2.69264e-07
9.95002e-05
2.65957e-07
9.76748e-05
9.43614e-08
9.9602e-05
4.69732e-08
9.89773e-05
3.05968e-09
9.89707e-05
-3.51094e-08
9.89504e-05
-7.03331e-08
9.89464e-05
-1.05459e-07
9.89587e-05
-1.39238e-07
9.89588e-05
-3.19335e-07
9.96474e-05
9.75655e-05
2.67043e-07
2.95684e-07
9.71062e-05
9.31331e-08
2.9686e-07
9.94672e-05
3.96116e-08
2.94214e-07
9.87265e-05
-9.08354e-09
2.94229e-07
9.87137e-05
-5.24146e-08
2.92705e-07
9.86878e-05
-9.20647e-08
2.91115e-07
9.86793e-05
-1.29728e-07
2.89618e-07
9.86876e-05
-1.64716e-07
2.87104e-07
9.86849e-05
-3.51581e-07
2.88039e-07
9.9525e-05
2.82701e-07
9.69013e-05
2.68411e-07
1.21494e-07
9.95613e-05
9.39563e-08
1.2261e-07
0.000101932
3.91766e-08
1.21747e-07
0.000101181
-1.00091e-08
1.21166e-07
0.000101168
-5.42224e-08
1.20444e-07
0.000101138
-9.4616e-08
1.194e-07
0.000101125
-1.32239e-07
1.18093e-07
0.000101128
-1.68207e-07
1.1694e-07
0.000101116
-3.56392e-07
1.16125e-07
0.000101967
1.11638e-07
9.9307e-05
2.65877e-07
7.93384e-08
9.87807e-05
9.30474e-08
7.97142e-08
0.000101142
3.85608e-08
7.94201e-08
0.000100397
-1.09719e-08
7.9028e-08
0.000100384
-5.53627e-08
7.84598e-08
0.000100355
-9.585e-08
7.75563e-08
0.000100342
-1.33514e-07
7.62685e-08
0.000100346
-1.69128e-07
7.47113e-08
0.000100336
-3.56858e-07
7.25713e-08
0.000101184
6.83573e-08
9.85276e-05
2.66536e-07
4.02947e-08
9.87728e-05
9.27365e-08
4.08936e-08
0.000101136
3.81341e-08
4.07218e-08
0.00010039
-1.16078e-08
4.07098e-08
0.000100377
-5.62795e-08
4.06405e-08
0.000100347
-9.7107e-08
4.03931e-08
0.000100334
-1.35125e-07
3.98565e-08
0.000100336
-1.71175e-07
3.8843e-08
0.000100325
-3.61441e-07
3.72333e-08
0.000101174
3.45498e-08
9.85023e-05
2.66281e-07
3.57221e-09
9.8754e-05
9.27792e-08
4.09247e-09
0.000101117
3.81391e-08
4.30342e-09
0.000100371
-1.17062e-08
4.81928e-09
0.000100358
-5.65505e-08
5.47267e-09
0.000100328
-9.76584e-08
6.24619e-09
0.000100314
-1.36217e-07
7.04327e-09
0.000100315
-1.72748e-07
7.58837e-09
0.000100302
-3.63528e-07
7.70968e-09
0.000101151
8.86874e-09
9.84725e-05
2.66637e-07
-3.34216e-08
9.87539e-05
9.31205e-08
-3.30396e-08
0.000101118
3.86431e-08
-3.24708e-08
0.000100372
-1.10424e-08
-3.14875e-08
0.000100359
-5.57567e-08
-3.02016e-08
0.000100329
-9.68439e-08
-2.85172e-08
0.000100316
-1.35673e-07
-2.64486e-08
0.000100317
-1.72346e-07
-2.41075e-08
0.000100305
-3.62755e-07
-2.18675e-08
0.000101151
-1.65585e-08
9.84772e-05
2.67564e-07
-7.32361e-08
9.87728e-05
9.3725e-08
-7.27997e-08
0.00010114
3.9588e-08
-7.21671e-08
0.000100393
-9.70609e-09
-7.09657e-08
0.00010038
-5.40147e-08
-6.93965e-08
0.000100351
-9.47348e-08
-6.72954e-08
0.000100339
-1.33271e-07
-6.45718e-08
0.000100342
-1.69644e-07
-6.1144e-08
0.000100331
-3.58686e-07
-5.73389e-08
0.000101175
-4.99185e-08
9.85166e-05
2.67495e-07
-1.1679e-07
9.87809e-05
9.45998e-08
-1.17295e-07
0.000101148
4.08323e-08
-1.16181e-07
0.000100401
-8.01967e-09
-1.15018e-07
0.000100389
-5.18487e-08
-1.13579e-07
0.000100361
-9.20072e-08
-1.11637e-07
0.00010035
-1.29829e-07
-1.09035e-07
0.000100355
-1.65588e-07
-1.05601e-07
0.000100347
-3.5125e-07
-1.02404e-07
0.000101188
-9.54251e-08
9.85512e-05
2.70273e-07
-2.90292e-07
9.95537e-05
9.57605e-08
-2.91025e-07
0.00010193
4.18226e-08
-2.88178e-07
0.000101177
-6.55953e-09
-2.87666e-07
0.000101164
-5.00399e-08
-2.8549e-07
0.000101135
-8.96954e-08
-2.83009e-07
0.000101122
-1.26493e-07
-2.80114e-07
0.000101125
-1.62217e-07
-2.75372e-07
0.000101115
-3.48295e-07
-2.74662e-07
0.000101958
-2.67578e-07
9.93233e-05
2.69448e-07
9.71151e-05
9.54508e-08
9.94853e-05
4.29542e-08
9.87419e-05
-4.78688e-09
9.8731e-05
-4.72094e-08
9.87077e-05
-8.57459e-08
9.87024e-05
-1.21933e-07
9.87151e-05
-1.57283e-07
9.87176e-05
-3.41821e-07
9.95575e-05
9.6953e-05
2.64612e-07
3.00541e-07
9.65421e-05
8.97138e-08
3.01858e-07
9.93413e-05
3.14189e-08
2.98413e-07
9.84874e-05
-2.13665e-08
2.981e-07
9.84694e-05
-6.93866e-08
2.95598e-07
9.84412e-05
-1.13091e-07
2.92884e-07
9.84306e-05
-1.52239e-07
2.9025e-07
9.84363e-05
-1.89475e-07
2.86216e-07
9.84331e-05
-3.80566e-07
2.88536e-07
9.94347e-05
2.79426e-07
9.62407e-05
2.66252e-07
1.26206e-07
9.94703e-05
9.05603e-08
1.27508e-07
0.000102283
3.05596e-08
1.26296e-07
0.000101414
-2.3033e-08
1.25374e-07
0.000101396
-7.24747e-08
1.24069e-07
0.00010136
-1.17374e-07
1.22155e-07
0.000101341
-1.5658e-07
1.19672e-07
0.000101338
-1.93537e-07
1.17011e-07
0.000101321
-3.88439e-07
1.15823e-07
0.000102336
1.05999e-07
9.90897e-05
2.63005e-07
8.27245e-08
9.85619e-05
8.92719e-08
8.31656e-08
0.00010136
2.95166e-08
8.26692e-08
0.000100501
-2.46706e-08
8.20034e-08
0.000100482
-7.45246e-08
8.09353e-08
0.000100449
-1.19749e-07
7.9197e-08
0.000100431
-1.59307e-07
7.65864e-08
0.000100429
-1.9492e-07
7.30981e-08
0.000100416
-3.925e-07
6.85762e-08
0.000101426
5.82384e-08
9.81797e-05
2.63752e-07
4.30803e-08
9.85494e-05
8.88042e-08
4.39013e-08
0.000101351
2.87885e-08
4.36156e-08
0.00010049
-2.5841e-08
4.35459e-08
0.000100471
-7.63073e-08
4.33082e-08
0.000100436
-1.22349e-07
4.26851e-08
0.000100417
-1.62871e-07
4.13645e-08
0.000100412
-1.99428e-07
3.89899e-08
0.000100395
-4.02921e-07
3.47868e-08
0.000101407
2.77e-08
9.81282e-05
2.6334e-07
4.69449e-09
9.85298e-05
8.88178e-08
5.45032e-09
0.000101331
2.8716e-08
5.75537e-09
0.00010047
-2.61301e-08
6.53343e-09
0.00010045
-7.69768e-08
7.51544e-09
0.000100415
-1.23696e-07
8.68068e-09
0.000100396
-1.65316e-07
9.82961e-09
0.000100389
-2.03501e-07
1.06401e-08
0.000100368
-4.0911e-07
9.68851e-09
0.000101379
1.16575e-08
9.80812e-05
2.63848e-07
-3.4058e-08
9.85296e-05
8.93283e-08
-3.34582e-08
0.000101332
2.94728e-08
-3.26028e-08
0.000100471
-2.51243e-08
-3.10821e-08
0.000100452
-7.57729e-08
-2.90362e-08
0.000100417
-1.22499e-07
-2.62736e-08
0.000100398
-1.64513e-07
-2.27235e-08
0.000100392
-2.03906e-07
-1.83978e-08
0.000100371
-4.07935e-07
-1.44887e-08
0.000101379
-2.89825e-09
9.80878e-05
2.65216e-07
-7.47743e-08
9.85491e-05
9.02753e-08
-7.40412e-08
0.000101356
3.09532e-08
-7.30689e-08
0.000100493
-2.29863e-08
-7.12218e-08
0.000100475
-7.29043e-08
-6.87142e-08
0.000100441
-1.18867e-07
-6.52372e-08
0.000100424
-1.60165e-07
-6.04805e-08
0.00010042
-1.99232e-07
-5.41711e-08
0.000100403
-3.98422e-07
-4.65244e-08
0.000101409
-3.15667e-08
9.81488e-05
2.65319e-07
-1.20006e-07
9.85617e-05
9.15774e-08
-1.20516e-07
0.000101369
3.28791e-08
-1.1898e-07
0.000100507
-2.02811e-08
-1.17238e-07
0.000100489
-6.92852e-08
-1.14945e-07
0.000100457
-1.14071e-07
-1.11751e-07
0.000100441
-1.53876e-07
-1.07264e-07
0.000100441
-1.91097e-07
-1.01215e-07
0.00010043
-3.83821e-07
-9.46361e-08
0.00010143
-8.0702e-08
9.82166e-05
2.68806e-07
-2.93635e-07
9.94591e-05
9.31952e-08
-2.94271e-07
0.000102281
3.44185e-08
-2.90614e-07
0.000101408
-1.79751e-08
-2.89647e-07
0.00010139
-6.62828e-08
-2.86355e-07
0.000101355
-1.10004e-07
-2.82454e-07
0.000101337
-1.48052e-07
-2.77709e-07
0.000101334
-1.84154e-07
-2.70213e-07
0.00010132
-3.75144e-07
-2.66449e-07
0.00010232
-2.56725e-07
9.91187e-05
2.67995e-07
9.65542e-05
9.30237e-08
9.93665e-05
3.61432e-08
9.85086e-05
-1.52831e-08
9.84933e-05
-6.19306e-08
9.84686e-05
-1.03812e-07
9.84626e-05
-1.40839e-07
9.84752e-05
-1.75024e-07
9.84827e-05
-3.66772e-07
9.94762e-05
9.63276e-05
2.58636e-07
3.02659e-07
9.59828e-05
8.34871e-08
3.04044e-07
9.92144e-05
2.02965e-08
2.99697e-07
9.82529e-05
-3.69572e-08
2.98782e-07
9.82299e-05
-8.99583e-08
2.94876e-07
9.82011e-05
-1.38288e-07
2.90442e-07
9.81892e-05
-1.81532e-07
2.85986e-07
9.81921e-05
-2.18354e-07
2.80911e-07
9.8192e-05
-4.26307e-07
2.83637e-07
9.93525e-05
2.75453e-07
9.55367e-05
2.60511e-07
1.29271e-07
9.9385e-05
8.42022e-08
1.30687e-07
0.000102634
1.87501e-08
1.2902e-07
0.000101652
-3.98423e-08
1.27567e-07
0.000101627
-9.50555e-08
1.25322e-07
0.000101587
-1.45185e-07
1.21944e-07
0.000101561
-1.87638e-07
1.17345e-07
0.000101549
-2.24855e-07
1.12501e-07
0.000101528
-4.32463e-07
1.06747e-07
0.000102715
9.06794e-08
9.8836e-05
2.565e-07
8.49782e-08
9.83514e-05
8.24167e-08
8.5465e-08
0.000101581
1.70602e-08
8.46608e-08
0.000100612
-4.25253e-08
8.35539e-08
0.000100587
-9.86165e-08
8.16483e-08
0.00010055
-1.49645e-07
7.84377e-08
0.000100527
-1.92569e-07
7.33571e-08
0.000100516
-2.30952e-07
6.57704e-08
0.000100497
-4.40839e-07
5.4373e-08
0.000101683
3.10421e-08
9.77912e-05
2.57258e-07
4.52189e-08
9.83335e-05
8.17002e-08
4.6291e-08
0.000101567
1.58401e-08
4.58411e-08
0.000100596
-4.45987e-08
4.5655e-08
0.00010057
-1.0196e-07
4.50879e-08
0.000100531
-1.54789e-07
4.37434e-08
0.000100506
-2.00316e-07
4.08483e-08
0.00010049
-2.42225e-07
3.49872e-08
0.000100463
-4.6422e-07
2.47745e-08
0.000101656
6.31577e-09
9.76857e-05
2.56676e-07
5.97508e-09
9.83139e-05
8.16473e-08
7.05075e-09
0.000101546
1.56097e-08
7.47991e-09
0.000100576
-4.52613e-08
8.62219e-09
0.00010055
-1.03408e-07
1.00681e-08
0.00010051
-1.57739e-07
1.18058e-08
0.000100483
-2.0634e-07
1.34468e-08
0.000100464
-2.51875e-07
1.39191e-08
0.000100431
-4.82032e-07
1.27641e-08
0.000101621
1.42698e-08
9.75901e-05
2.57389e-07
-3.3746e-08
9.83136e-05
8.23902e-08
-3.28055e-08
0.000101549
1.67194e-08
-3.15622e-08
0.000100577
-4.37658e-08
-2.92679e-08
0.000100552
-1.01585e-07
-2.60746e-08
0.000100513
-1.5597e-07
-2.15966e-08
0.000100487
-2.05759e-07
-1.54951e-08
0.000100469
-2.51743e-07
-7.53501e-09
0.000100436
-4.81547e-07
2.98964e-09
0.00010162
2.71262e-08
9.75908e-05
2.59303e-07
-7.48547e-08
9.83325e-05
8.3827e-08
-7.37124e-08
0.000101574
1.89844e-08
-7.22691e-08
0.0001006
-4.04028e-08
-6.94928e-08
0.000100576
-9.68961e-08
-6.55723e-08
0.000100539
-1.49691e-07
-5.98974e-08
0.000100515
-1.97709e-07
-5.16719e-08
0.000100502
-2.40092e-07
-3.91704e-08
0.000100478
-4.60316e-07
-2.28508e-08
0.000101654
1.13072e-08
9.77027e-05
2.59723e-07
-1.21446e-07
9.83499e-05
8.5732e-08
-1.21702e-07
0.000101592
2.19049e-08
-1.19608e-07
0.000100619
-3.61461e-08
-1.17033e-07
0.000100595
-9.09301e-08
-1.13462e-07
0.00010056
-1.41329e-07
-1.08306e-07
0.000100541
-1.85255e-07
-1.00634e-07
0.000100534
-2.23241e-07
-8.91121e-08
0.000100519
-4.26757e-07
-7.65782e-08
0.000101685
-5.05536e-08
9.78485e-05
2.64083e-07
-2.93806e-07
9.93688e-05
8.79508e-08
-2.94386e-07
0.000102631
2.42452e-08
-2.89871e-07
0.000101643
-3.25707e-08
-2.88193e-07
0.000101619
-8.60262e-08
-2.8339e-07
0.000101579
-1.34201e-07
-2.77411e-07
0.000101555
-1.74164e-07
-2.69713e-07
0.000101545
-2.10365e-07
-2.57607e-07
0.000101524
-4.06427e-07
-2.52396e-07
0.000102686
-2.36066e-07
9.8895e-05
2.63227e-07
9.59979e-05
8.80616e-08
9.92481e-05
2.6794e-08
9.82808e-05
-2.85575e-08
9.82612e-05
-7.94724e-08
9.82371e-05
-1.24719e-07
9.82319e-05
-1.62645e-07
9.8245e-05
-1.99005e-07
9.82579e-05
-3.92215e-07
9.94166e-05
9.5697e-05
2.50626e-07
3.03373e-07
9.54311e-05
7.55472e-08
3.0469e-07
9.9087e-05
7.05831e-09
2.99318e-07
9.80242e-05
-5.54444e-08
2.9744e-07
9.79969e-05
-1.14312e-07
2.91613e-07
9.79698e-05
-1.68691e-07
2.84704e-07
9.79591e-05
-2.1651e-07
2.77556e-07
9.7961e-05
-2.65181e-07
2.70115e-07
9.796e-05
-4.99505e-07
2.80993e-07
9.92986e-05
2.81429e-07
9.47403e-05
2.52629e-07
1.31607e-07
9.93062e-05
7.59037e-08
1.33036e-07
0.000102985
4.43587e-09
1.30782e-07
0.000101894
-6.02066e-08
1.28538e-07
0.000101862
-1.22386e-07
1.24867e-07
0.000101817
-1.79429e-07
1.19161e-07
0.000101784
-2.26371e-07
1.10925e-07
0.000101762
-2.68474e-07
9.97743e-08
0.000101736
-4.92011e-07
9.0187e-08
0.000103119
5.41951e-08
9.855e-05
2.47804e-07
8.66932e-08
9.81503e-05
7.34778e-08
8.71917e-08
0.000101803
1.81536e-09
8.59444e-08
0.000100731
-6.44222e-08
8.41594e-08
0.000100699
-1.28323e-07
8.09195e-08
0.000100659
-1.87491e-07
7.52579e-08
0.000100631
-2.37715e-07
6.5623e-08
0.000100612
-2.80674e-07
4.97533e-08
0.00010059
-5.12012e-07
2.59336e-08
0.000101967
-3.36245e-08
9.736e-05
2.48473e-07
4.69985e-08
9.81265e-05
7.23791e-08
4.83494e-08
0.000101784
-1.77787e-10
4.76693e-08
0.000100708
-6.79649e-08
4.72789e-08
0.000100676
-1.34335e-07
4.61431e-08
0.000100634
-1.97473e-07
4.3486e-08
0.000100602
-2.54006e-07
3.76222e-08
0.000100574
-3.05527e-07
2.5997e-08
0.000100538
-5.67562e-07
3.30609e-09
0.000101931
-4.87683e-08
9.71248e-05
2.47716e-07
7.39837e-09
9.81076e-05
7.22084e-08
8.90519e-09
0.000101763
-6.8767e-10
9.49618e-09
0.000100688
-6.9277e-08
1.11409e-08
0.000100656
-1.37226e-07
1.32417e-08
0.000100613
-2.03514e-07
1.57949e-08
0.000100578
-2.6558e-07
1.81988e-08
0.000100545
-3.27032e-07
1.94394e-08
0.000100495
-6.17447e-07
1.45658e-08
0.000101886
1.3055e-08
9.69e-05
2.48705e-07
-3.28114e-08
9.81068e-05
7.32675e-08
-3.13536e-08
0.000101766
9.15548e-10
-2.9597e-08
0.00010069
-6.70715e-08
-2.61961e-08