/*--------------------------------*- C++ -*----------------------------------*\
  =========                 |
  \\      /  F ield         | OpenFOAM: The Open Source CFD Toolbox
   \\    /   O peration     | Website:  https://openfoam.org
    \\  /    A nd           | Version:  6
     \\/     M anipulation  |
\*---------------------------------------------------------------------------*/
FoamFile
{
    version     2.0;
    format      ascii;
    class       volScalarField;
    location    "0.085";
    object      T;
}
// * * * * * * * * * * * * * * * * * * * * * * * * * * * * * * * * * * * * * //

dimensions      [0 0 0 1 0 0 0];

internalField   nonuniform List<scalar> 
7000
(
99.271
99.2708
99.2708
99.2707
99.2707
99.2707
99.2707
99.2707
99.2708
99.2708
99.2708
99.2707
99.2706
99.2706
99.2706
99.2706
99.2706
99.2706
99.2707
99.2707
99.2708
99.2706
99.2706
99.2705
99.2705
99.2705
99.2705
99.2706
99.2706
99.2707
99.2707
99.2706
99.2705
99.2705
99.2705
99.2705
99.2705
99.2705
99.2706
99.2706
99.2707
99.2706
99.2705
99.2705
99.2704
99.2704
99.2705
99.2705
99.2706
99.2706
99.2707
99.2706
99.2705
99.2705
99.2704
99.2704
99.2705
99.2705
99.2706
99.2706
99.2707
99.2706
99.2705
99.2705
99.2705
99.2705
99.2705
99.2705
99.2706
99.2706
99.2707
99.2706
99.2706
99.2705
99.2705
99.2705
99.2705
99.2706
99.2706
99.2707
99.2708
99.2707
99.2706
99.2706
99.2706
99.2706
99.2706
99.2706
99.2707
99.2708
99.2708
99.2707
99.2707
99.2706
99.2706
99.2706
99.2707
99.2707
99.2708
99.2708
78.455
78.4547
78.4545
78.4544
78.4543
78.4543
78.4544
78.4544
78.4546
78.4547
78.4547
78.4544
78.4542
78.4541
78.454
78.454
78.4541
78.4542
78.4543
78.4545
78.4545
78.4542
78.454
78.4539
78.4538
78.4538
78.4539
78.454
78.4541
78.4543
78.4544
78.4541
78.4539
78.4538
78.4537
78.4537
78.4538
78.4539
78.454
78.4542
78.4543
78.454
78.4538
78.4537
78.4536
78.4536
78.4537
78.4538
78.454
78.4542
78.4543
78.454
78.4538
78.4537
78.4537
78.4537
78.4537
78.4538
78.454
78.4542
78.4544
78.4541
78.4539
78.4538
78.4537
78.4537
78.4538
78.4539
78.4541
78.4543
78.4545
78.4542
78.454
78.4539
78.4538
78.4538
78.4539
78.454
78.4542
78.4544
78.4546
78.4543
78.4541
78.454
78.454
78.454
78.4541
78.4542
78.4544
78.4546
78.4547
78.4545
78.4543
78.4543
78.4542
78.4542
78.4543
78.4544
78.4546
78.4548
59.4499
59.4494
59.4492
59.449
59.4489
59.4489
59.4489
59.4491
59.4492
59.4494
59.4494
59.449
59.4488
59.4486
59.4485
59.4485
59.4485
59.4487
59.4489
59.4492
59.4492
59.4488
59.4485
59.4483
59.4482
59.4482
59.4483
59.4484
59.4486
59.449
59.449
59.4486
59.4483
59.4481
59.448
59.448
59.4481
59.4483
59.4485
59.4488
59.4489
59.4485
59.4482
59.4481
59.448
59.448
59.4481
59.4482
59.4484
59.4488
59.4489
59.4485
59.4482
59.4481
59.448
59.448
59.4481
59.4482
59.4485
59.4488
59.449
59.4486
59.4483
59.4482
59.4481
59.4481
59.4482
59.4483
59.4486
59.4489
59.4491
59.4487
59.4485
59.4483
59.4483
59.4483
59.4484
59.4485
59.4488
59.4491
59.4493
59.449
59.4487
59.4486
59.4485
59.4485
59.4486
59.4488
59.449
59.4494
59.4496
59.4493
59.4491
59.4489
59.4489
59.4489
59.449
59.4491
59.4494
59.4497
43.1126
43.1121
43.1118
43.1116
43.1115
43.1114
43.1115
43.1116
43.1118
43.112
43.1121
43.1117
43.1113
43.1111
43.111
43.111
43.1111
43.1112
43.1114
43.1117
43.1118
43.1114
43.111
43.1108
43.1107
43.1107
43.1108
43.1109
43.1111
43.1115
43.1116
43.1112
43.1108
43.1106
43.1105
43.1105
43.1106
43.1107
43.111
43.1113
43.1115
43.1111
43.1108
43.1106
43.1105
43.1104
43.1105
43.1107
43.1109
43.1113
43.1115
43.1111
43.1108
43.1106
43.1105
43.1105
43.1105
43.1107
43.1109
43.1113
43.1116
43.1112
43.1109
43.1107
43.1106
43.1106
43.1107
43.1108
43.1111
43.1115
43.1118
43.1114
43.1111
43.1109
43.1108
43.1108
43.1109
43.1111
43.1113
43.1117
43.1121
43.1117
43.1114
43.1112
43.1112
43.1112
43.1112
43.1114
43.1116
43.112
43.1124
43.112
43.1118
43.1117
43.1116
43.1116
43.1117
43.1118
43.1121
43.1125
29.8815
29.881
29.8807
29.8805
29.8804
29.8803
29.8803
29.8802
29.8803
29.8804
29.881
29.8806
29.8803
29.8801
29.88
29.8799
29.8798
29.8798
29.8799
29.8801
29.8807
29.8803
29.88
29.8798
29.8797
29.8796
29.8796
29.8796
29.8796
29.8799
29.8805
29.8801
29.8798
29.8796
29.8795
29.8794
29.8794
29.8794
29.8795
29.8798
29.8805
29.88
29.8797
29.8795
29.8794
29.8793
29.8793
29.8793
29.8794
29.8797
29.8805
29.8801
29.8798
29.8796
29.8794
29.8794
29.8794
29.8794
29.8795
29.8798
29.8806
29.8802
29.8799
29.8797
29.8796
29.8795
29.8795
29.8795
29.8796
29.8799
29.8808
29.8804
29.8801
29.8799
29.8798
29.8798
29.8797
29.8798
29.8799
29.8802
29.8811
29.8807
29.8804
29.8802
29.8801
29.8801
29.8801
29.8801
29.8802
29.8805
29.8814
29.8811
29.8809
29.8807
29.8806
29.8806
29.8806
29.8806
29.8807
29.881
19.7777
19.7773
19.777
19.7768
19.7766
19.7764
19.7762
19.7758
19.7754
19.7751
19.7773
19.777
19.7767
19.7765
19.7763
19.7761
19.7758
19.7754
19.775
19.7749
19.7771
19.7767
19.7764
19.7762
19.776
19.7758
19.7756
19.7752
19.7748
19.7747
19.7769
19.7765
19.7763
19.776
19.7759
19.7757
19.7754
19.7751
19.7747
19.7746
19.7768
19.7765
19.7762
19.776
19.7758
19.7756
19.7754
19.775
19.7747
19.7746
19.7769
19.7765
19.7762
19.776
19.7758
19.7757
19.7754
19.7751
19.7747
19.7746
19.777
19.7766
19.7763
19.7761
19.776
19.7758
19.7755
19.7752
19.7748
19.7748
19.7771
19.7768
19.7765
19.7763
19.7762
19.776
19.7758
19.7754
19.7751
19.775
19.7774
19.7771
19.7768
19.7767
19.7765
19.7763
19.7761
19.7758
19.7754
19.7753
19.7777
19.7775
19.7773
19.7771
19.777
19.7768
19.7765
19.7762
19.7759
19.7758
12.495
12.4947
12.4945
12.4942
12.4939
12.4935
12.4927
12.4914
12.4897
12.4884
12.4947
12.4944
12.4942
12.4939
12.4937
12.4932
12.4924
12.4911
12.4894
12.4882
12.4945
12.4942
12.494
12.4937
12.4935
12.493
12.4922
12.4909
12.4893
12.488
12.4944
12.4941
12.4938
12.4936
12.4933
12.4929
12.4921
12.4908
12.4892
12.488
12.4943
12.494
12.4938
12.4936
12.4933
12.4928
12.492
12.4908
12.4891
12.4879
12.4944
12.4941
12.4938
12.4936
12.4933
12.4929
12.4921
12.4908
12.4892
12.488
12.4945
12.4942
12.4939
12.4937
12.4934
12.493
12.4922
12.4909
12.4893
12.4881
12.4946
12.4943
12.4941
12.4939
12.4936
12.4932
12.4924
12.4911
12.4895
12.4883
12.4949
12.4946
12.4944
12.4942
12.4939
12.4935
12.4927
12.4914
12.4898
12.4886
12.4951
12.4949
12.4947
12.4946
12.4943
12.4938
12.4931
12.4918
12.4902
12.489
7.53445
7.53421
7.53398
7.5337
7.53321
7.53223
7.5303
7.52687
7.52189
7.51723
7.53423
7.53399
7.53377
7.53348
7.53299
7.53202
7.53009
7.52667
7.52171
7.5171
7.53408
7.53384
7.53362
7.53333
7.53285
7.53187
7.52995
7.52653
7.52159
7.517
7.53399
7.53375
7.53353
7.53325
7.53276
7.53179
7.52987
7.52646
7.52152
7.51693
7.53395
7.53372
7.53349
7.53321
7.53273
7.53176
7.52984
7.52643
7.5215
7.51692
7.53397
7.53374
7.53352
7.53324
7.53276
7.53179
7.52987
7.52647
7.52154
7.51696
7.53405
7.53382
7.5336
7.53332
7.53285
7.53188
7.52997
7.52656
7.52164
7.51705
7.53418
7.53395
7.53374
7.53347
7.533
7.53204
7.53012
7.52672
7.52179
7.51721
7.53437
7.53416
7.53396
7.5337
7.53322
7.53226
7.53035
7.52695
7.52202
7.51744
7.53459
7.53443
7.53425
7.53399
7.53353
7.53257
7.53066
7.52725
7.52233
7.51775
4.33721
4.33702
4.3368
4.33642
4.33562
4.33381
4.32986
4.32201
4.30877
4.29343
4.33706
4.33687
4.33665
4.33628
4.33548
4.33366
4.32972
4.32187
4.30865
4.29334
4.33696
4.33677
4.33655
4.33617
4.33537
4.33357
4.32962
4.32178
4.30857
4.29327
4.33689
4.33671
4.33649
4.33611
4.33532
4.33351
4.32957
4.32173
4.30852
4.29323
4.33687
4.33669
4.33647
4.33609
4.3353
4.33349
4.32955
4.32172
4.30851
4.29322
4.33689
4.3367
4.33649
4.33612
4.33532
4.33352
4.32958
4.32175
4.30854
4.29325
4.33694
4.33676
4.33655
4.33618
4.33539
4.33358
4.32965
4.32182
4.30861
4.29332
4.33704
4.33687
4.33666
4.33629
4.3355
4.3337
4.32977
4.32193
4.30873
4.29344
4.33718
4.33702
4.33681
4.33645
4.33567
4.33387
4.32993
4.3221
4.30889
4.2936
4.33735
4.33722
4.33703
4.33667
4.33589
4.33409
4.33016
4.32232
4.30912
4.29383
2.38455
2.3844
2.38417
2.38369
2.38252
2.37965
2.37278
2.35718
2.32509
2.27376
2.38445
2.38431
2.38408
2.3836
2.38243
2.37956
2.37269
2.3571
2.32502
2.2737
2.38439
2.38424
2.38401
2.38353
2.38237
2.3795
2.37263
2.35704
2.32497
2.27366
2.38435
2.3842
2.38397
2.38349
2.38233
2.37946
2.37259
2.35701
2.32494
2.27364
2.38433
2.38419
2.38396
2.38348
2.38232
2.37945
2.37258
2.357
2.32494
2.27363
2.38435
2.3842
2.38398
2.3835
2.38234
2.37947
2.3726
2.35702
2.32496
2.27365
2.38439
2.38424
2.38402
2.38354
2.38238
2.37952
2.37265
2.35707
2.325
2.2737
2.38445
2.38431
2.38409
2.38362
2.38246
2.3796
2.37273
2.35715
2.32508
2.27378
2.38455
2.38442
2.3842
2.38373
2.38257
2.37971
2.37284
2.35726
2.32519
2.27389
2.38467
2.38456
2.38435
2.38388
2.38273
2.37986
2.373
2.35742
2.32534
2.27403
1.25289
1.25277
1.25254
1.25199
1.25058
1.24692
1.23748
1.21315
1.14894
0.968115
1.25283
1.25271
1.25248
1.25194
1.25053
1.24686
1.23742
1.2131
1.1489
0.968086
1.25279
1.25267
1.25244
1.2519
1.25049
1.24683
1.23739
1.21307
1.14887
0.968065
1.25277
1.25265
1.25242
1.25188
1.25047
1.24681
1.23737
1.21305
1.14885
0.968054
1.25276
1.25264
1.25242
1.25187
1.25046
1.2468
1.23736
1.21305
1.14885
0.968053
1.25277
1.25265
1.25243
1.25188
1.25047
1.24681
1.23738
1.21306
1.14886
0.968064
1.25279
1.25268
1.25245
1.25191
1.2505
1.24684
1.23741
1.21309
1.14889
0.968089
1.25284
1.25273
1.2525
1.25196
1.25055
1.24689
1.23746
1.21314
1.14894
0.968129
1.2529
1.25279
1.25257
1.25203
1.25063
1.24697
1.23753
1.21321
1.14901
0.968187
1.25298
1.25288
1.25267
1.25213
1.25072
1.24707
1.23763
1.21331
1.1491
0.968267
0.629592
0.629502
0.629297
0.628781
0.627437
0.623985
0.615337
0.594295
0.544968
0.436654
0.62956
0.629469
0.629265
0.628748
0.627405
0.623954
0.615307
0.594267
0.544945
0.436638
0.629537
0.629447
0.629243
0.628726
0.627383
0.623933
0.615287
0.594249
0.544929
0.436627
0.629524
0.629434
0.62923
0.628714
0.627371
0.623921
0.615276
0.594239
0.544921
0.436621
0.62952
0.629431
0.629227
0.628711
0.627369
0.623919
0.615275
0.594238
0.544921
0.436621
0.629527
0.629437
0.629234
0.628718
0.627376
0.623927
0.615283
0.594246
0.544928
0.436628
0.629543
0.629454
0.629251
0.628736
0.627395
0.623946
0.615301
0.594265
0.544945
0.436641
0.62957
0.629482
0.629281
0.628766
0.627425
0.623976
0.615332
0.594294
0.544972
0.436664
0.629608
0.629523
0.629323
0.62881
0.627469
0.624021
0.615376
0.594337
0.545012
0.436696
0.629655
0.629578
0.629381
0.628869
0.627529
0.62408
0.615434
0.594394
0.545065
0.43674
0.302851
0.302785
0.302624
0.302214
0.301169
0.298586
0.292466
0.278756
0.250302
0.198036
0.302833
0.302768
0.302607
0.302197
0.301152
0.298569
0.292451
0.278742
0.25029
0.198028
0.302821
0.302756
0.302595
0.302185
0.301141
0.298558
0.29244
0.278733
0.250282
0.198022
0.302814
0.302749
0.302588
0.302179
0.301134
0.298552
0.292434
0.278728
0.250278
0.198019
0.302812
0.302747
0.302587
0.302177
0.301133
0.298551
0.292434
0.278727
0.250278
0.198019
0.302816
0.302751
0.302591
0.302182
0.301138
0.298556
0.292439
0.278732
0.250282
0.198023
0.302826
0.302761
0.302601
0.302192
0.301149
0.298566
0.292449
0.278742
0.250291
0.19803
0.302841
0.302777
0.302618
0.302209
0.301166
0.298584
0.292467
0.278759
0.250306
0.198042
0.302863
0.302801
0.302643
0.302235
0.301191
0.298609
0.292491
0.278783
0.250328
0.19806
0.30289
0.302832
0.302676
0.302268
0.301225
0.298643
0.292524
0.278814
0.250357
0.198084
0.139582
0.139538
0.139427
0.139146
0.138453
0.136815
0.133159
0.125576
0.111319
0.0881274
0.139573
0.139529
0.139418
0.139138
0.138445
0.136807
0.133152
0.125569
0.111313
0.088123
0.139567
0.139523
0.139412
0.139132
0.138439
0.136801
0.133146
0.125564
0.111309
0.0881202
0.139563
0.13952
0.139409
0.139128
0.138436
0.136798
0.133144
0.125562
0.111307
0.0881188
0.139563
0.139519
0.139408
0.139128
0.138435
0.136798
0.133143
0.125562
0.111307
0.0881189
0.139565
0.139522
0.139411
0.13913
0.138438
0.136801
0.133146
0.125564
0.11131
0.0881209
0.13957
0.139527
0.139416
0.139136
0.138444
0.136806
0.133152
0.12557
0.111315
0.0881249
0.139579
0.139536
0.139425
0.139145
0.138453
0.136816
0.133161
0.125579
0.111322
0.0881313
0.139591
0.139549
0.139439
0.139159
0.138467
0.136829
0.133174
0.125591
0.111334
0.0881406
0.139605
0.139566
0.139457
0.139177
0.138485
0.136848
0.133192
0.125608
0.111349
0.0881531
0.0617013
0.0616748
0.0616061
0.0614358
0.0610301
0.0601133
0.0581763
0.054415
0.0478694
0.0380767
0.0616969
0.0616705
0.0616017
0.0614315
0.0610259
0.0601092
0.0581726
0.0544116
0.0478667
0.0380746
0.0616939
0.0616675
0.0615988
0.0614287
0.0610231
0.0601065
0.05817
0.0544094
0.0478648
0.0380733
0.0616923
0.0616659
0.0615972
0.0614271
0.0610216
0.0601051
0.0581688
0.0544083
0.0478639
0.0380726
0.0616921
0.0616657
0.061597
0.061427
0.0610215
0.0601051
0.0581688
0.0544084
0.047864
0.0380727
0.0616932
0.0616669
0.0615983
0.0614283
0.0610229
0.0601065
0.0581701
0.0544097
0.0478653
0.0380738
0.061696
0.0616697
0.0616012
0.0614313
0.0610259
0.0601095
0.0581731
0.0544125
0.0478677
0.0380758
0.0617004
0.0616743
0.061606
0.0614361
0.0610308
0.0601143
0.0581778
0.054417
0.0478717
0.0380791
0.0617066
0.0616809
0.0616128
0.0614431
0.0610378
0.0601213
0.0581846
0.0544233
0.0478774
0.0380837
0.0617142
0.0616897
0.061622
0.0614524
0.0610471
0.0601306
0.0581936
0.0544318
0.047885
0.03809
0.026186
0.0261712
0.0261327
0.0260395
0.0258248
0.0253595
0.0244229
0.0227017
0.0198814
0.015904
0.026184
0.0261692
0.0261307
0.0260375
0.0258229
0.0253576
0.0244211
0.0227001
0.0198802
0.015903
0.0261826
0.0261679
0.0261293
0.0260362
0.0258216
0.0253564
0.02442
0.0226991
0.0198793
0.0159024
0.0261819
0.0261671
0.0261286
0.0260355
0.0258209
0.0253558
0.0244194
0.0226986
0.0198789
0.0159021
0.0261818
0.0261671
0.0261286
0.0260354
0.0258209
0.0253558
0.0244195
0.0226987
0.019879
0.0159022
0.0261824
0.0261677
0.0261292
0.0260361
0.0258216
0.0253565
0.0244202
0.0226994
0.0198796
0.0159027
0.0261838
0.0261691
0.0261307
0.0260376
0.0258231
0.0253579
0.0244216
0.0227007
0.0198808
0.0159037
0.0261859
0.0261713
0.026133
0.0260399
0.0258255
0.0253603
0.0244239
0.0227029
0.0198827
0.0159052
0.026189
0.0261746
0.0261363
0.0260434
0.0258289
0.0253637
0.0244272
0.0227059
0.0198855
0.0159075
0.0261927
0.0261789
0.0261408
0.0260479
0.0258334
0.0253682
0.0244315
0.02271
0.0198891
0.0159105
0.0106809
0.0106732
0.0106534
0.0106066
0.0105022
0.0102842
0.00986347
0.00912502
0.00797096
0.00641177
0.01068
0.0106723
0.0106525
0.0106057
0.0105013
0.0102833
0.00986272
0.00912435
0.00797041
0.00641135
0.0106794
0.0106717
0.0106519
0.0106051
0.0105007
0.0102828
0.00986222
0.00912391
0.00797005
0.00641107
0.0106791
0.0106714
0.0106516
0.0106048
0.0105005
0.0102825
0.00986198
0.00912371
0.00796989
0.00641095
0.010679
0.0106714
0.0106516
0.0106048
0.0105005
0.0102826
0.00986201
0.00912375
0.00796993
0.006411
0.0106793
0.0106717
0.0106519
0.0106051
0.0105008
0.0102829
0.00986234
0.00912406
0.00797022
0.00641124
0.01068
0.0106724
0.0106526
0.0106058
0.0105015
0.0102836
0.00986301
0.00912469
0.00797077
0.0064117
0.010681
0.0106734
0.0106537
0.0106069
0.0105026
0.0102847
0.00986408
0.00912568
0.00797166
0.00641243
0.0106824
0.0106749
0.0106552
0.0106085
0.0105042
0.0102863
0.00986559
0.00912709
0.00797291
0.00641347
0.0106842
0.010677
0.0106573
0.0106107
0.0105063
0.0102883
0.0098676
0.00912897
0.00797458
0.00641485
0.00419139
0.00418772
0.00417826
0.00415642
0.00410917
0.00401377
0.00383626
0.00353642
0.00308538
0.0024958
0.00419101
0.00418734
0.00417788
0.00415606
0.00410882
0.00401343
0.00383594
0.00353614
0.00308515
0.00249562
0.00419076
0.00418709
0.00417764
0.00415581
0.00410858
0.0040132
0.00383574
0.00353596
0.003085
0.00249551
0.00419063
0.00418697
0.00417751
0.00415569
0.00410846
0.0040131
0.00383564
0.00353588
0.00308493
0.00249546
0.00419063
0.00418697
0.00417751
0.0041557
0.00410848
0.00401311
0.00383566
0.0035359
0.00308496
0.00249548
0.00419076
0.00418711
0.00417766
0.00415585
0.00410863
0.00401326
0.00383581
0.00353604
0.00308508
0.00249559
0.00419105
0.0041874
0.00417796
0.00415616
0.00410894
0.00401357
0.00383611
0.00353632
0.00308533
0.0024958
0.00419151
0.00418787
0.00417845
0.00415665
0.00410943
0.00401406
0.00383658
0.00353676
0.00308572
0.00249612
0.00419214
0.00418854
0.00417914
0.00415736
0.00411014
0.00401475
0.00383724
0.00353738
0.00308627
0.00249658
0.00419293
0.00418944
0.00418007
0.0041583
0.00411108
0.00401568
0.00383813
0.0035382
0.003087
0.00249719
0.00158407
0.00158241
0.00157819
0.00156866
0.00154859
0.00150927
0.00143844
0.00132278
0.00115479
0.000942872
0.00158391
0.00158226
0.00157804
0.00156851
0.00154845
0.00150914
0.00143831
0.00132267
0.0011547
0.000942798
0.00158381
0.00158216
0.00157794
0.00156842
0.00154835
0.00150905
0.00143823
0.0013226
0.00115464
0.000942752
0.00158376
0.00158211
0.00157789
0.00156837
0.00154831
0.001509
0.00143819
0.00132257
0.00115462
0.000942733
0.00158376
0.00158211
0.0015779
0.00156838
0.00154832
0.00150901
0.0014382
0.00132258
0.00115463
0.000942745
0.00158382
0.00158217
0.00157796
0.00156844
0.00154838
0.00150908
0.00143827
0.00132264
0.00115468
0.000942792
0.00158395
0.0015823
0.00157809
0.00156857
0.00154852
0.00150921
0.00143839
0.00132276
0.00115479
0.00094288
0.00158414
0.0015825
0.0015783
0.00156878
0.00154873
0.00150942
0.00143859
0.00132294
0.00115495
0.000943018
0.00158441
0.00158279
0.00157859
0.00156908
0.00154903
0.00150971
0.00143887
0.00132321
0.00115518
0.000943213
0.00158475
0.00158317
0.00157899
0.00156948
0.00154942
0.0015101
0.00143925
0.00132355
0.00115549
0.00094347
0.000577157
0.000576456
0.000574683
0.000570765
0.000562717
0.00054738
0.00052059
0.000478415
0.00042029
0.000355292
0.000577097
0.000576396
0.000574624
0.000570708
0.000562661
0.000547327
0.000520541
0.000478371
0.000420253
0.000355262
0.000577057
0.000576357
0.000574586
0.00057067
0.000562624
0.000547292
0.00052051
0.000478344
0.00042023
0.000355244
0.000577038
0.000576338
0.000574567
0.000570652
0.000562607
0.000547277
0.000520496
0.000478332
0.000420221
0.000355237
0.00057704
0.000576341
0.00057457
0.000570656
0.000562612
0.000547281
0.000520501
0.000478338
0.000420226
0.000355242
0.000577066
0.000576367
0.000574597
0.000570683
0.000562639
0.000547309
0.000520528
0.000478363
0.000420249
0.000355263
0.000577117
0.000576419
0.000574651
0.000570738
0.000562694
0.000547363
0.00052058
0.000478411
0.000420293
0.0003553
0.000577197
0.000576502
0.000574735
0.000570823
0.00056278
0.000547447
0.000520661
0.000478486
0.00042036
0.000355359
0.000577308
0.000576619
0.000574856
0.000570946
0.000562902
0.000547566
0.000520775
0.000478592
0.000420455
0.000355441
0.000577447
0.000576775
0.000575017
0.000571108
0.000563063
0.000547725
0.000520926
0.000478733
0.00042058
0.000355548
0.396145
0.164237
0.0691274
0.0327907
0.0261684
0.0446489
0.104638
0.256507
0.624453
1.51159
0.396131
0.16423
0.0691238
0.0327881
0.0261651
0.0446424
0.104624
0.256478
0.624394
1.51147
0.396122
0.164226
0.0691215
0.0327865
0.0261629
0.0446383
0.104616
0.25646
0.624358
1.5114
0.396117
0.164223
0.0691204
0.0327857
0.0261617
0.0446359
0.104611
0.25645
0.624338
1.51136
0.396117
0.164224
0.0691206
0.0327857
0.0261614
0.0446351
0.104609
0.256447
0.624331
1.51135
0.396123
0.164227
0.0691221
0.0327864
0.0261619
0.0446356
0.10461
0.256449
0.624336
1.51136
0.396135
0.164233
0.0691252
0.032788
0.026163
0.0446371
0.104613
0.256456
0.624352
1.5114
0.396155
0.164242
0.0691299
0.0327905
0.0261648
0.0446396
0.104618
0.256467
0.624377
1.51145
0.396183
0.164256
0.0691365
0.0327939
0.0261672
0.0446427
0.104624
0.256481
0.624409
1.51152
0.396219
0.164273
0.0691445
0.0327979
0.0261698
0.0446457
0.10463
0.256494
0.624439
1.5116
0.237244
0.113763
0.0521816
0.0262878
0.021709
0.0366018
0.0828443
0.192803
0.432035
0.904923
0.237235
0.113759
0.0521788
0.0262857
0.0217063
0.0365966
0.0828334
0.192781
0.431994
0.904852
0.237229
0.113755
0.0521771
0.0262844
0.0217045
0.0365931
0.0828265
0.192767
0.431968
0.904806
0.237226
0.113754
0.0521762
0.0262837
0.0217035
0.0365912
0.0828225
0.192759
0.431953
0.90478
0.237226
0.113754
0.0521764
0.0262837
0.0217032
0.0365905
0.0828211
0.192757
0.431948
0.904772
0.23723
0.113756
0.0521776
0.0262843
0.0217036
0.0365909
0.0828219
0.192759
0.431952
0.90478
0.237239
0.113761
0.0521801
0.0262857
0.0217046
0.0365923
0.0828246
0.192764
0.431964
0.904803
0.237252
0.113768
0.052184
0.0262878
0.0217062
0.0365945
0.0828289
0.192774
0.431983
0.90484
0.237272
0.113779
0.0521895
0.0262908
0.0217084
0.0365974
0.0828347
0.192786
0.432009
0.904892
0.237298
0.113793
0.0521968
0.0262948
0.0217112
0.036601
0.0828416
0.192801
0.432041
0.904956
0.122466
0.0655843
0.0328155
0.0178049
0.0153836
0.0254839
0.0550422
0.120434
0.248612
0.466885
0.122461
0.0655812
0.0328136
0.0178034
0.0153816
0.0254802
0.0550349
0.12042
0.248587
0.466847
0.122457
0.0655792
0.0328124
0.0178024
0.0153803
0.0254777
0.0550301
0.120411
0.248571
0.466821
0.122456
0.0655782
0.0328119
0.017802
0.0153796
0.0254764
0.0550274
0.120406
0.248562
0.466806
0.122456
0.0655784
0.032812
0.017802
0.0153794
0.0254759
0.0550264
0.120405
0.248559
0.466801
0.122458
0.06558
0.0328129
0.0178024
0.0153797
0.0254762
0.055027
0.120406
0.248562
0.466806
0.122463
0.065583
0.0328146
0.0178034
0.0153805
0.0254772
0.055029
0.12041
0.24857
0.46682
0.122472
0.0655879
0.0328173
0.017805
0.0153818
0.0254789
0.0550323
0.120416
0.248583
0.466843
0.122483
0.065595
0.0328213
0.0178073
0.0153835
0.0254813
0.0550368
0.120426
0.248601
0.466875
0.1225
0.0656045
0.0328265
0.0178103
0.0153858
0.0254843
0.0550425
0.120437
0.248624
0.466918
0.058423
0.033833
0.0182267
0.0106218
0.00959306
0.0155882
0.0321115
0.0663366
0.127948
0.222581
0.0584202
0.0338313
0.0182256
0.0106209
0.00959179
0.015586
0.0321071
0.0663288
0.127935
0.222562
0.0584183
0.0338301
0.0182249
0.0106203
0.00959095
0.0155844
0.0321042
0.0663235
0.127927
0.222548
0.0584174
0.0338296
0.0182246
0.01062
0.00959049
0.0155836
0.0321026
0.0663205
0.127922
0.22254
0.0584176
0.0338298
0.0182246
0.01062
0.00959037
0.0155833
0.032102
0.0663195
0.12792
0.222538
0.058419
0.0338307
0.0182252
0.0106203
0.00959058
0.0155835
0.0321024
0.0663203
0.127922
0.222541
0.0584219
0.0338325
0.0182263
0.010621
0.00959111
0.0155842
0.0321037
0.0663228
0.127926
0.222548
0.0584265
0.0338354
0.018228
0.010622
0.00959198
0.0155854
0.0321059
0.066327
0.127934
0.222561
0.0584331
0.0338396
0.0182305
0.0106235
0.0095932
0.015587
0.0321089
0.066333
0.127945
0.22258
0.058442
0.0338452
0.0182338
0.0106255
0.00959481
0.0155892
0.0321129
0.0663408
0.127959
0.222605
0.0263344
0.0161344
0.00923611
0.00573723
0.00538836
0.00859208
0.0169442
0.0332997
0.0608441
0.100246
0.0263329
0.0161335
0.0092355
0.00573669
0.00538762
0.00859078
0.0169419
0.0332956
0.0608376
0.100237
0.026332
0.0161329
0.00923511
0.00573634
0.00538713
0.00858991
0.0169403
0.0332928
0.0608331
0.10023
0.0263316
0.0161327
0.00923494
0.00573617
0.00538686
0.00858942
0.0169394
0.0332912
0.0608306
0.100227
0.0263317
0.0161328
0.00923499
0.00573617
0.0053868
0.00858925
0.016939
0.0332907
0.0608298
0.100225
0.0263325
0.0161333
0.00923531
0.00573636
0.00538693
0.0085894
0.0169393
0.0332912
0.0608306
0.100227
0.026334
0.0161343
0.00923593
0.00573676
0.00538726
0.00858984
0.0169401
0.0332926
0.0608332
0.100231
0.0263364
0.0161358
0.00923691
0.00573739
0.0053878
0.00859058
0.0169414
0.0332951
0.0608374
0.100238
0.0263398
0.0161381
0.00923831
0.00573829
0.00538857
0.00859162
0.0169432
0.0332985
0.0608436
0.100248
0.0263444
0.0161412
0.0092402
0.0057395
0.00538959
0.00859299
0.0169457
0.0333031
0.0608518
0.100261
0.0113171
0.00723103
0.00435124
0.00285702
0.0027736
0.00434539
0.00824434
0.0155302
0.0271811
0.0430382
0.0113164
0.00723058
0.00435093
0.00285674
0.0027732
0.00434472
0.00824315
0.0155282
0.0271781
0.0430338
0.011316
0.0072303
0.00435073
0.00285655
0.00277294
0.00434426
0.00824235
0.0155268
0.0271759
0.0430308
0.0113158
0.00723018
0.00435065
0.00285646
0.0027728
0.004344
0.00824188
0.0155261
0.0271747
0.0430291
0.0113159
0.00723023
0.00435068
0.00285646
0.00277276
0.00434392
0.00824173
0.0155258
0.0271743
0.0430286
0.0113162
0.0072305
0.00435085
0.00285657
0.00277284
0.00434401
0.00824187
0.0155261
0.0271748
0.0430293
0.011317
0.00723101
0.00435118
0.00285679
0.00277303
0.00434426
0.0082423
0.0155268
0.0271761
0.0430314
0.0113182
0.00723182
0.0043517
0.00285714
0.00277334
0.00434468
0.00824303
0.0155281
0.0271783
0.0430348
0.0113199
0.00723297
0.00435244
0.00285764
0.00277378
0.00434528
0.00824407
0.01553
0.0271815
0.0430398
0.0113221
0.00723451
0.00435343
0.0028583
0.00277437
0.00434607
0.00824545
0.0155325
0.0271858
0.0430465
0.00465832
0.00307489
0.00192889
0.00132856
0.00132578
0.00204386
0.00374861
0.00681258
0.0115175
0.0176954
0.00465801
0.00307468
0.00192874
0.00132842
0.00132558
0.00204353
0.00374804
0.00681166
0.0115161
0.0176935
0.00465782
0.00307455
0.00192865
0.00132833
0.00132545
0.00204331
0.00374766
0.00681103
0.0115151
0.0176921
0.00465774
0.0030745
0.00192861
0.00132828
0.00132538
0.00204318
0.00374744
0.00681067
0.0115146
0.0176914
0.00465778
0.00307453
0.00192863
0.00132829
0.00132537
0.00204314
0.00374737
0.00681056
0.0115144
0.0176912
0.00465797
0.00307466
0.00192871
0.00132834
0.00132541
0.00204319
0.00374745
0.0068107
0.0115147
0.0176915
0.00465832
0.0030749
0.00192888
0.00132846
0.00132551
0.00204332
0.00374767
0.00681109
0.0115153
0.0176925
0.00465887
0.00307529
0.00192913
0.00132864
0.00132567
0.00204355
0.00374805
0.00681174
0.0115164
0.0176941
0.00465966
0.00307584
0.0019295
0.00132889
0.00132591
0.00204387
0.00374859
0.00681268
0.0115179
0.0176965
0.00466071
0.00307658
0.00192999
0.00132924
0.00132622
0.00204429
0.0037493
0.00681394
0.01152
0.0176997
0.00184487
0.00125128
0.000813719
0.000584474
0.000596889
0.000906625
0.00161365
0.00284288
0.00466872
0.00699904
0.00184474
0.00125118
0.000813651
0.000584407
0.000596797
0.000906473
0.00161339
0.00284248
0.00466812
0.00699823
0.00184466
0.00125113
0.000813607
0.000584363
0.000596735
0.00090637
0.00161322
0.0028422
0.00466771
0.00699767
0.00184462
0.0012511
0.000813589
0.000584342
0.000596702
0.000906312
0.00161312
0.00284204
0.00466748
0.00699735
0.00184465
0.00125112
0.000813599
0.000584345
0.000596696
0.000906296
0.00161309
0.002842
0.00466742
0.00699728
0.00184473
0.00125118
0.00081364
0.000584372
0.000596718
0.000906321
0.00161313
0.00284207
0.00466753
0.00699745
0.00184489
0.0012513
0.000813718
0.000584428
0.000596768
0.000906387
0.00161324
0.00284225
0.00466783
0.00699789
0.00184514
0.00125147
0.000813839
0.000584516
0.000596851
0.000906499
0.00161342
0.00284256
0.00466833
0.00699863
0.00184549
0.00125172
0.000814012
0.000584641
0.000596969
0.000906658
0.00161368
0.00284301
0.00466905
0.00699971
0.00184596
0.00125206
0.000814241
0.000584806
0.000597124
0.000906869
0.00161404
0.00284361
0.00467002
0.00700115
0.000716498
0.000501171
0.000337897
0.0002526
0.000263369
0.000394309
0.000682086
0.00116657
0.00186152
0.00271394
0.000716443
0.000501131
0.000337866
0.000252568
0.000263326
0.000394239
0.000681972
0.0011664
0.00186126
0.0027136
0.000716408
0.000501106
0.000337846
0.000252548
0.000263298
0.000394193
0.000681895
0.00116628
0.00186109
0.00271337
0.000716395
0.000501097
0.000337839
0.000252539
0.000263283
0.000394166
0.000681852
0.00116621
0.00186099
0.00271324
0.000716406
0.000501105
0.000337843
0.00025254
0.00026328
0.00039416
0.00068184
0.00116619
0.00186097
0.00271321
0.000716443
0.000501133
0.000337863
0.000252553
0.000263291
0.000394173
0.00068186
0.00116622
0.00186102
0.00271329
0.000716514
0.000501185
0.000337899
0.00025258
0.000263316
0.000394205
0.000681912
0.00116631
0.00186116
0.00271349
0.000716623
0.000501265
0.000337956
0.000252623
0.000263357
0.00039426
0.000682
0.00116645
0.00186138
0.00271382
0.000716776
0.000501377
0.000338035
0.000252682
0.000263414
0.000394338
0.000682126
0.00116666
0.00186171
0.00271429
0.000716979
0.000501526
0.00033814
0.000252761
0.00026349
0.000394439
0.000682292
0.00116694
0.00186215
0.00271492
0.000317137
0.000236413
0.000166565
0.000129541
0.000137606
0.000203264
0.000342246
0.000567813
0.00087343
0.00119865
0.000317112
0.000236395
0.00016655
0.000129525
0.000137585
0.000203229
0.000342191
0.000567729
0.000873313
0.00119851
0.000317097
0.000236383
0.00016654
0.000129515
0.000137569
0.000203205
0.000342151
0.000567669
0.000873229
0.0011984
0.000317091
0.000236379
0.000166536
0.00012951
0.000137561
0.000203191
0.000342129
0.000567635
0.000873181
0.00119834
0.000317097
0.000236383
0.000166539
0.000129511
0.00013756
0.000203188
0.000342123
0.000567627
0.000873171
0.00119833
0.000317116
0.000236398
0.00016655
0.000129519
0.000137567
0.000203195
0.000342135
0.000567646
0.000873201
0.00119837
0.000317151
0.000236426
0.00016657
0.000129534
0.000137581
0.000203214
0.000342165
0.000567694
0.000873274
0.00119847
0.000317205
0.000236468
0.000166601
0.000129558
0.000137605
0.000203246
0.000342214
0.000567773
0.000873394
0.00119864
0.00031728
0.000236526
0.000166643
0.000129591
0.000137638
0.00020329
0.000342284
0.000567886
0.000873565
0.00119887
0.000317377
0.000236601
0.000166698
0.000129633
0.000137679
0.000203345
0.000342373
0.00056803
0.000873785
0.00119918
3.69599
4.38656
4.63181
4.72476
4.76087
4.77492
4.78037
4.78253
4.78346
4.7839
3.69575
4.38629
4.63153
4.72447
4.76058
4.77463
4.78009
4.78225
4.7832
4.7837
3.69562
4.38613
4.63136
4.7243
4.76041
4.77446
4.77992
4.7821
4.78306
4.78357
3.69554
4.38604
4.63127
4.72421
4.76032
4.77437
4.77984
4.78201
4.78298
4.78351
3.69552
4.38601
4.63124
4.72418
4.76029
4.77435
4.77982
4.782
4.78297
4.7835
3.69554
4.38604
4.63128
4.72422
4.76033
4.7744
4.77986
4.78205
4.78302
4.78355
3.69561
4.38613
4.63137
4.72433
4.76044
4.77451
4.77998
4.78217
4.78314
4.78367
3.69574
4.38628
4.63154
4.7245
4.76062
4.77469
4.78017
4.78236
4.78333
4.78386
3.6959
4.38649
4.63177
4.72475
4.76088
4.77495
4.78043
4.78262
4.7836
4.78413
3.69608
4.38674
4.63205
4.72504
4.76117
4.77525
4.78073
4.78292
4.7839
4.78443
1.6667
2.0804
2.2688
2.34919
2.38224
2.39546
2.40064
2.40266
2.40348
2.40385
1.66659
2.08027
2.26866
2.34904
2.3821
2.39532
2.40049
2.40252
2.40335
2.40376
1.66652
2.08018
2.26857
2.34895
2.382
2.39522
2.4004
2.40243
2.40327
2.40369
1.66648
2.08013
2.26852
2.34889
2.38195
2.39517
2.40035
2.40238
2.40323
2.40365
1.66646
2.08012
2.2685
2.34888
2.38194
2.39516
2.40034
2.40237