/*--------------------------------*- C++ -*----------------------------------*\
  =========                 |
  \\      /  F ield         | OpenFOAM: The Open Source CFD Toolbox
   \\    /   O peration     | Website:  https://openfoam.org
    \\  /    A nd           | Version:  6
     \\/     M anipulation  |
\*---------------------------------------------------------------------------*/
FoamFile
{
    version     2.0;
    format      ascii;
    class       volScalarField;
    location    "0.69";
    object      T;
}
// * * * * * * * * * * * * * * * * * * * * * * * * * * * * * * * * * * * * * //

dimensions      [0 0 0 1 0 0 0];

internalField   nonuniform List<scalar> 
7000
(
106.166
106.164
106.16
106.154
106.147
106.139
106.132
106.125
106.12
106.118
106.166
106.164
106.16
106.154
106.147
106.139
106.132
106.125
106.12
106.118
106.166
106.164
106.16
106.154
106.147
106.139
106.132
106.125
106.12
106.118
106.166
106.164
106.16
106.154
106.147
106.139
106.132
106.125
106.12
106.118
106.166
106.164
106.16
106.154
106.147
106.139
106.132
106.125
106.12
106.118
106.166
106.164
106.16
106.154
106.147
106.139
106.132
106.125
106.12
106.118
106.166
106.164
106.16
106.154
106.147
106.139
106.132
106.125
106.12
106.118
106.166
106.164
106.16
106.154
106.147
106.139
106.132
106.125
106.12
106.118
106.166
106.164
106.16
106.154
106.147
106.139
106.132
106.125
106.12
106.118
106.166
106.164
106.16
106.154
106.147
106.139
106.132
106.125
106.12
106.118
98.5245
98.5182
98.5059
98.4885
98.4673
98.444
98.4209
98.4003
98.3849
98.3765
98.5245
98.5182
98.5059
98.4885
98.4673
98.444
98.4209
98.4003
98.3848
98.3765
98.5245
98.5182
98.5059
98.4885
98.4673
98.444
98.4209
98.4003
98.3848
98.3765
98.5245
98.5182
98.5059
98.4885
98.4673
98.444
98.4209
98.4003
98.3848
98.3765
98.5245
98.5181
98.5059
98.4885
98.4673
98.444
98.4209
98.4003
98.3848
98.3765
98.5245
98.5181
98.5059
98.4885
98.4673
98.444
98.4209
98.4003
98.3848
98.3765
98.5245
98.5181
98.5059
98.4885
98.4673
98.444
98.4209
98.4003
98.3848
98.3765
98.5245
98.5181
98.5059
98.4885
98.4673
98.444
98.4209
98.4003
98.3848
98.3765
98.5245
98.5182
98.5059
98.4885
98.4673
98.444
98.4209
98.4003
98.3848
98.3765
98.5245
98.5182
98.5059
98.4885
98.4673
98.444
98.4209
98.4003
98.3848
98.3765
90.966
90.955
90.9338
90.9037
90.8667
90.8259
90.7849
90.7482
90.7204
90.7053
90.966
90.955
90.9338
90.9037
90.8667
90.8259
90.7849
90.7482
90.7204
90.7053
90.9659
90.955
90.9338
90.9037
90.8667
90.8258
90.7849
90.7482
90.7204
90.7053
90.9659
90.955
90.9338
90.9036
90.8667
90.8258
90.7849
90.7482
90.7203
90.7053
90.9659
90.955
90.9338
90.9036
90.8667
90.8258
90.7849
90.7482
90.7203
90.7053
90.9659
90.955
90.9338
90.9036
90.8667
90.8258
90.7849
90.7482
90.7203
90.7053
90.9659
90.955
90.9338
90.9036
90.8667
90.8258
90.7849
90.7482
90.7203
90.7053
90.9659
90.955
90.9338
90.9036
90.8667
90.8258
90.7849
90.7482
90.7203
90.7053
90.9659
90.955
90.9338
90.9037
90.8667
90.8258
90.7849
90.7482
90.7204
90.7053
90.9659
90.955
90.9338
90.9037
90.8667
90.8259
90.7849
90.7482
90.7204
90.7053
83.5436
83.5276
83.4964
83.4519
83.3967
83.3351
83.2726
83.2157
83.172
83.1481
83.5436
83.5276
83.4964
83.4518
83.3967
83.3351
83.2725
83.2157
83.172
83.1481
83.5436
83.5276
83.4964
83.4518
83.3967
83.3351
83.2725
83.2157
83.172
83.1481
83.5436
83.5275
83.4964
83.4518
83.3967
83.3351
83.2725
83.2157
83.172
83.1481
83.5436
83.5275
83.4964
83.4518
83.3967
83.3351
83.2725
83.2157
83.172
83.1481
83.5435
83.5275
83.4964
83.4518
83.3967
83.3351
83.2725
83.2157
83.172
83.1481
83.5435
83.5275
83.4964
83.4518
83.3967
83.3351
83.2725
83.2157
83.172
83.1481
83.5436
83.5275
83.4964
83.4518
83.3967
83.3351
83.2725
83.2157
83.172
83.1481
83.5436
83.5276
83.4964
83.4518
83.3967
83.3351
83.2725
83.2157
83.172
83.1481
83.5436
83.5276
83.4964
83.4519
83.3967
83.3351
83.2725
83.2157
83.172
83.1481
76.3091
76.2874
76.245
76.1839
76.1073
76.0204
75.9305
75.8471
75.7816
75.7451
76.3091
76.2874
76.245
76.1838
76.1073
76.0204
75.9305
75.8471
75.7816
75.7451
76.3091
76.2874
76.245
76.1838
76.1073
76.0204
75.9304
75.847
75.7815
75.7451
76.309
76.2874
76.245
76.1838
76.1072
76.0204
75.9304
75.847
75.7815
75.7451
76.309
76.2874
76.2449
76.1838
76.1072
76.0203
75.9304
75.847
75.7815
75.7451
76.309
76.2873
76.2449
76.1838
76.1072
76.0203
75.9304
75.847
75.7815
75.7451
76.309
76.2874
76.2449
76.1838
76.1072
76.0203
75.9304
75.847
75.7815
75.7451
76.309
76.2874
76.245
76.1838
76.1072
76.0204
75.9304
75.847
75.7815
75.7451
76.3091
76.2874
76.245
76.1838
76.1073
76.0204
75.9304
75.847
75.7815
75.7451
76.3091
76.2874
76.245
76.1839
76.1073
76.0204
75.9305
75.8471
75.7816
75.7451
69.3113
69.2834
69.2285
69.1484
69.0466
68.9286
68.8033
68.6834
68.586
68.5302
69.3113
69.2834
69.2284
69.1484
69.0465
68.9286
68.8032
68.6833
68.586
68.5302
69.3112
69.2833
69.2284
69.1483
69.0465
68.9285
68.8032
68.6833
68.5859
68.5302
69.3112
69.2833
69.2284
69.1483
69.0465
68.9285
68.8032
68.6833
68.5859
68.5302
69.3112
69.2833
69.2284
69.1483
69.0465
68.9285
68.8032
68.6833
68.5859
68.5302
69.3112
69.2833
69.2284
69.1483
69.0465
68.9285
68.8031
68.6833
68.5859
68.5302
69.3112
69.2833
69.2284
69.1483
69.0465
68.9285
68.8032
68.6833
68.5859
68.5302
69.3112
69.2833
69.2284
69.1483
69.0465
68.9285
68.8032
68.6833
68.5859
68.5302
69.3112
69.2833
69.2284
69.1483
69.0465
68.9286
68.8032
68.6833
68.586
68.5302
69.3113
69.2834
69.2284
69.1484
69.0466
68.9286
68.8032
68.6833
68.586
68.5302
62.5955
62.561
62.4926
62.3916
62.2608
62.1051
61.9338
61.7626
61.6162
61.5279
62.5954
62.5609
62.4925
62.3916
62.2607
62.1051
61.9338
61.7625
61.6162
61.5279
62.5954
62.5609
62.4925
62.3915
62.2607
62.1051
61.9338
61.7625
61.6161
61.5279
62.5954
62.5608
62.4925
62.3915
62.2607
62.105
61.9337
61.7625
61.6161
61.5278
62.5953
62.5608
62.4924
62.3915
62.2607
62.105
61.9337
61.7625
61.6161
61.5278
62.5953
62.5608
62.4924
62.3915
62.2607
62.105
61.9337
61.7625
61.6161
61.5278
62.5953
62.5608
62.4924
62.3915
62.2607
62.105
61.9337
61.7625
61.6161
61.5278
62.5954
62.5609
62.4925
62.3915
62.2607
62.1051
61.9337
61.7625
61.6161
61.5279
62.5954
62.5609
62.4925
62.3915
62.2607
62.1051
61.9338
61.7625
61.6162
61.5279
62.5954
62.5609
62.4925
62.3916
62.2608
62.1051
61.9338
61.7626
61.6162
61.5279
56.2023
56.1613
56.0795
55.9569
55.7946
55.5953
55.3657
55.1218
54.896
54.7469
56.2023
56.1613
56.0794
55.9569
55.7946
55.5952
55.3657
55.1217
54.896
54.7468
56.2022
56.1613
56.0794
55.9568
55.7945
55.5952
55.3657
55.1217
54.896
54.7468
56.2022
56.1612
56.0794
55.9568
55.7945
55.5952
55.3656
55.1217
54.8959
54.7468
56.2022
56.1612
56.0793
55.9568
55.7945
55.5951
55.3656
55.1217
54.8959
54.7468
56.2022
56.1612
56.0793
55.9568
55.7945
55.5951
55.3656
55.1216
54.8959
54.7468
56.2022
56.1612
56.0794
55.9568
55.7945
55.5952
55.3656
55.1217
54.8959
54.7468
56.2022
56.1612
56.0794
55.9568
55.7945
55.5952
55.3656
55.1217
54.896
54.7468
56.2022
56.1613
56.0794
55.9569
55.7946
55.5952
55.3657
55.1217
54.896
54.7468
56.2023
56.1613
56.0794
55.9569
55.7946
55.5953
55.3657
55.1218
54.896
54.7469
50.1673
50.1207
50.0269
49.8845
49.6915
49.4459
49.1475
48.8034
48.4448
48.1652
50.1673
50.1207
50.0268
49.8844
49.6915
49.4459
49.1474
48.8033
48.4448
48.1651
50.1672
50.1206
50.0268
49.8844
49.6914
49.4458
49.1474
48.8033
48.4447
48.1651
50.1672
50.1206
50.0268
49.8844
49.6914
49.4458
49.1473
48.8033
48.4447
48.1651
50.1672
50.1206
50.0268
49.8843
49.6914
49.4458
49.1473
48.8032
48.4447
48.165
50.1672
50.1206
50.0268
49.8843
49.6914
49.4458
49.1473
48.8032
48.4447
48.165
50.1672
50.1206
50.0268
49.8844
49.6914
49.4458
49.1473
48.8032
48.4447
48.1651
50.1672
50.1206
50.0268
49.8844
49.6914
49.4458
49.1473
48.8033
48.4447
48.1651
50.1672
50.1206
50.0268
49.8844
49.6914
49.4459
49.1474
48.8033
48.4448
48.1651
50.1673
50.1207
50.0269
49.8845
49.6915
49.4459
49.1474
48.8034
48.4448
48.1652
44.5193
44.4689
44.3668
44.2098
43.9929
43.7073
43.3397
42.8724
42.2957
41.6907
44.5193
44.4689
44.3667
44.2098
43.9928
43.7072
43.3396
42.8724
42.2956
41.6907
44.5192
44.4688
44.3667
44.2097
43.9928
43.7072
43.3396
42.8723
42.2955
41.6906
44.5192
44.4688
44.3666
44.2097
43.9928
43.7071
43.3396
42.8723
42.2955
41.6906
44.5192
44.4688
44.3666
44.2097
43.9927
43.7071
43.3395
42.8723
42.2955
41.6906
44.5192
44.4688
44.3666
44.2097
43.9927
43.7071
43.3395
42.8723
42.2955
41.6906
44.5192
44.4688
44.3666
44.2097
43.9928
43.7071
43.3396
42.8723
42.2955
41.6906
44.5192
44.4688
44.3666
44.2097
43.9928
43.7072
43.3396
42.8723
42.2955
41.6906
44.5193
44.4688
44.3667
44.2098
43.9928
43.7072
43.3396
42.8723
42.2956
41.6907
44.5193
44.4689
44.3667
44.2098
43.9929
43.7073
43.3397
42.8724
42.2956
41.6907
39.2797
39.2281
39.1234
38.9616
38.7352
38.4305
38.0213
37.4524
36.5896
35.039
39.2796
39.2281
39.1234
38.9615
38.7351
38.4305
38.0213
37.4523
36.5895
35.0389
39.2796
39.228
39.1233
38.9615
38.7351
38.4304
38.0212
37.4523
36.5895
35.0389
39.2795
39.228
39.1233
38.9614
38.735
38.4304
38.0212
37.4523
36.5895
35.0389
39.2795
39.228
39.1233
38.9614
38.735
38.4304
38.0212
37.4522
36.5894
35.0388
39.2795
39.228
39.1233
38.9614
38.735
38.4304
38.0212
37.4522
36.5894
35.0388
39.2795
39.228
39.1233
38.9614
38.735
38.4304
38.0212
37.4522
36.5894
35.0389
39.2796
39.228
39.1233
38.9615
38.7351
38.4304
38.0212
37.4523
36.5895
35.0389
39.2796
39.2281
39.1233
38.9615
38.7351
38.4304
38.0212
37.4523
36.5895
35.0389
39.2796
39.2281
39.1234
38.9616
38.7352
38.4305
38.0213
37.4524
36.5896
35.039
34.461
34.4117
34.3116
34.1574
33.9424
33.6545
33.2714
32.7511
32.0178
30.955
34.461
34.4116
34.3116
34.1573
33.9423
33.6545
33.2713
32.751
32.0177
30.9549
34.4609
34.4116
34.3115
34.1573
33.9423
33.6544
33.2712
32.751
32.0177
30.9548
34.4609
34.4116
34.3115
34.1572
33.9423
33.6544
33.2712
32.7509
32.0176
30.9548
34.4609
34.4115
34.3115
34.1572
33.9423
33.6544
33.2712
32.7509
32.0176
30.9548
34.4609
34.4115
34.3115
34.1572
33.9423
33.6544
33.2712
32.7509
32.0176
30.9548
34.4609
34.4115
34.3115
34.1572
33.9423
33.6544
33.2712
32.7509
32.0176
30.9548
34.4609
34.4116
34.3115
34.1573
33.9423
33.6544
33.2712
32.751
32.0176
30.9548
34.4609
34.4116
34.3115
34.1573
33.9423
33.6545
33.2713
32.751
32.0177
30.9549
34.461
34.4117
34.3116
34.1574
33.9424
33.6545
33.2713
32.7511
32.0178
30.9549
30.067
30.0232
29.9349
29.8008
29.6176
29.3802
29.0794
28.7027
28.2404
27.7164
30.067
30.0231
29.9349
29.8007
29.6176
29.3801
29.0793
28.7026
28.2404
27.7163
30.0669
30.0231
29.9348
29.8007
29.6175
29.3801
29.0793
28.7026
28.2403
27.7163
30.0669
30.0231
29.9348
29.8006
29.6175
29.38
29.0792
28.7026
28.2403
27.7162
30.0669
30.0231
29.9348
29.8006
29.6175
29.38
29.0792
28.7025
28.2403
27.7162
30.0669
30.0231
29.9348
29.8006
29.6175
29.38
29.0792
28.7025
28.2403
27.7162
30.0669
30.0231
29.9348
29.8006
29.6175
29.38
29.0792
28.7026
28.2403
27.7162
30.0669
30.0231
29.9348
29.8007
29.6175
29.38
29.0792
28.7026
28.2403
27.7163
30.067
30.0231
29.9349
29.8007
29.6176
29.3801
29.0793
28.7026
28.2404
27.7163
30.067
30.0232
29.9349
29.8008
29.6176
29.3802
29.0794
28.7027
28.2404
27.7164
26.0926
26.0569
25.9862
25.8815
25.7448
25.579
25.3892
25.1866
24.9978
24.8873
26.0925
26.0569
25.9861
25.8815
25.7448
25.5789
25.3892
25.1865
24.9978
24.8873
26.0925
26.0568
25.9861
25.8814
25.7447
25.5789
25.3891
25.1865
24.9977
24.8872
26.0925
26.0568
25.986
25.8814
25.7447
25.5789
25.3891
25.1865
24.9977
24.8872
26.0925
26.0568
25.986
25.8814
25.7447
25.5789
25.3891
25.1864
24.9977
24.8871
26.0925
26.0568
25.986
25.8814
25.7447
25.5789
25.3891
25.1864
24.9977
24.8871
26.0925
26.0568
25.986
25.8814
25.7447
25.5789
25.3891
25.1865
24.9977
24.8872
26.0925
26.0568
25.9861
25.8814
25.7447
25.5789
25.3891
25.1865
24.9977
24.8872
26.0925
26.0568
25.9861
25.8815
25.7448
25.5789
25.3892
25.1865
24.9978
24.8873
26.0926
26.0569
25.9862
25.8815
25.7448
25.579
25.3892
25.1866
24.9978
24.8873
22.5248
22.4989
22.449
22.379
22.2956
22.2094
22.1365
22.1028
22.1498
22.3448
22.5248
22.4988
22.4489
22.3789
22.2956
22.2093
22.1365
22.1027
22.1497
22.3447
22.5247
22.4988
22.4489
22.3789
22.2955
22.2093
22.1364
22.1027
22.1497
22.3447
22.5247
22.4988
22.4488
22.3788
22.2955
22.2092
22.1364
22.1026
22.1497
22.3446
22.5247
22.4988
22.4488
22.3788
22.2955
22.2092
22.1364
22.1026
22.1496
22.3446
22.5247
22.4988
22.4488
22.3788
22.2955
22.2092
22.1364
22.1026
22.1496
22.3446
22.5247
22.4988
22.4488
22.3788
22.2955
22.2092
22.1364
22.1026
22.1497
22.3446
22.5247
22.4988
22.4489
22.3789
22.2955
22.2093
22.1364
22.1027
22.1497
22.3447
22.5248
22.4988
22.4489
22.3789
22.2956
22.2093
22.1365
22.1027
22.1497
22.3447
22.5248
22.4989
22.4489
22.379
22.2956
22.2094
22.1365
22.1028
22.1498
22.3448
19.3447
19.3289
19.3005
19.2657
19.2354
19.2261
19.262
19.3776
19.6203
20.0503
19.3447
19.3289
19.3004
19.2657
19.2354
19.2261
19.2619
19.3776
19.6202
20.0503
19.3446
19.3289
19.3004
19.2656
19.2353
19.226
19.2619
19.3775
19.6201
20.0502
19.3446
19.3288
19.3003
19.2656
19.2353
19.226
19.2619
19.3775
19.6201
20.0502
19.3446
19.3288
19.3003
19.2656
19.2353
19.226
19.2619
19.3775
19.6201
20.0501
19.3446
19.3288
19.3003
19.2656
19.2353
19.226
19.2619
19.3775
19.6201
20.0501
19.3446
19.3288
19.3003
19.2656
19.2353
19.226
19.2619
19.3775
19.6201
20.0502
19.3446
19.3289
19.3004
19.2656
19.2353
19.226
19.2619
19.3775
19.6201
20.0502
19.3447
19.3289
19.3004
19.2657
19.2354
19.2261
19.2619
19.3776
19.6202
20.0502
19.3447
19.3289
19.3005
19.2657
19.2354
19.2261
19.262
19.3776
19.6202
20.0503
16.5289
16.5225
16.5137
16.5108
16.5276
16.5848
16.7126
16.9527
17.3579
17.9861
16.5288
16.5225
16.5137
16.5108
16.5275
16.5847
16.7126
16.9527
17.3579
17.986
16.5288
16.5224
16.5137
16.5108
16.5275
16.5847
16.7125
16.9526
17.3578
17.9859
16.5288
16.5224
16.5136
16.5107
16.5274
16.5847
16.7125
16.9526
17.3578
17.9859
16.5287
16.5224
16.5136
16.5107
16.5274
16.5846
16.7125
16.9526
17.3578
17.9859
16.5287
16.5224
16.5136
16.5107
16.5274
16.5846
16.7125
16.9526
17.3578
17.9859
16.5288
16.5224
16.5136
16.5107
16.5274
16.5847
16.7125
16.9526
17.3578
17.9859
16.5288
16.5224
16.5137
16.5108
16.5275
16.5847
16.7126
16.9526
17.3578
17.9859
16.5288
16.5225
16.5137
16.5108
16.5275
16.5847
16.7126
16.9527
17.3579
17.986
16.5288
16.5225
16.5137
16.5108
16.5276
16.5848
16.7127
16.9527
17.3579
17.9861
14.0513
14.0527
14.06
14.0825
14.1356
14.2429
14.439
14.7732
15.311
16.1264
14.0512
14.0527
14.06
14.0825
14.1356
14.2429
14.439
14.7731
15.311
16.1263
14.0512
14.0526
14.06
14.0824
14.1355
14.2428
14.4389
14.7731
15.3109
16.1263
14.0511
14.0526
14.0599
14.0824
14.1355
14.2428
14.4389
14.773
15.3109
16.1263
14.0511
14.0526
14.0599
14.0824
14.1355
14.2428
14.4389
14.773
15.3109
16.1262
14.0511
14.0526
14.0599
14.0824
14.1355
14.2428
14.4389
14.773
15.3109
16.1262
14.0511
14.0526
14.0599
14.0824
14.1355
14.2428
14.4389
14.7731
15.3109
16.1263
14.0512
14.0526
14.06
14.0824
14.1355
14.2428
14.4389
14.7731
15.3109
16.1263
14.0512
14.0527
14.06
14.0825
14.1356
14.2429
14.439
14.7731
15.311
16.1263
14.0512
14.0527
14.06
14.0825
14.1356
14.2429
14.439
14.7732
15.311
16.1264
11.8849
11.892
11.9106
11.95
12.0258
12.1618
12.3943
12.779
13.4038
14.4029
11.8849
11.8919
11.9106
11.95
12.0258
12.1618
12.3942
12.7789
13.4038
14.4029
11.8848
11.8919
11.9105
11.95
12.0257
12.1617
12.3942
12.7789
13.4037
14.4028
11.8848
11.8919
11.9105
11.95
12.0257
12.1617
12.3942
12.7789
13.4037
14.4028
11.8848
11.8919
11.9105
11.9499
12.0257
12.1617
12.3941
12.7789
13.4037
14.4028
11.8848
11.8919
11.9105
11.9499
12.0257
12.1617
12.3941
12.7789
13.4037
14.4028
11.8848
11.8919
11.9105
11.95
12.0257
12.1617
12.3942
12.7789
13.4037
14.4028
11.8848
11.8919
11.9105
11.95
12.0257
12.1617
12.3942
12.7789
13.4037
14.4028
11.8848
11.8919
11.9106
11.95
12.0258
12.1618
12.3942
12.779
13.4038
14.4029
11.8849
11.892
11.9106
11.9501
12.0258
12.1618
12.3943
12.779
13.4038
14.4029
10.0031
10.0135
10.0383
10.0857
10.1694
10.3101
10.5393
10.9078
11.5131
12.5976
10.0031
10.0135
10.0382
10.0857
10.1694
10.3101
10.5392
10.9077
11.5131
12.5976
10.0031
10.0134
10.0382
10.0856
10.1693
10.3101
10.5392
10.9077
11.513
12.5976
10.0031
10.0134
10.0382
10.0856
10.1693
10.31
10.5392
10.9077
11.513
12.5975
10.003
10.0134
10.0382
10.0856
10.1693
10.31
10.5391
10.9077
11.513
12.5975
10.003
10.0134
10.0382
10.0856
10.1693
10.31
10.5391
10.9077
11.513
12.5975
10.0031
10.0134
10.0382
10.0856
10.1693
10.31
10.5392
10.9077
11.513
12.5975
10.0031
10.0134
10.0382
10.0856
10.1694
10.3101
10.5392
10.9077
11.5131
12.5976
10.0031
10.0135
10.0382
10.0857
10.1694
10.3101
10.5392
10.9078
11.5131
12.5976
10.0031
10.0135
10.0383
10.0857
10.1694
10.3101
10.5393
10.9078
11.5132
12.5977
31.3991
30.1509
30.562
32.3957
35.6348
40.4037
46.9694
55.8057
67.7695
84.5727
31.399
30.1508
30.5619
32.3956
35.6347
40.4036
46.9692
55.8055
67.7693
84.5726
31.3989
30.1508
30.5618
32.3955
35.6346
40.4035
46.9691
55.8054
67.7692
84.5724
31.3989
30.1507
30.5618
32.3954
35.6346
40.4034
46.9691
55.8053
67.7691
84.5724
31.3989
30.1507
30.5617
32.3954
35.6345
40.4034
46.969
55.8053
67.7691
84.5723
31.3989
30.1507
30.5617
32.3954
35.6345
40.4034
46.969
55.8053
67.7691
84.5723
31.3989
30.1507
30.5617
32.3954
35.6345
40.4034
46.9691
55.8053
67.7691
84.5723
31.3989
30.1507
30.5618
32.3955
35.6346
40.4034
46.9691
55.8054
67.7692
84.5724
31.399
30.1508
30.5618
32.3955
35.6346
40.4035
46.9692
55.8054
67.7692
84.5725
31.399
30.1508
30.5619
32.3956
35.6347
40.4036
46.9693
55.8055
67.7693
84.5726
29.5453
29.0823
29.7804
31.6819
34.8479
39.4016
45.5459
53.5775
63.8807
76.7732
29.5453
29.0822
29.7803
31.6818
34.8477
39.4015
45.5457
53.5773
63.8806
76.773
29.5452
29.0822
29.7803
31.6817
34.8477
39.4014
45.5456
53.5772
63.8804
76.7729
29.5452
29.0821
29.7802
31.6816
34.8476
39.4014
45.5456
53.5772
63.8804
76.7728
29.5451
29.0821
29.7802
31.6816
34.8476
39.4013
45.5455
53.5771
63.8803
76.7728
29.5451
29.0821
29.7802
31.6816
34.8476
39.4013
45.5455
53.5771
63.8803
76.7728
29.5451
29.0821
29.7802
31.6816
34.8476
39.4013
45.5455
53.5772
63.8804
76.7728
29.5452
29.0821
29.7802
31.6817
34.8476
39.4014
45.5456
53.5772
63.8804
76.7729
29.5452
29.0822
29.7803
31.6817
34.8477
39.4015
45.5457
53.5773
63.8805
76.7729
29.5453
29.0823
29.7804
31.6818
34.8478
39.4016
45.5458
53.5774
63.8806
76.7731
27.2888
27.4438
28.4352
30.3925
33.4125
37.5997
43.0771
49.9712
58.3463
68.0204
27.2887
27.4437
28.4351
30.3924
33.4124
37.5996
43.077
49.9711
58.3462
68.0202
27.2887
27.4436
28.435
30.3923
33.4123
37.5995
43.0769
49.971
58.3461
68.0201
27.2886
27.4436
28.4349
30.3923
33.4123
37.5994
43.0768
49.9709
58.346
68.02
27.2886
27.4435
28.4349
30.3922
33.4122
37.5994
43.0768
49.9708
58.346
68.02
27.2886
27.4435
28.4349
30.3922
33.4122
37.5994
43.0768
49.9708
58.346
68.02
27.2886
27.4436
28.4349
30.3923
33.4122
37.5994
43.0768
49.9709
58.346
68.02
27.2887
27.4436
28.435
30.3923
33.4123
37.5994
43.0769
49.9709
58.3461
68.0201
27.2887
27.4437
28.435
30.3924
33.4124
37.5995
43.0769
49.971
58.3461
68.0202
27.2888
27.4437
28.4351
30.3925
33.4125
37.5996
43.0771
49.9711
58.3463
68.0203
24.9955
25.5582
26.7595
28.7239
31.5425
35.2898
40.0241
45.7658
52.4432
59.7936
24.9954
25.5581
26.7594
28.7238
31.5423
35.2897
40.024
45.7657
52.4431
59.7934
24.9953
25.5581
26.7593
28.7237
31.5423
35.2896
40.0239
45.7656
52.443
59.7933
24.9953
25.558
26.7593
28.7237
31.5422
35.2895
40.0238
45.7655
52.4429
59.7933
24.9953
25.558
26.7593
28.7236
31.5422
35.2895
40.0238
45.7655
52.4429
59.7932
24.9953
25.558
26.7593
28.7236
31.5422
35.2895
40.0238
45.7655
52.4429
59.7932
24.9953
25.558
26.7593
28.7236
31.5422
35.2895
40.0238
45.7655
52.4429
59.7932
24.9953
25.5581
26.7593
28.7237
31.5422
35.2896
40.0239
45.7656
52.443
59.7933
24.9954
25.5581
26.7594
28.7238
31.5423
35.2896
40.024
45.7656
52.4431
59.7934
24.9954
25.5582
26.7595
28.7239
31.5424
35.2898
40.0241
45.7658
52.4432
59.7936
22.7902
23.6185
24.9495
26.8761
29.4662
32.7637
36.7826
41.4907
46.7788
52.4231
22.7901
23.6184
24.9494
26.876
29.4661
32.7635
36.7825
41.4906
46.7787
52.4229
22.7901
23.6183
24.9493
26.8759
29.466
32.7635
36.7824
41.4905
46.7786
52.4228
22.79
23.6183
24.9492
26.8759
29.466
32.7634
36.7824
41.4904
46.7785
52.4228
22.79
23.6183
24.9492
26.8759
29.466
32.7634
36.7823
41.4904
46.7785
52.4227
22.79
23.6183
24.9492
26.8759
29.466
32.7634
36.7823
41.4904
46.7785
52.4227
22.79
23.6183
24.9492
26.8759
29.466
32.7634
36.7824
41.4904
46.7785
52.4228
22.79
23.6183
24.9493
26.8759
29.466
32.7635
36.7824
41.4905
46.7786
52.4228
22.7901
23.6184
24.9493
26.876
29.4661
32.7635
36.7825
41.4906
46.7787
52.4229
22.7902
23.6185
24.9494
26.8761
29.4662
32.7636
36.7826
41.4907
46.7788
52.4231
20.7374
21.7521
23.163
25.0294
27.3932
30.2728
33.6545
37.4825
41.6474
45.9809
20.7373
21.752
23.1629
25.0293
27.3931
30.2727
33.6544
37.4824
41.6473
45.9808
20.7373
21.7519
23.1629
25.0292
27.393
30.2726
33.6543
37.4823
41.6472
45.9807
20.7372
21.7519
23.1628
25.0292
27.393
30.2725
33.6543
37.4823
41.6471
45.9806
20.7372
21.7519
23.1628
25.0291
27.3929
30.2725
33.6542
37.4822
41.6471
45.9806
20.7372
21.7519
23.1628
25.0291
27.3929
30.2725
33.6542
37.4822
41.6471
45.9806
20.7372
21.7519
23.1628
25.0292
27.393
30.2725
33.6543
37.4823
41.6471
45.9806
20.7373
21.7519
23.1629
25.0292
27.393
30.2726
33.6543
37.4823
41.6472
45.9807
20.7373
21.752
23.1629
25.0293
27.3931
30.2727
33.6544
37.4824
41.6473
45.9808
20.7374
21.7521
23.163
25.0294
27.3932
30.2728
33.6545
37.4825
41.6474
45.9809
18.8814
20.0544
21.5293
23.3376
25.5016
28.0213
30.8649
33.9634
37.2118
40.483
18.8813
20.0544
21.5292
23.3375
25.5015
28.0212
30.8648
33.9633
37.2117
40.4828
18.8813
20.0543
21.5292
23.3374
25.5015
28.0211
30.8647
33.9632
37.2116
40.4827
18.8812
20.0543
21.5291
23.3374
25.5014
28.0211
30.8647
33.9632
37.2115
40.4827
18.8812
20.0542
21.5291
23.3374
25.5014
28.0211
30.8646
33.9632
37.2115
40.4827
18.8812
20.0542
21.5291
23.3374
25.5014
28.0211
30.8646
33.9632
37.2115
40.4827
18.8812
20.0543
21.5291
23.3374
25.5014
28.0211
30.8647
33.9632
37.2115
40.4827
18.8813
20.0543
21.5292
23.3374
25.5015
28.0211
30.8647
33.9633
37.2116
40.4828
18.8813
20.0544
21.5292
23.3375
25.5015
28.0212
30.8648
33.9633
37.2117
40.4829
18.8814
20.0544
21.5293
23.3376
25.5016
28.0213
30.8649
33.9635
37.2118
40.483
17.2581
18.6074
20.1582
21.9302
23.9384
26.1726
28.5875
31.0994
33.5923
35.9468
17.258
18.6073
20.1581
21.9301
23.9383
26.1725
28.5874
31.0993
33.5921
35.9467
17.258
18.6072
20.1581
21.9301
23.9382
26.1724
28.5873
31.0992
33.5921
35.9466
17.2579
18.6072
20.158
21.93
23.9382
26.1724
28.5873
31.0991
33.592
35.9466
17.2579
18.6072
20.158
21.93
23.9382
26.1723
28.5872
31.0991
33.592
35.9466
17.2579
18.6072
20.158
21.93
23.9382
26.1723
28.5872
31.0991
33.592
35.9466
17.258
18.6072
20.158
21.93
23.9382
26.1724
28.5873
31.0991
33.592
35.9466
17.258
18.6073
20.1581
21.9301
23.9382
26.1724
28.5873
31.0992
33.5921
35.9467
17.258
18.6073
20.1581
21.9301
23.9383
26.1725
28.5874
31.0993
33.5922
35.9467
17.2581
18.6074
20.1582
21.9302
23.9384
26.1726
28.5875
31.0994
33.5923
35.9469
15.9118
17.498
19.1502
20.9156
22.8213
24.8564
26.9646
29.0398
30.9258
32.4378
15.9117
17.4979
19.1502
20.9155
22.8212
24.8563
26.9645
29.0397
30.9256
32.4377
15.9116
17.4978
19.1501
20.9155
22.8212
24.8562
26.9644
29.0397
30.9256
32.4376
15.9116
17.4978
19.1501
20.9154
22.8211
24.8562
26.9644
29.0396
30.9255
32.4375
15.9116
17.4978
19.1501
20.9154
22.8211
24.8561
26.9644
29.0396
30.9255
32.4375
15.9116
17.4978
19.1501
20.9154
22.8211
24.8561
26.9644
29.0396
30.9255
32.4375
15.9116
17.4978
19.1501
20.9154
22.8211
24.8562
26.9644
29.0396
30.9255
32.4375
15.9117
17.4979
19.1501
20.9155
22.8212
24.8562
26.9644
29.0397
30.9256
32.4376
15.9117
17.4979
19.1502
20.9155
22.8212
24.8563
26.9645
29.0398
30.9257
32.4377
15.9118
17.498
19.1503
20.9156
22.8213
24.8564
26.9646
29.0399
30.9258
32.4378
14.9655
16.8496
18.6039
20.3808
22.238
24.1702
26.114
27.94
29.4276
30.1988
14.9655
16.8495
18.6038
20.3807
22.238
24.1702
26.114
27.9399
29.4275
30.1987
14.9654
16.8495
18.6038
20.3807
22.2379
24.1701
26.1139
27.9398
29.4274
30.1986
14.9654
16.8494
18.6038
20.3806
22.2379
24.1701
26.1139
27.9398
29.4274
30.1986
14.9654
16.8494
18.6037
20.3806
22.2379
24.17
26.1138
27.9398
29.4274
30.1986
14.9654
16.8494
18.6037
20.3806
22.2379
24.1701
26.1138
27.9398
29.4274
30.1986
14.9654
16.8494
18.6038
20.3806
22.2379
24.1701
26.1139
27.9398
29.4274
30.1986
14.9655
16.8495
18.6038
20.3807
22.2379
24.1701
26.1139
27.9399
29.4275
30.1987
14.9655
16.8495
18.6039
20.3808
22.238
24.1702
26.114
27.9399
29.4276
30.1988
14.9656
16.8496
18.604
20.3808
22.2381
24.1703
26.1141
27.9401
29.4277
30.1989
110.176
122.3
129.692
134.841
138.632
141.466
143.558
145.039
145.986
146.45
110.176
122.3
129.692
134.841
138.632
141.466
143.558
145.038
145.986
146.449
110.176
122.299
129.692
134.841
138.632
141.466
143.558
145.038
145.986
146.449
110.175
122.299
129.692
134.84
138.632
141.466
143.558
145.038
145.986
146.449
110.175
122.299
129.692
134.84
138.632
141.465
143.558
145.038
145.986
146.449
110.175
122.299
129.692
134.84
138.632
141.465
143.558
145.038
145.986
146.449
110.175
122.299
129.692
134.84
138.632
141.466
143.558
145.038
145.986
146.449
110.175
122.299
129.692
134.841
138.632
141.466
143.558
145.038
145.986
146.449
110.176
122.3
129.692
134.841
138.632
141.466
143.558
145.038
145.986
146.449
110.176
122.3
129.692
134.841
138.632
141.466
143.558
145.038
145.987
146.45
91.6103
102.383
109.972
115.457
119.51
122.526
124.741
126.301
127.297
127.782
91.6102
102.383
109.972
115.457
119.51
122.526
124.741
126.301
127.297
127.782
91.61
102.383
109.972
115.456
119.51
122.526
124.741
126.301
127.296
127.782
91.61
102.383
109.972
115.456
119.51
122.526
124.741
126.301
127.296
127.782
91.6099
102.383
109.972
115.456
119.51
122.526
124.741
126.301
127.296
127.782
91.6099
102.383
109.972
115.456
119.51
122.526
124.741
126.301
127.296
127.782
91.6099
102.383
109.972
115.456
119.51
122.526
124.741
126.301
127.296
127.782
91.61
102.383
109.972
115.456
119.51
122.526
124.741
126.301
127.297
127.782
91.6101
102.383
109.972
115.457
119.51
122.526
124.741
126.301
127.297
127.782
91.6103
102.383
109.972
115.457
119.51
122.526
124.741
126.301
127.297
127.782
78.1444
86.7224
93.4587
98.6316
102.576
105.558
107.764
109.324
110.322
110.809
78.1442
86.7222
93.4585
98.6314
102.576
105.557
107.764
109.324
110.322
110.809
78.1441
86.7221
93.4584
98.6313
102.576
105.557
107.764
109.324
110.322
110.809
78.144
86.722
93.4583
98.6312
102.576
105.557
107.764
109.324
110.321
110.808
78.144
86.722
93.4583
98.6312
102.576
105.557
107.764
109.324
110.321
110.808
78.144
86.722
93.4583
98.6312
102.576
105.557
107.764
109.324
110.321
110.808
78.144
86.722
93.4583
98.6312
102.576
105.557
107.764
109.324
110.321
110.808
78.1441
86.7221
93.4584
98.6313
102.576
105.557
107.764
109.324
110.322
110.809
78.1442
86.7222
93.4585
98.6314
102.576
105.557
107.764
109.324
110.322
110.809
78.1443
86.7223
93.4587
98.6316
102.576
105.558
107.764
109.324
110.322
110.809
67.2423
73.9578
79.5952
84.1492
87.7435
90.5216
92.6072
94.0951
95.052
95.5204
67.2422
73.9577
79.595
84.149
87.7433
90.5215
92.6071
94.0949
95.0519
95.5203
67.2421
73.9576
79.5949
84.1489
87.7432
90.5213
92.6069
94.0948
95.0518
95.5202
67.242
73.9575
79.5948
84.1488
87.7432
90.5213
92.6069
94.0947
95.0517
95.5201
67.2419
73.9574
79.5948
84.1488
87.7431
90.5212
92.6068
94.0947
95.0517
95.5201
67.2419
73.9574
79.5948
84.1488
87.7431
90.5212
92.6068
94.0947
95.0517
95.5201
67.242
73.9575
79.5948
84.1488
87.7432
90.5213
92.6069
94.0947
95.0517
95.5201
67.2421
73.9576
79.5949
84.1489
87.7432
90.5214
92.607
94.0948
95.0518
95.5202
67.2422
73.9577
79.595
84.149
87.7434
90.5215
92.6071
94.095
95.052
95.5204
67.2423
73.9578
79.5952
84.1492
87.7435
90.5217
92.6073
94.0951
95.0521
95.5205
58.0679
63.3014
67.8766
71.7155
74.8398
77.3108
79.1969
80.5579
81.4398
81.8733
58.0677
63.3013
67.8764
71.7154
74.8396
77.3106
79.1967
80.5578
81.4397
81.8732
58.0676
63.3012
67.8763
71.7153
74.8395
77.3105
79.1966
80.5576
81.4396
81.8731
58.0676
63.3011
67.8762
71.7152
74.8394
77.3105
79.1965
80.5576
81.4395
81.873
58.0675
63.3011
67.8762
71.7151
74.8394
77.3104
79.1965
80.5575
81.4395
81.873
58.0675
63.3011
67.8762
71.7152
74.8394
77.3104
79.1965
80.5576
81.4395
81.873
58.0676
63.3011
67.8762
71.7152
74.8394
77.3105
79.1966
80.5576
81.4396
81.8731
58.0676
63.3012
67.8763
71.7153
74.8395
77.3106
79.1967
80.5577
81.4397
81.8732
58.0677
63.3013
67.8764
71.7154
74.8396
77.3107
79.1968
80.5578
81.4398
81.8733
58.0679
63.3015
67.8766
71.7156
74.8398
77.3109
79.197
80.558
81.44
81.8735
50.27
54.3019
57.922
61.0505
63.6658
65.7806
67.4227
68.6227
69.407
69.7943
50.2699
54.3017
57.9218
61.0503
63.6656
65.7804
67.4226
68.6226
69.4068
69.7942
50.2698
54.3016
57.9217
61.0502
63.6655
65.7803
67.4225
68.6225
69.4067
69.7941
50.2697
54.3015
57.9217
61.0501
63.6654
65.7803
67.4224
68.6224
69.4067
69.794
50.2697
54.3015
57.9216
61.0501
63.6654
65.7802
67.4224
68.6224
69.4066
69.794
50.2697
54.3015
57.9216
61.0501
63.6654
65.7802
67.4224
68.6224
69.4067
69.794
50.2697
54.3015
57.9217
61.0502
63.6654
65.7803
67.4224
68.6224
69.4067
69.7941
50.2698
54.3016
57.9217
61.0502
63.6655
65.7804
67.4225
68.6225
69.4068
69.7942
50.2699
54.3017
57.9219
61.0504
63.6656
65.7805
67.4227
68.6227
69.4069
69.7943
50.27
54.3019
57.922
61.0505
63.6658
65.7806
67.4228
68.6228
69.4071
69.7945
43.6613
46.675
49.4464
51.9095
54.0237
55.7722
57.1543
58.1779
58.853
59.1882
43.6612
46.6749
49.4462
51.9094
54.0236
55.7721
57.1542
58.1778
58.8529
59.1881
43.6611
46.6748
49.4461
51.9093
54.0235
55.772
57.1541
58.1777
58.8528
59.188
43.661
46.6747
49.4461
51.9092
54.0234
55.7719
57.154
58.1776
58.8527
59.188
43.661
46.6747
49.446
51.9092
54.0234
55.7719
57.154
58.1776
58.8527
59.188
43.661
46.6747
49.4461
51.9092
54.0234
55.7719
57.154
58.1776
58.8527
59.188
43.661
46.6747
49.4461
51.9092
54.0235
55.7719
57.1541
58.1776
58.8528
59.188
43.6611
46.6748
49.4462
51.9093
54.0235
55.772
57.1542
58.1777
58.8529
59.1881
43.6612
46.6749
49.4463
51.9094
54.0237
55.7721
57.1543
58.1778
58.853
59.1883
43.6613
46.6751
49.4464
51.9096
54.0238
55.7723
57.1544
58.178
58.8531
59.1884
38.1127
40.2101
42.2205
44.0792
45.7272
47.1256
48.2528
49.0998
49.6639
49.9457
38.1126