/*--------------------------------*- C++ -*----------------------------------*\
  =========                 |
  \\      /  F ield         | OpenFOAM: The Open Source CFD Toolbox
   \\    /   O peration     | Website:  https://openfoam.org
    \\  /    A nd           | Version:  6
     \\/     M anipulation  |
\*---------------------------------------------------------------------------*/
FoamFile
{
    version     2.0;
    format      ascii;
    class       volScalarField;
    location    "0.385";
    object      T;
}
// * * * * * * * * * * * * * * * * * * * * * * * * * * * * * * * * * * * * * //

dimensions      [0 0 0 1 0 0 0];

internalField   nonuniform List<scalar> 
7000
(
104.967
104.966
104.963
104.959
104.954
104.948
104.942
104.937
104.933
104.931
104.967
104.966
104.963
104.959
104.954
104.948
104.942
104.937
104.933
104.931
104.967
104.966
104.963
104.959
104.954
104.948
104.942
104.937
104.933
104.931
104.967
104.966
104.963
104.959
104.954
104.948
104.942
104.937
104.933
104.931
104.967
104.966
104.963
104.959
104.954
104.948
104.942
104.937
104.933
104.931
104.967
104.966
104.963
104.959
104.954
104.948
104.942
104.937
104.933
104.931
104.967
104.966
104.963
104.959
104.954
104.948
104.942
104.937
104.933
104.931
104.967
104.966
104.963
104.959
104.954
104.948
104.942
104.937
104.933
104.931
104.967
104.966
104.963
104.959
104.954
104.948
104.942
104.937
104.933
104.931
104.967
104.966
104.963
104.959
104.954
104.948
104.942
104.937
104.933
104.931
94.9671
94.9625
94.9535
94.9407
94.9248
94.9069
94.8887
94.8723
94.8597
94.8528
94.967
94.9624
94.9535
94.9407
94.9247
94.9068
94.8887
94.8722
94.8596
94.8528
94.967
94.9624
94.9535
94.9407
94.9247
94.9068
94.8887
94.8722
94.8596
94.8528
94.967
94.9624
94.9535
94.9406
94.9247
94.9068
94.8886
94.8722
94.8596
94.8528
94.967
94.9624
94.9535
94.9406
94.9247
94.9068
94.8886
94.8722
94.8596
94.8528
94.967
94.9624
94.9535
94.9406
94.9247
94.9068
94.8886
94.8722
94.8596
94.8528
94.967
94.9624
94.9535
94.9406
94.9247
94.9068
94.8886
94.8722
94.8596
94.8528
94.967
94.9624
94.9535
94.9406
94.9247
94.9068
94.8886
94.8722
94.8596
94.8528
94.967
94.9624
94.9535
94.9407
94.9247
94.9068
94.8887
94.8722
94.8596
94.8528
94.967
94.9624
94.9535
94.9407
94.9247
94.9069
94.8887
94.8722
94.8597
94.8528
85.1579
85.1498
85.1339
85.111
85.0823
85.0498
85.0165
84.9859
84.9623
84.9494
85.1579
85.1497
85.1339
85.111
85.0822
85.0498
85.0164
84.9859
84.9623
84.9494
85.1578
85.1497
85.1338
85.1109
85.0822
85.0497
85.0164
84.9858
84.9623
84.9493
85.1578
85.1497
85.1338
85.1109
85.0822
85.0497
85.0163
84.9858
84.9622
84.9493
85.1578
85.1497
85.1338
85.1109
85.0822
85.0497
85.0163
84.9858
84.9622
84.9493
85.1578
85.1497
85.1338
85.1109
85.0822
85.0497
85.0163
84.9858
84.9622
84.9493
85.1578
85.1497
85.1338
85.1109
85.0822
85.0497
85.0163
84.9858
84.9622
84.9493
85.1578
85.1497
85.1338
85.1109
85.0822
85.0497
85.0164
84.9858
84.9623
84.9494
85.1578
85.1497
85.1338
85.1109
85.0822
85.0497
85.0164
84.9859
84.9623
84.9494
85.1578
85.1497
85.1339
85.111
85.0823
85.0498
85.0164
84.9859
84.9623
84.9494
75.6597
75.6473
75.6231
75.5878
75.5431
75.4917
75.4381
75.3882
75.3491
75.3273
75.6596
75.6473
75.623
75.5877
75.543
75.4917
75.4381
75.3882
75.349
75.3273
75.6595
75.6472
75.623
75.5877
75.5429
75.4916
75.438
75.3881
75.349
75.3273
75.6595
75.6472
75.6229
75.5876
75.5429
75.4916
75.438
75.3881
75.3489
75.3272
75.6595
75.6472
75.6229
75.5876
75.5429
75.4916
75.438
75.3881
75.3489
75.3272
75.6595
75.6472
75.6229
75.5876
75.5429
75.4916
75.438
75.3881
75.3489
75.3272
75.6595
75.6472
75.6229
75.5876
75.5429
75.4916
75.438
75.3881
75.3489
75.3272
75.6595
75.6472
75.623
75.5877
75.5429
75.4916
75.438
75.3881
75.349
75.3273
75.6595
75.6472
75.623
75.5877
75.543
75.4916
75.4381
75.3882
75.349
75.3273
75.6596
75.6473
75.623
75.5877
75.543
75.4917
75.4381
75.3882
75.3491
75.3274
66.5807
66.5632
66.5287
66.4779
66.4125
66.336
66.2542
66.1762
66.1134
66.0779
66.5806
66.5631
66.5286
66.4778
66.4124
66.3359
66.2542
66.1761
66.1133
66.0778
66.5805
66.5631
66.5286
66.4777
66.4123
66.3358
66.2541
66.1761
66.1133
66.0778
66.5805
66.563
66.5285
66.4777
66.4123
66.3358
66.2541
66.176
66.1133
66.0778
66.5805
66.563
66.5285
66.4777
66.4123
66.3358
66.2541
66.176
66.1133
66.0778
66.5805
66.563
66.5285
66.4777
66.4123
66.3358
66.2541
66.176
66.1133
66.0778
66.5805
66.563
66.5285
66.4777
66.4123
66.3358
66.2541
66.1761
66.1133
66.0778
66.5805
66.5631
66.5285
66.4777
66.4123
66.3358
66.2541
66.1761
66.1133
66.0778
66.5805
66.5631
66.5286
66.4778
66.4124
66.3359
66.2542
66.1761
66.1134
66.0779
66.5806
66.5632
66.5287
66.4778
66.4124
66.3359
66.2542
66.1762
66.1134
66.0779
58.0145
57.9909
57.9439
57.8738
57.7818
57.6715
57.5501
57.43
57.3297
57.2712
58.0144
57.9909
57.9438
57.8737
57.7817
57.6714
57.55
57.4299
57.3297
57.2711
58.0143
57.9908
57.9438
57.8736
57.7817
57.6714
57.5499
57.4299
57.3296
57.2711
58.0143
57.9907
57.9437
57.8736
57.7816
57.6713
57.5499
57.4298
57.3296
57.271
58.0143
57.9907
57.9437
57.8736
57.7816
57.6713
57.5499
57.4298
57.3296
57.271
58.0143
57.9907
57.9437
57.8736
57.7816
57.6713
57.5499
57.4298
57.3296
57.271
58.0143
57.9907
57.9437
57.8736
57.7816
57.6713
57.5499
57.4298
57.3296
57.2711
58.0143
57.9908
57.9438
57.8736
57.7816
57.6714
57.5499
57.4299
57.3296
57.2711
58.0143
57.9908
57.9438
57.8737
57.7817
57.6714
57.55
57.4299
57.3297
57.2711
58.0144
57.9909
57.9439
57.8738
57.7818
57.6715
57.5501
57.43
57.3298
57.2712
50.0374
50.0069
49.9452
49.8518
49.7266
49.5718
49.3947
49.2109
49.0489
48.949
50.0374
50.0068
49.9452
49.8518
49.7265
49.5717
49.3946
49.2108
49.0488
48.949
50.0373
50.0067
49.9451
49.8517
49.7265
49.5717
49.3945
49.2108
49.0488
48.9489
50.0372
50.0067
49.945
49.8516
49.7264
49.5716
49.3945
49.2107
49.0487
48.9489
50.0372
50.0066
49.945
49.8516
49.7264
49.5716
49.3944
49.2107
49.0487
48.9489
50.0372
50.0066
49.945
49.8516
49.7264
49.5716
49.3944
49.2107
49.0487
48.9489
50.0372
50.0066
49.945
49.8516
49.7264
49.5716
49.3945
49.2107
49.0488
48.9489
50.0373
50.0067
49.9451
49.8517
49.7265
49.5717
49.3945
49.2108
49.0488
48.9489
50.0373
50.0067
49.9451
49.8517
49.7265
49.5717
49.3946
49.2109
49.0489
48.949
50.0374
50.0068
49.9452
49.8518
49.7266
49.5718
49.3947
49.2109
49.049
48.9491
42.7069
42.6687
42.591
42.4712
42.3065
42.0957
41.8425
41.5627
41.2953
41.1145
42.7068
42.6686
42.5909
42.4711
42.3064
42.0956
41.8424
41.5626
41.2952
41.1145
42.7068
42.6686
42.5908
42.4711
42.3064
42.0955
41.8423
41.5625
41.2952
41.1144
42.7067
42.6685
42.5908
42.471
42.3063
42.0955
41.8423
41.5625
41.2951
41.1144
42.7067
42.6685
42.5908
42.471
42.3063
42.0954
41.8422
41.5625
41.2951
41.1144
42.7067
42.6685
42.5908
42.471
42.3063
42.0954
41.8422
41.5625
41.2951
41.1144
42.7067
42.6685
42.5908
42.471
42.3063
42.0955
41.8423
41.5625
41.2952
41.1144
42.7067
42.6685
42.5908
42.4711
42.3064
42.0955
41.8423
41.5625
41.2952
41.1144
42.7068
42.6686
42.5909
42.4711
42.3064
42.0956
41.8424
41.5626
41.2953
41.1145
42.7069
42.6687
42.591
42.4712
42.3065
42.0957
41.8425
41.5627
41.2954
41.1146
36.0607
36.015
35.9211
35.7739
35.5663
35.2902
34.9396
34.5196
34.0687
33.7103
36.0606
36.0149
35.921
35.7738
35.5662
35.2901
34.9396
34.5195
34.0686
33.7102
36.0606
36.0148
35.9209
35.7738
35.5662
35.29
34.9395
34.5195
34.0685
33.7101
36.0605
36.0148
35.9209
35.7737
35.5661
35.29
34.9394
34.5194
34.0685
33.7101
36.0605
36.0148
35.9209
35.7737
35.5661
35.29
34.9394
34.5194
34.0685
33.7101
36.0605
36.0148
35.9209
35.7737
35.5661
35.29
34.9394
34.5194
34.0685
33.7101
36.0605
36.0148
35.9209
35.7737
35.5661
35.29
34.9395
34.5194
34.0685
33.7101
36.0606
36.0148
35.9209
35.7738
35.5662
35.2901
34.9395
34.5195
34.0686
33.7102
36.0606
36.0149
35.921
35.7738
35.5663
35.2901
34.9396
34.5196
34.0686
33.7102
36.0607
36.015
35.9211
35.7739
35.5663
35.2902
34.9397
34.5197
34.0687
33.7103
30.1171
30.0649
29.9568
29.7851
29.5372
29.1955
28.736
28.1308
27.3674
26.5621
30.117
30.0648
29.9567
29.785
29.5371
29.1954
28.7359
28.1307
27.3673
26.5621
30.1169
30.0647
29.9567
29.7849
29.5371
29.1953
28.7358
28.1306
27.3673
26.562
30.1169
30.0647
29.9566
29.7849
29.537
29.1953
28.7358
28.1306
27.3672
26.562
30.1169
30.0647
29.9566
29.7848
29.537
29.1953
28.7358
28.1306
27.3672
26.562
30.1169
30.0647
29.9566
29.7848
29.537
29.1953
28.7358
28.1306
27.3672
26.562
30.1169
30.0647
29.9566
29.7849
29.537
29.1953
28.7358
28.1306
27.3673
26.562
30.1169
30.0647
29.9567
29.7849
29.5371
29.1953
28.7358
28.1307
27.3673
26.5621
30.117
30.0648
29.9567
29.785
29.5371
29.1954
28.7359
28.1307
27.3674
26.5621
30.1171
30.0649
29.9568
29.7851
29.5372
29.1955
28.736
28.1308
27.3675
26.5622
24.8754
24.8188
24.7011
24.5123
24.2359
23.8454
23.2973
22.5119
21.3131
19.2088
24.8753
24.8187
24.701
24.5122
24.2358
23.8453
23.2972
22.5119
21.313
19.2087
24.8753
24.8187
24.701
24.5122
24.2357
23.8452
23.2972
22.5118
21.313
19.2087
24.8752
24.8186
24.7009
24.5121
24.2357
23.8452
23.2972
22.5118
21.313
19.2086
24.8752
24.8186
24.7009
24.5121
24.2357
23.8452
23.2971
22.5117
21.3129
19.2086
24.8752
24.8186
24.7009
24.5121
24.2357
23.8452
23.2971
22.5117
21.3129
19.2086
24.8752
24.8186
24.7009
24.5122
24.2357
23.8452
23.2972
22.5118
21.313
19.2086
24.8753
24.8187
24.701
24.5122
24.2358
23.8453
23.2972
22.5118
21.313
19.2087
24.8753
24.8187
24.701
24.5123
24.2358
23.8453
23.2973
22.5119
21.3131
19.2088
24.8754
24.8188
24.7011
24.5124
24.2359
23.8454
23.2974
22.512
21.3132
19.2088
20.3176
20.2595
20.1385
19.9442
19.6592
19.2559
18.691
17.8932
16.7429
15.0562
20.3175
20.2594
20.1384
19.9441
19.6591
19.2558
18.6909
17.8931
16.7428
15.0562
20.3174
20.2594
20.1384
19.9441
19.659
19.2558
18.6908
17.893
16.7428
15.0561
20.3174
20.2593
20.1383
19.944
19.659
19.2557
18.6908
17.893
16.7427
15.0561
20.3174
20.2593
20.1383
19.944
19.659
19.2557
18.6908
17.893
16.7427
15.0561
20.3174
20.2593
20.1383
19.944
19.659
19.2557
18.6908
17.893
16.7427
15.0561
20.3174
20.2593
20.1384
19.9441
19.659
19.2557
18.6908
17.893
16.7427
15.0561
20.3174
20.2594
20.1384
19.9441
19.659
19.2558
18.6908
17.8931
16.7428
15.0561
20.3175
20.2594
20.1385
19.9442
19.6591
19.2558
18.6909
17.8931
16.7429
15.0562
20.3176
20.2595
20.1385
19.9443
19.6592
19.2559
18.691
17.8932
16.7429
15.0563
16.4101
16.3536
16.2362
16.0487
15.776
15.3959
14.8773
14.1788
13.254
12.0832
16.41
16.3535
16.2362
16.0486
15.7759
15.3958
14.8772
14.1788
13.254
12.0831
16.4099
16.3535
16.2361
16.0486
15.7758
15.3958
14.8772
14.1787
13.2539
12.0831
16.4099
16.3534
16.2361
16.0485
15.7758
15.3957
14.8771
14.1787
13.2539
12.0831
16.4099
16.3534
16.2361
16.0485
15.7758
15.3957
14.8771
14.1787
13.2539
12.083
16.4099
16.3534
16.2361
16.0485
15.7758
15.3957
14.8771
14.1787
13.2539
12.083
16.4099
16.3534
16.2361
16.0486
15.7758
15.3957
14.8772
14.1787
13.2539
12.0831
16.4099
16.3535
16.2361
16.0486
15.7759
15.3958
14.8772
14.1787
13.2539
12.0831
16.41
16.3535
16.2362
16.0487
15.7759
15.3959
14.8773
14.1788
13.254
12.0832
16.4101
16.3536
16.2363
16.0487
15.776
15.3959
14.8774
14.1789
13.2541
12.0832
13.1069
13.0547
12.9468
12.7761
12.5317
12.1989
11.7609
11.2016
10.517
9.74025
13.1068
13.0546
12.9468
12.7761
12.5316
12.1989
11.7608
11.2015
10.5169
9.74018
13.1068
13.0546
12.9467
12.776
12.5316
12.1988
11.7608
11.2015
10.5169
9.74013
13.1067
13.0545
12.9467
12.776
12.5315
12.1988
11.7607
11.2014
10.5168
9.7401
13.1067
13.0545
12.9467
12.776
12.5315
12.1988
11.7607
11.2014
10.5168
9.74009
13.1067
13.0545
12.9467
12.776
12.5315
12.1988
11.7607
11.2014
10.5168
9.74009
13.1067
13.0545
12.9467
12.776
12.5315
12.1988
11.7607
11.2014
10.5169
9.74012
13.1068
13.0546
12.9467
12.776
12.5316
12.1989
11.7608
11.2015
10.5169
9.74015
13.1068
13.0546
12.9468
12.7761
12.5316
12.1989
11.7608
11.2015
10.5169
9.74021
13.1069
13.0547
12.9469
12.7762
12.5317
12.199
11.7609
11.2016
10.517
9.74028
10.3529
10.3069
10.2126
10.065
9.85778
9.58335
9.23573
8.81478
8.33481
7.83821
10.3529
10.3069
10.2125
10.065
9.85772
9.58329
9.23567
8.81473
8.33476
7.83815
10.3528
10.3068
10.2125
10.0649
9.85768
9.58325
9.23563
8.81468
8.33472
7.8381
10.3528
10.3068
10.2124
10.0649
9.85765
9.58323
9.2356
8.81466
8.33469
7.83808
10.3528
10.3068
10.2124
10.0649
9.85764
9.58322
9.23559
8.81465
8.33468
7.83807
10.3528
10.3068
10.2124
10.0649
9.85764
9.58322
9.2356
8.81465
8.33468
7.83807
10.3528
10.3068
10.2124
10.0649
9.85766
9.58324
9.23562
8.81467
8.3347
7.83809
10.3529
10.3069
10.2125
10.065
9.8577
9.58328
9.23566
8.81471
8.33474
7.83812
10.3529
10.3069
10.2125
10.065
9.85775
9.58333
9.23571
8.81476
8.33479
7.83818
10.3529
10.307
10.2126
10.0651
9.85782
9.5834
9.23578
8.81483
8.33486
7.83824
8.08791
8.04908
7.97007
7.84833
7.68092
7.46584
7.20433
6.90456
6.58685
6.28957
8.08786
8.04903
7.97001
7.84827
7.68087
7.46579
7.20428
6.90451
6.5868
6.28951
8.08782
8.04899
7.96998
7.84824
7.68083
7.46575
7.20425
6.90447
6.58676
6.28948
8.08779
8.04897
7.96995
7.84821
7.68081
7.46573
7.20422
6.90445
6.58674
6.28945
8.08778
8.04895
7.96994
7.84821
7.6808
7.46572
7.20421
6.90444
6.58673
6.28944
8.08779
8.04896
7.96995
7.84821
7.6808
7.46573
7.20422
6.90445
6.58673
6.28945
8.0878
8.04897
7.96996
7.84823
7.68082
7.46575
7.20424
6.90446
6.58675
6.28947
8.08783
8.049
7.96999
7.84826
7.68086
7.46578
7.20427
6.9045
6.58678
6.2895
8.08787
8.04905
7.97004
7.84831
7.6809
7.46583
7.20432
6.90454
6.58683
6.28954
8.08791
8.0491
7.9701
7.84837
7.68096
7.46589
7.20438
6.9046
6.58689
6.2896
6.24953
6.21802
6.1545
6.05815
5.92877
5.76806
5.58168
5.38191
5.19055
5.04022
6.24948
6.21798
6.15445
6.05811
5.92873
5.76802
5.58163
5.38187
5.19051
5.04018
6.24945
6.21795
6.15442
6.05808
5.9287
5.76799
5.5816
5.38184
5.19047
5.04014
6.24943
6.21793
6.1544
6.05806
5.92868
5.76797
5.58158
5.38182
5.19045
5.04012
6.24942
6.21792
6.15439
6.05805
5.92867
5.76796
5.58158
5.38181
5.19045
5.04011
6.24943
6.21792
6.1544
6.05805
5.92868
5.76797
5.58158
5.38181
5.19045
5.04012
6.24944
6.21794
6.15441
6.05807
5.92869
5.76798
5.5816
5.38183
5.19047
5.04013
6.24946
6.21796
6.15444
6.0581
5.92872
5.76801
5.58163
5.38186
5.1905
5.04016
6.2495
6.218
6.15448
6.05814
5.92876
5.76805
5.58167
5.3819
5.19054
5.0402
6.24954
6.21805
6.15453
6.05819
5.92881
5.76811
5.58172
5.38195
5.19059
5.04026
4.77666
4.75201
4.70278
4.62941
4.53349
4.41901
4.29421
4.17382
4.08109
4.04716
4.77663
4.75197
4.70275
4.62938
4.53345
4.41897
4.29417
4.17378
4.08105
4.04712
4.7766
4.75194
4.70272
4.62935
4.53342
4.41895
4.29415
4.17376
4.08102
4.04709
4.77658
4.75193
4.7027
4.62933
4.53341
4.41893
4.29413
4.17374
4.08101
4.04707
4.77657
4.75192
4.7027
4.62933
4.5334
4.41892
4.29413
4.17373
4.081
4.04707
4.77658
4.75192
4.7027
4.62933
4.53341
4.41893
4.29413
4.17374
4.081
4.04707
4.77659
4.75194
4.70271
4.62934
4.53342
4.41894
4.29414
4.17375
4.08102
4.04709
4.77661
4.75196
4.70274
4.62937
4.53344
4.41897
4.29417
4.17378
4.08104
4.04711
4.77664
4.75199
4.70277
4.6294
4.53348
4.419
4.2942
4.17381
4.08108
4.04715
4.77667
4.75203
4.70281
4.62945
4.53352
4.41905
4.29425
4.17386
4.08113
4.0472
3.61152
3.59285
3.55595
3.50198
3.43351
3.35566
3.27789
3.21653
3.19854
3.26488
3.61149
3.59281
3.55592
3.50195
3.43347
3.35563
3.27785
3.2165
3.1985
3.26485
3.61146
3.59279
3.5559
3.50193
3.43345
3.35561
3.27783
3.21648
3.19848
3.26482
3.61145
3.59278
3.55589
3.50192
3.43344
3.35559
3.27782
3.21647
3.19847
3.26481
3.61144
3.59277
3.55588
3.50191
3.43344
3.35559
3.27781
3.21646
3.19846
3.2648
3.61145
3.59278
3.55588
3.50191
3.43344
3.35559
3.27782
3.21647
3.19847
3.2648
3.61146
3.59279
3.5559
3.50193
3.43345
3.3556
3.27783
3.21648
3.19848
3.26482
3.61148
3.59281
3.55591
3.50195
3.43347
3.35563
3.27785
3.2165
3.1985
3.26484
3.6115
3.59283
3.55594
3.50198
3.4335
3.35566
3.27788
3.21653
3.19853
3.26487
3.61153
3.59287
3.55598
3.50201
3.43354
3.35569
3.27792
3.21657
3.19857
3.26492
2.70122
2.68748
2.66061
2.62205
2.5746
2.52341
2.47746
2.45236
2.4772
2.61723
2.7012
2.68746
2.66059
2.62202
2.57457
2.52339
2.47744
2.45233
2.47717
2.6172
2.70118
2.68744
2.66057
2.622
2.57456
2.52337
2.47742
2.45231
2.47715
2.61718
2.70117
2.68743
2.66056
2.62199
2.57454
2.52336
2.47741
2.4523
2.47714
2.61717
2.70117
2.68742
2.66056
2.62199
2.57454
2.52336
2.47741
2.4523
2.47714
2.61717
2.70117
2.68743
2.66056
2.62199
2.57454
2.52336
2.47741
2.4523
2.47714
2.61717
2.70118
2.68744
2.66057
2.622
2.57455
2.52337
2.47742
2.45231
2.47715
2.61718
2.70119
2.68745
2.66059
2.62202
2.57457
2.52339
2.47744
2.45233
2.47717
2.6172
2.70121
2.68747
2.66061
2.62204
2.5746
2.52341
2.47746
2.45236
2.47719
2.61723
2.70124
2.6875
2.66064
2.62208
2.57463
2.52345
2.4775
2.45239
2.47723
2.61727
14.4739
12.0411
11.0738
11.2827
12.6209
15.1957
19.265
25.2941
34.1187
47.3801
14.4738
12.041
11.0737
11.2826
12.6208
15.1956
19.2649
25.294
34.1185
47.3799
14.4738
12.041
11.0737
11.2826
12.6207
15.1955
19.2648
25.2938
34.1183
47.3797
14.4738
12.0409
11.0736
11.2825
12.6206
15.1954
19.2647
25.2937
34.1182
47.3796
14.4737
12.0409
11.0736
11.2825
12.6206
15.1954
19.2646
25.2937
34.1182
47.3796
14.4737
12.0409
11.0736
11.2825
12.6206
15.1954
19.2646
25.2937
34.1182
47.3796
14.4738
12.0409
11.0736
11.2825
12.6206
15.1954
19.2647
25.2937
34.1182
47.3796
14.4738
12.041
11.0736
11.2825
12.6206
15.1955
19.2647
25.2938
34.1183
47.3797
14.4739
12.041
11.0737
11.2826
12.6207
15.1955
19.2648
25.2939
34.1184
47.3798
14.4739
12.0411
11.0738
11.2827
12.6208
15.1956
19.2649
25.294
34.1185
47.38
12.7299
11.1418
10.4917
10.7964
12.0981
14.5104
18.2352
23.5776
30.9416
40.6937
12.7298
11.1417
10.4916
10.7963
12.098
14.5103
18.235
23.5774
30.9414
40.6935
12.7298
11.1416
10.4915
10.7962
12.0979
14.5102
18.2349
23.5773
30.9413
40.6933
12.7298
11.1416
10.4915
10.7962
12.0979
14.5101
18.2349
23.5772
30.9412
40.6932
12.7297
11.1416
10.4915
10.7961
12.0979
14.5101
18.2348
23.5772
30.9411
40.6932
12.7297
11.1416
10.4915
10.7961
12.0978
14.5101
18.2348
23.5772
30.9411
40.6932
12.7298
11.1416
10.4915
10.7962
12.0979
14.5101
18.2348
23.5772
30.9412
40.6932
12.7298
11.1416
10.4915
10.7962
12.0979
14.5101
18.2349
23.5773
30.9413
40.6933
12.7299
11.1417
10.4916
10.7963
12.098
14.5102
18.235
23.5774
30.9414
40.6934
12.7299
11.1418
10.4917
10.7963
12.0981
14.5103
18.2351
23.5775
30.9415
40.6936
10.7867
9.85568
9.53528
9.94188
11.1631
13.3026
16.4932
20.8849
26.5867
33.4979
10.7866
9.8556
9.5352
9.94179
11.163
13.3025
16.493
20.8848
26.5865
33.4978
10.7866
9.85555
9.53514
9.94172
11.1629
13.3024
16.493
20.8847
26.5864
33.4976
10.7865
9.85551
9.5351
9.94168
11.1629
13.3023
16.4929
20.8846
26.5863
33.4975
10.7865
9.85549
9.53508
9.94166
11.1628
13.3023
16.4929
20.8846
26.5862
33.4975
10.7865
9.8555
9.53508
9.94165
11.1628
13.3023
16.4928
20.8846
26.5862
33.4975
10.7865
9.85552
9.5351
9.94167
11.1629
13.3023
16.4929
20.8846
26.5863
33.4975
10.7866
9.85556
9.53514
9.94172
11.1629
13.3024
16.4929
20.8847
26.5863
33.4976
10.7866
9.85561
9.5352
9.94178
11.163
13.3024
16.493
20.8848
26.5865
33.4977
10.7867
9.85569
9.53528
9.94186
11.1631
13.3025
16.4931
20.8849
26.5866
33.4979
8.98707
8.48395
8.40718
8.87536
9.97848
11.7982
14.4109
17.8693
22.153
27.076
8.98701
8.48388
8.4071
8.87528
9.97838
11.7981
14.4107
17.8691
22.1529
27.0759
8.98696
8.48383
8.40704
8.87521
9.97831
11.798
14.4106
17.869
22.1528
27.0757
8.98693
8.4838
8.40701
8.87517
9.97827
11.7979
14.4106
17.869
22.1527
27.0757
8.98691
8.48378
8.40699
8.87515
9.97824
11.7979
14.4106
17.8689
22.1526
27.0756
8.98692
8.48378
8.40699
8.87515
9.97824
11.7979
14.4106
17.8689
22.1526
27.0756
8.98694
8.4838
8.40701
8.87517
9.97826
11.7979
14.4106
17.869
22.1527
27.0757
8.98697
8.48384
8.40705
8.87521
9.97831
11.798
14.4106
17.869
22.1528
27.0757
8.98703
8.48389
8.4071
8.87528
9.97837
11.7981
14.4107
17.8691
22.1529
27.0759
8.9871
8.48397
8.40718
8.87536
9.97847
11.7982
14.4108
17.8692
22.153
27.076
7.41034
7.17704
7.25604
7.74128
8.70621
10.2082
12.2854
14.9415
18.1168
21.6496
7.41028
7.17697
7.25597
7.74121
8.70612
10.2081
12.2853
14.9414
18.1166
21.6494
7.41024
7.17692
7.25592
7.74115
8.70605
10.208
12.2852
14.9413
18.1165
21.6493
7.41021
7.17689
7.25588
7.74111
8.70601
10.208
12.2851
14.9412
18.1165
21.6493
7.4102
7.17688
7.25587
7.74109
8.70599
10.208
12.2851
14.9412
18.1164
21.6492
7.4102
7.17688
7.25587
7.74109
8.70599
10.208
12.2851
14.9412
18.1164
21.6492
7.41022
7.1769
7.25589
7.74111
8.70601
10.208
12.2851
14.9412
18.1165
21.6493
7.41026
7.17694
7.25593
7.74115
8.70606
10.208
12.2852
14.9413
18.1165
21.6493
7.41031
7.17699
7.25598
7.74121
8.70612
10.2081
12.2853
14.9414
18.1166
21.6495
7.41037
7.17706
7.25605
7.74129
8.70621
10.2082
12.2854
14.9415
18.1168
21.6496
6.07238
6.01104
6.18256
6.65449
7.48034
8.69682
10.3184
12.3272
14.6598
17.1959
6.07232
6.01098
6.1825
6.65442
7.48026
8.69673
10.3183
12.3271
14.6597
17.1958
6.07228
6.01093
6.18245
6.65436
7.48021
8.69666
10.3182
12.327
14.6596
17.1957
6.07226
6.01091
6.18242
6.65433
7.48017
8.69662
10.3181
12.327
14.6595
17.1956
6.07225
6.01089
6.1824
6.65431
7.48015
8.6966
10.3181
12.3269
14.6595
17.1956
6.07225
6.0109
6.18241
6.65432
7.48015
8.6966
10.3181
12.3269
14.6595
17.1956
6.07227
6.01092
6.18243
6.65434
7.48017
8.69662
10.3181
12.327
14.6595
17.1956
6.0723
6.01095
6.18246
6.65437
7.48021
8.69667
10.3182
12.327
14.6596
17.1957
6.07235
6.011
6.18251
6.65443
7.48027
8.69673
10.3183
12.3271
14.6597
17.1958
6.07241
6.01106
6.18258
6.6545
7.48035
8.69682
10.3184
12.3272
14.6598
17.1959
4.97156
5.02651
5.25342
5.69908
6.40062
7.37943
8.63548
10.1414
11.838
13.6375
4.97151
5.02645
5.25336
5.69901
6.40055
7.37935
8.63539
10.1413
11.8379
13.6373
4.97148
5.02642
5.25332
5.69897
6.40049
7.37929
8.63533
10.1412
11.8379
13.6373
4.97145
5.02639
5.25329
5.69894
6.40046
7.37925
8.63529
10.1412
11.8378
13.6372
4.97144
5.02638
5.25328
5.69892
6.40044
7.37923
8.63527
10.1411
11.8378
13.6372
4.97145
5.02638
5.25328
5.69893
6.40045
7.37924
8.63527
10.1411
11.8378
13.6372
4.97146
5.0264
5.2533
5.69895
6.40047
7.37926
8.6353
10.1412
11.8378
13.6372
4.97149
5.02643
5.25333
5.69898
6.40051
7.3793
8.63534
10.1412
11.8379
13.6373
4.97154
5.02648
5.25338
5.69903
6.40056
7.37936
8.63541
10.1413
11.838
13.6374
4.97159
5.02653
5.25344
5.6991
6.40064
7.37945
8.6355
10.1414
11.8381
13.6375
4.10146
4.24742
4.51333
4.93401
5.53669
6.33289
7.31307
8.4426
9.66166
10.8954
4.10142
4.24737
4.51328
4.93395
5.53662
6.33282
7.31299
8.44251
9.66157
10.8953
4.10139
4.24734
4.51324
4.93391
5.53657
6.33277
7.31293
8.44245
9.6615
10.8952
4.10137
4.24732
4.51321
4.93388
5.53654
6.33274
7.31289
8.44241
9.66146
10.8952
4.10136
4.24731
4.5132
4.93387
5.53653
6.33272
7.31288
8.44239
9.66144
10.8952
4.10136
4.24731
4.51321
4.93388
5.53653
6.33272
7.31288
8.44239
9.66144
10.8952
4.10138
4.24733
4.51322
4.93389
5.53655
6.33275
7.3129
8.44242
9.66147
10.8952
4.1014
4.24736
4.51325
4.93393
5.53659
6.33279
7.31295
8.44247
9.66153
10.8953
4.10144
4.2474
4.5133
4.93397
5.53664
6.33284
7.31301
8.44254
9.6616
10.8954
4.10149
4.24745
4.51335
4.93404
5.53671
6.33292
7.3131
8.44263
9.66171
10.8955
3.45907
3.69349
3.99462
4.40006
4.93547
5.60764
6.40012
7.26913
8.14109
8.91984
3.45903
3.69344
3.99457
4.40001
4.93542
5.60758
6.40005
7.26906
8.14101
8.91976
3.459
3.69341
3.99454
4.39997
4.93537
5.60753
6.4
7.269
8.14095
8.91969
3.45898
3.69339
3.99452
4.39995
4.93535
5.6075
6.39997
7.26897
8.14091
8.91965
3.45898
3.69339
3.99451
4.39994
4.93534
5.60749
6.39996
7.26895
8.1409
8.91964
3.45898
3.69339
3.99451
4.39994
4.93534
5.60749
6.39996
7.26896
8.1409
8.91964
3.45899
3.6934
3.99453
4.39996
4.93536
5.60751
6.39998
7.26898
8.14093
8.91967
3.45902
3.69343
3.99456
4.39999
4.93539
5.60755
6.40002
7.26903
8.14098
8.91973
3.45905
3.69347
3.9946
4.40004
4.93544
5.60761
6.40008
7.26909
8.14105
8.91981
3.4591
3.69352
3.99465
4.40009
4.93551
5.60768
6.40016
7.26918
8.14115
8.91991
3.06651
3.39292
3.72426
4.12511
4.62711
5.2363
5.93201
6.66105
7.32503
7.75025
3.06647
3.39289
3.72423
4.12506
4.62707
5.23625
5.93196
6.66099
7.32497
7.75018
3.06645
3.39286
3.7242
4.12503
4.62703
5.23621
5.93192
6.66094
7.32492
7.75013
3.06644
3.39285
3.72418
4.12501
4.62701
5.23619
5.93189
6.66091
7.32488
7.7501
3.06643
3.39284
3.72417
4.125
4.627
5.23618
5.93187
6.6609
7.32487
7.75008
3.06643
3.39284
3.72417
4.125
4.627
5.23618
5.93188
6.6609
7.32488
7.75009
3.06645
3.39286
3.72419
4.12502
4.62702
5.2362
5.9319
6.66093
7.3249
7.75012
3.06647
3.39288
3.72422
4.12505
4.62705
5.23624
5.93194
6.66097
7.32495
7.75017
3.0665
3.39292
3.72426
4.1251
4.6271
5.23629
5.932
6.66104
7.32502
7.75024
3.06654
3.39296
3.72431
4.12515
4.62716
5.23636
5.93208
6.66112
7.32511
7.75033
68.8097
78.4949
84.0524
87.6836
90.1961
91.9673
93.2075
94.0463
94.5653
94.8134
68.8094
78.4946
84.0521
87.6832
90.1957
91.9669
93.2071
94.0459
94.565
94.8132
68.8092
78.4943
84.0518
87.683
90.1955
91.9667
93.2069
94.0457
94.5647
94.813
68.809
78.4942
84.0517
87.6828
90.1954
91.9665
93.2067
94.0455
94.5646
94.8128
68.809
78.4941
84.0516
87.6827
90.1953
91.9664
93.2067
94.0455
94.5646
94.8128
68.809
78.4941
84.0516
87.6827
90.1953
91.9665
93.2067
94.0455
94.5646
94.8128
68.809
78.4942
84.0517
87.6828
90.1954
91.9666
93.2068
94.0456
94.5647
94.8129
68.8091
78.4943
84.0518
87.683
90.1956
91.9667
93.207
94.0458
94.5649
94.8131
68.8093
78.4945
84.0521
87.6832
90.1958
91.967
93.2072
94.046
94.5652
94.8134
68.8095
78.4948
84.0523
87.6835
90.1961
91.9673
93.2075
94.0464
94.5655
94.8137
52.3529
60.5829
66.1217
69.914
72.5616
74.4245
75.7235
76.5986
77.1385
77.3962
52.3527
60.5826
66.1214
69.9137
72.5613
74.4242
75.7232
76.5983
77.1382
77.396
52.3525
60.5824
66.1212
69.9135
72.5611
74.424
75.723
76.5981
77.138
77.3958
52.3524
60.5823
66.1211
69.9133
72.561
74.4238
75.7228
76.5979
77.1379
77.3957
52.3523
60.5822
66.121
69.9133
72.5609
74.4238
75.7228
76.5979
77.1379
77.3957
52.3523
60.5822
66.121
69.9133
72.5609
74.4238
75.7228
76.5979
77.1379
77.3957
52.3524
60.5823
66.1211
69.9134
72.561
74.4239
75.7229
76.598
77.138
77.3958
52.3525
60.5824
66.1212
69.9135
72.5612
74.424
75.7231
76.5982
77.1382
77.396
52.3527
60.5826
66.1214
69.9137
72.5614
74.4243
75.7233
76.5984
77.1384
77.3962
52.3529
60.5828
66.1217
69.914
72.5617
74.4246
75.7236
76.5988
77.1388
77.3966
40.923
47.1156
51.813
55.2616
57.7626
59.5586
60.8247
61.6828
62.214
62.4679
40.9228
47.1153
51.8128
55.2614
57.7624
59.5583
60.8245
61.6826
62.2138
62.4677
40.9226
47.1152
51.8126
55.2612
57.7622
59.5581
60.8243
61.6824
62.2136
62.4676
40.9225
47.115
51.8125
55.261
57.762
59.558
60.8241
61.6823
62.2135
62.4675
40.9224
47.115
51.8124
55.261
57.762
59.5579
60.8241
61.6822
62.2134
62.4674
40.9224
47.115
51.8124
55.261
57.762
59.5579
60.8241
61.6822
62.2135
62.4675
40.9225
47.1151
51.8125
55.2611
57.7621
59.558
60.8242
61.6823
62.2136
62.4676
40.9226
47.1152
51.8126
55.2612
57.7622
59.5582
60.8244
61.6825
62.2137
62.4677
40.9228
47.1153
51.8128
55.2614
57.7624
59.5584
60.8246
61.6827
62.214
62.468
40.923
47.1156
51.8131
55.2617
57.7627
59.5587
60.8249
61.6831
62.2143
62.4683
32.1711
36.7283
40.455
43.355
45.5457
47.1624
48.323
49.1189
49.6151
49.8533
32.171
36.7281
40.4548
43.3548
45.5454
47.1621
48.3227
49.1186
49.6149
49.8531
32.1708
36.7279
40.4547
43.3546
45.5452
47.1619
48.3226
49.1184
49.6147
49.853
32.1707
36.7278
40.4546
43.3545
45.5451
47.1618
48.3225
49.1183
49.6146
49.8529
32.1707
36.7278
40.4545
43.3545
45.5451
47.1618
48.3224
49.1183
49.6146
49.8528
32.1707
36.7278
40.4545
43.3545
45.5451
47.1618
48.3224
49.1183
49.6146
49.8529
32.1707
36.7278
40.4546
43.3546
45.5452
47.1619
48.3225
49.1184
49.6147
49.853
32.1708
36.7279
40.4547
43.3547
45.5453
47.162
48.3227
49.1186
49.6149
49.8531
32.171
36.7281
40.4549
43.3549
45.5455
47.1622
48.3229
49.1188
49.6151
49.8534
32.1712
36.7283
40.4551
43.3551
45.5458
47.1625
48.3232
49.1191
49.6154
49.8537
25.2553
28.5898
31.4477
33.7716
35.5912
36.9715
37.9825
38.6858
39.1285
39.3421
25.2551
28.5896
31.4475
33.7714
35.591
36.9712
37.9823
38.6856
39.1283
39.3419
25.255
28.5894
31.4474
33.7713
35.5908
36.9711
37.9822
38.6854
39.1281
39.3418
25.2549
28.5894
31.4473
33.7712
35.5908
36.971
37.9821
38.6853
39.1281
39.3417
25.2549
28.5893
31.4473
33.7711
35.5907
36.971
37.982
38.6853
39.128
39.3417
25.2549
28.5893
31.4473
33.7711
35.5907
36.971
37.982
38.6853
39.1281
39.3417
25.255
28.5894
31.4473
33.7712
35.5908
36.971
37.9821
38.6854
39.1281
39.3418
25.255
28.5895
31.4474
33.7713
35.5909
36.9712
37.9823
38.6856
39.1283
39.342
25.2552
28.5896
31.4476
33.7715
35.5911
36.9714
37.9825
38.6858
39.1285
39.3422
25.2554
28.5898
31.4478
33.7717
35.5913
36.9716
37.9827
38.686
39.1288
39.3424
19.7645
22.1831
24.3216
26.1196
27.5709
28.7002
29.5442
30.1401
30.5191
30.7031
19.7643
22.1829
24.3214
26.1194
27.5708
28.7
29.544
30.14
30.519
30.703
19.7642
22.1828
24.3213
26.1193
27.5706
28.6999
29.5439
30.1398
30.5189
30.7029
19.7641
22.1827
24.3212
26.1192
27.5706
28.6998
29.5438
30.1398
30.5188
30.7028
19.7641
22.1827
24.3212
26.1192
27.5705
28.6998
29.5438
30.1397
30.5188
30.7028
19.7641
22.1827
24.3212
26.1192
27.5705
28.6998
29.5438
30.1397
30.5188
30.7029
19.7641
22.1828
24.3212
26.1193
27.5706
28.6999
29.5439
30.1398
30.5189
30.7029
19.7642
22.1828
24.3213
26.1194
27.5707
28.7
29.544
30.14
30.519
30.7031
19.7643
22.183
24.3215
26.1195
27.5709
28.7002
29.5442
30.1401
30.5192
30.7032
19.7645
22.1831
24.3217
26.1197
27.5711
28.7004
29.5444
30.1404
30.5194
30.7035
15.439
17.1556
18.7118
20.0586
21.1761
22.0667
22.7456
23.2322
23.545
23.6978
15.4389
17.1555
18.7117
20.0584
21.1759
22.0666
22.7454
23.232
23.5448
23.6977
15.4388
17.1554
18.7116
20.0583
21.1758
22.0665
22.7453
23.2319
23.5447
23.6976
15.4388
17.1553
18.7115
20.0583
21.1758
22.0664
22.7452
23.2319
23.5447
23.6976
15.4387
17.1553
18.7115
20.0582
21.1757
22.0664
22.7452
23.2318
23.5447
23.6975
15.4387
17.1553
18.7115
20.0583
21.1757
22.0664
22.7452
23.2319
23.5447
23.6976
15.4388
17.1554
18.7116
20.0583
21.1758
22.0665
22.7453
23.2319
23.5448
23.6976
15.4388
17.1554
18.7116
20.0584
21.1759
22.0666
22.7454
23.232
23.5449
23.6978
15.439
17.1556
18.7118
20.0585
21.176
22.0667
22.7456
23.2322
23.545
23.6979
15.4391
17.1557
18.7119
20.0587
21.1762
22.0669
22.7458
23.2324
23.5452
23.6981
12.0857
13.2414
14.326
15.2974
16.128
16.8068
17.3347
17.7189
17.9686
18.0914
12.0856
13.2413
14.3259
15.2973
16.1279
16.8067