/*--------------------------------*- C++ -*----------------------------------*\
  =========                 |
  \\      /  F ield         | OpenFOAM: The Open Source CFD Toolbox
   \\    /   O peration     | Website:  https://openfoam.org
    \\  /    A nd           | Version:  6
     \\/     M anipulation  |
\*---------------------------------------------------------------------------*/
FoamFile
{
    version     2.0;
    format      ascii;
    class       volScalarField;
    location    "0.205";
    object      T;
}
// * * * * * * * * * * * * * * * * * * * * * * * * * * * * * * * * * * * * * //

dimensions      [0 0 0 1 0 0 0];

internalField   nonuniform List<scalar> 
7000
(
103.123
103.123
103.123
103.122
103.122
103.121
103.12
103.119
103.118
103.118
103.123
103.123
103.123
103.122
103.122
103.121
103.12
103.119
103.118
103.118
103.123
103.123
103.123
103.122
103.122
103.121
103.12
103.119
103.118
103.118
103.123
103.123
103.123
103.122
103.122
103.121
103.12
103.119
103.118
103.118
103.123
103.123
103.123
103.122
103.122
103.121
103.12
103.119
103.118
103.118
103.123
103.123
103.123
103.122
103.122
103.121
103.12
103.119
103.118
103.118
103.123
103.123
103.123
103.122
103.122
103.121
103.12
103.119
103.118
103.118
103.123
103.123
103.123
103.122
103.122
103.121
103.12
103.119
103.118
103.118
103.123
103.123
103.123
103.122
103.122
103.121
103.12
103.119
103.118
103.118
103.123
103.123
103.123
103.122
103.122
103.121
103.12
103.119
103.118
103.118
89.5387
89.5381
89.537
89.5353
89.5331
89.5305
89.5277
89.5249
89.5227
89.5215
89.5386
89.538
89.5369
89.5352
89.5331
89.5304
89.5276
89.5248
89.5226
89.5214
89.5385
89.5379
89.5368
89.5352
89.533
89.5304
89.5275
89.5248
89.5226
89.5213
89.5385
89.5379
89.5368
89.5351
89.533
89.5303
89.5275
89.5247
89.5225
89.5213
89.5385
89.5379
89.5367
89.5351
89.5329
89.5303
89.5275
89.5247
89.5225
89.5213
89.5384
89.5378
89.5367
89.5351
89.5329
89.5303
89.5275
89.5247
89.5225
89.5213
89.5385
89.5379
89.5368
89.5351
89.5329
89.5303
89.5275
89.5247
89.5225
89.5213
89.5385
89.5379
89.5368
89.5351
89.533
89.5304
89.5275
89.5248
89.5226
89.5214
89.5385
89.5379
89.5368
89.5352
89.533
89.5304
89.5276
89.5248
89.5226
89.5214
89.5386
89.538
89.5369
89.5352
89.5331
89.5305
89.5276
89.5249
89.5227
89.5215
76.4478
76.4467
76.4446
76.4414
76.4372
76.4319
76.4261
76.4204
76.4157
76.4131
76.4477
76.4466
76.4445
76.4413
76.437
76.4318
76.426
76.4203
76.4156
76.413
76.4476
76.4465
76.4444
76.4412
76.4369
76.4317
76.4259
76.4202
76.4155
76.4129
76.4475
76.4464
76.4443
76.4411
76.4369
76.4317
76.4258
76.4201
76.4155
76.4129
76.4475
76.4464
76.4443
76.4411
76.4369
76.4316
76.4258
76.4201
76.4155
76.4129
76.4475
76.4464
76.4443
76.4411
76.4368
76.4316
76.4258
76.4201
76.4155
76.4129
76.4475
76.4464
76.4443
76.4411
76.4369
76.4317
76.4259
76.4202
76.4155
76.4129
76.4475
76.4464
76.4443
76.4412
76.4369
76.4317
76.4259
76.4202
76.4156
76.413
76.4476
76.4465
76.4444
76.4413
76.437
76.4318
76.426
76.4203
76.4156
76.413
76.4477
76.4466
76.4445
76.4413
76.4371
76.4319
76.4261
76.4204
76.4157
76.4131
64.14
64.1382
64.1347
64.1293
64.1219
64.1126
64.102
64.0912
64.0823
64.0771
64.1398
64.138
64.1345
64.1291
64.1217
64.1124
64.1018
64.0911
64.0821
64.077
64.1397
64.1379
64.1344
64.129
64.1216
64.1123
64.1017
64.091
64.082
64.0769
64.1396
64.1378
64.1343
64.129
64.1216
64.1123
64.1016
64.0909
64.082
64.0768
64.1396
64.1378
64.1343
64.1289
64.1215
64.1122
64.1016
64.0909
64.0819
64.0768
64.1396
64.1378
64.1343
64.1289
64.1215
64.1122
64.1016
64.0909
64.0819
64.0768
64.1396
64.1378
64.1343
64.1289
64.1216
64.1123
64.1017
64.0909
64.082
64.0769
64.1397
64.1379
64.1344
64.129
64.1216
64.1123
64.1017
64.091
64.0821
64.0769
64.1397
64.138
64.1345
64.1291
64.1217
64.1124
64.1018
64.0911
64.0822
64.077
64.1398
64.1381
64.1346
64.1292
64.1219
64.1126
64.102
64.0913
64.0823
64.0772
52.8497
52.8469
52.8415
52.8328
52.8207
52.8049
52.7863
52.7668
52.7499
52.7399
52.8495
52.8468
52.8413
52.8327
52.8205
52.8047
52.7861
52.7666
52.7497
52.7397
52.8494
52.8466
52.8412
52.8325
52.8203
52.8046
52.786
52.7665
52.7496
52.7396
52.8493
52.8465
52.8411
52.8324
52.8203
52.8045
52.7859
52.7664
52.7495
52.7396
52.8492
52.8465
52.841
52.8324
52.8202
52.8045
52.7859
52.7664
52.7495
52.7395
52.8492
52.8465
52.841
52.8324
52.8202
52.8045
52.7859
52.7664
52.7495
52.7396
52.8493
52.8465
52.8411
52.8324
52.8203
52.8045
52.7859
52.7664
52.7496
52.7396
52.8493
52.8466
52.8411
52.8325
52.8204
52.8046
52.786
52.7665
52.7497
52.7397
52.8494
52.8467
52.8413
52.8326
52.8205
52.8047
52.7861
52.7667
52.7498
52.7398
52.8495
52.8469
52.8414
52.8328
52.8207
52.8049
52.7863
52.7668
52.75
52.74
42.744
42.74
42.7318
42.7185
42.6993
42.6734
42.6417
42.6068
42.5752
42.5556
42.7438
42.7398
42.7316
42.7183
42.6991
42.6733
42.6415
42.6067
42.575
42.5554
42.7436
42.7396
42.7314
42.7182
42.6989
42.6731
42.6414
42.6065
42.5749
42.5553
42.7435
42.7395
42.7314
42.7181
42.6989
42.673
42.6413
42.6065
42.5748
42.5553
42.7435
42.7395
42.7313
42.7181
42.6988
42.673
42.6412
42.6064
42.5748
42.5552
42.7435
42.7395
42.7313
42.7181
42.6988
42.673
42.6412
42.6065
42.5748
42.5553
42.7435
42.7395
42.7314
42.7181
42.6989
42.6731
42.6413
42.6065
42.5749
42.5553
42.7436
42.7396
42.7314
42.7182
42.699
42.6732
42.6414
42.6066
42.575
42.5554
42.7437
42.7398
42.7316
42.7183
42.6991
42.6733
42.6415
42.6068
42.5751
42.5556
42.7438
42.7399
42.7318
42.7185
42.6993
42.6735
42.6417
42.6069
42.5753
42.5557
33.9173
33.9117
33.9
33.8805
33.8513
33.8105
33.7577
33.6964
33.6368
33.5973
33.9171
33.9115
33.8998
33.8804
33.8512
33.8103
33.7575
33.6962
33.6366
33.5972
33.917
33.9114
33.8997
33.8802
33.851
33.8102
33.7574
33.6961
33.6365
33.5971
33.9169
33.9113
33.8996
33.8801
33.8509
33.8101
33.7573
33.696
33.6365
33.597
33.9168
33.9113
33.8995
33.8801
33.8509
33.8101
33.7573
33.696
33.6364
33.597
33.9168
33.9113
33.8995
33.8801
33.8509
33.8101
33.7573
33.696
33.6365
33.597
33.9169
33.9113
33.8996
33.8802
33.851
33.8102
33.7574
33.6961
33.6365
33.5971
33.917
33.9114
33.8997
33.8803
33.8511
33.8103
33.7575
33.6962
33.6366
33.5972
33.9171
33.9115
33.8998
33.8804
33.8512
33.8104
33.7576
33.6963
33.6368
33.5974
33.9172
33.9117
33.9
33.8806
33.8514
33.8106
33.7578
33.6965
33.637
33.5975
26.3938
26.3864
26.3704
26.3432
26.301
26.2393
26.1545
26.0485
25.9355
25.8523
26.3936
26.3862
26.3702
26.3431
26.3009
26.2391
26.1544
26.0483
25.9354
25.8522
26.3935
26.386
26.3701
26.3429
26.3007
26.239
26.1542
26.0482
25.9353
25.8521
26.3934
26.386
26.37
26.3429
26.3007
26.2389
26.1542
26.0482
25.9352
25.852
26.3933
26.3859
26.37
26.3428
26.3006
26.2389
26.1542
26.0481
25.9352
25.852
26.3934
26.3859
26.37
26.3428
26.3006
26.2389
26.1542
26.0482
25.9352
25.852
26.3934
26.386
26.37
26.3429
26.3007
26.2389
26.1542
26.0482
25.9353
25.8521
26.3935
26.3861
26.3701
26.343
26.3008
26.239
26.1543
26.0483
25.9354
25.8522
26.3936
26.3862
26.3703
26.3431
26.3009
26.2392
26.1545
26.0485
25.9355
25.8523
26.3937
26.3864
26.3705
26.3433
26.3011
26.2394
26.1547
26.0487
25.9357
25.8525
20.1353
20.1259
20.1055
20.0698
20.0124
19.9242
19.7949
19.6175
19.4026
19.214
20.1351
20.1258
20.1053
20.0697
20.0122
19.924
19.7948
19.6174
19.4025
19.2139
20.135
20.1256
20.1052
20.0695
20.0121
19.9239
19.7947
19.6173
19.4024
19.2138
20.1349
20.1256
20.1051
20.0695
20.012
19.9239
19.7946
19.6172
19.4023
19.2138
20.1349
20.1255
20.1051
20.0694
20.012
19.9238
19.7946
19.6172
19.4023
19.2138
20.1349
20.1255
20.1051
20.0694
20.012
19.9238
19.7946
19.6172
19.4023
19.2138
20.1349
20.1256
20.1052
20.0695
20.0121
19.9239
19.7946
19.6173
19.4024
19.2139
20.135
20.1257
20.1052
20.0696
20.0122
19.924
19.7947
19.6174
19.4025
19.2139
20.1351
20.1258
20.1054
20.0697
20.0123
19.9241
19.7949
19.6175
19.4026
19.2141
20.1352
20.126
20.1056
20.0699
20.0125
19.9243
19.7951
19.6177
19.4028
19.2143
15.0541
15.043
15.0186
14.975
14.9027
14.7866
14.6043
14.3262
13.9256
13.4538
15.0539
15.0429
15.0185
14.9749
14.9026
14.7864
14.6042
14.3261
13.9255
13.4537
15.0538
15.0428
15.0184
14.9748
14.9025
14.7863
14.6041
14.326
13.9254
13.4536
15.0537
15.0427
15.0183
14.9747
14.9024
14.7863
14.6041
14.326
13.9254
13.4536
15.0537
15.0427
15.0183
14.9747
14.9024
14.7863
14.6041
14.326
13.9254
13.4536
15.0537
15.0427
15.0183
14.9747
14.9024
14.7863
14.6041
14.326
13.9254
13.4536
15.0538
15.0428
15.0183
14.9748
14.9025
14.7863
14.6041
14.326
13.9255
13.4537
15.0538
15.0428
15.0184
14.9749
14.9026
14.7864
14.6042
14.3261
13.9255
13.4537
15.0539
15.043
15.0185
14.975
14.9027
14.7865
14.6043
14.3262
13.9257
13.4539
15.0541
15.0431
15.0187
14.9751
14.9028
14.7867
14.6045
14.3264
13.9258
13.454
11.0276
11.0155
10.9885
10.9397
10.857
10.7202
10.4944
10.1152
9.44437
8.11234
11.0275
11.0154
10.9884
10.9395
10.8569
10.7201
10.4943
10.1151
9.44429
8.11227
11.0274
11.0153
10.9883
10.9395
10.8568
10.72
10.4942
10.115
9.44423
8.11222
11.0273
11.0153
10.9882
10.9394
10.8568
10.72
10.4942
10.115
9.44419
8.11219
11.0273
11.0152
10.9882
10.9394
10.8567
10.72
10.4942
10.1149
9.44418
8.11218
11.0273
11.0153
10.9882
10.9394
10.8568
10.72
10.4942
10.115
9.4442
8.1122
11.0274
11.0153
10.9883
10.9394
10.8568
10.72
10.4942
10.115
9.44424
8.11224
11.0274
11.0154
10.9883
10.9395
10.8569
10.7201
10.4943
10.1151
9.44431
8.1123
11.0275
11.0155
10.9884
10.9396
10.857
10.7202
10.4944
10.1152
9.44441
8.11239
11.0276
11.0156
10.9886
10.9398
10.8571
10.7203
10.4945
10.1153
9.44454
8.1125
7.9133
7.90104
7.8735
7.82368
7.73919
7.59932
7.36971
6.99249
6.36959
5.34813
7.9132
7.90094
7.8734
7.82358
7.73909
7.59923
7.36963
6.99241
6.36952
5.34807
7.91313
7.90087
7.87333
7.82351
7.73903
7.59917
7.36957
6.99235
6.36947
5.34803
7.91308
7.90083
7.87329
7.82347
7.73899
7.59914
7.36953
6.99232
6.36945
5.348
7.91307
7.90081
7.87327
7.82346
7.73898
7.59912
7.36952
6.99232
6.36944
5.348
7.91307
7.90082
7.87328
7.82347
7.73899
7.59914
7.36954
6.99233
6.36945
5.34801
7.91311
7.90086
7.87332
7.82351
7.73903
7.59918
7.36958
6.99237
6.36949
5.34804
7.91317
7.90092
7.87338
7.82357
7.7391
7.59924
7.36964
6.99243
6.36955
5.34809
7.91325
7.901
7.87347
7.82367
7.73919
7.59934
7.36973
6.99252
6.36963
5.34816
7.91334
7.90112
7.87359
7.82379
7.73931
7.59946
7.36985
6.99263
6.36973
5.34826
5.562
5.55045
5.52458
5.47811
5.40021
5.2737
5.07245
4.75888
4.28526
3.61294
5.56192
5.55037
5.5245
5.47803
5.40014
5.27363
5.07238
4.75882
4.28521
3.6129
5.56186
5.55032
5.52445
5.47798
5.40009
5.27358
5.07233
4.75878
4.28517
3.61286
5.56183
5.55028
5.52442
5.47795
5.40006
5.27355
5.07231
4.75875
4.28515
3.61285
5.56182
5.55027
5.5244
5.47794
5.40005
5.27355
5.0723
4.75875
4.28515
3.61284
5.56182
5.55028
5.52441
5.47795
5.40006
5.27356
5.07231
4.75876
4.28516
3.61285
5.56185
5.55031
5.52445
5.47798
5.4001
5.27359
5.07235
4.75879
4.28519
3.61288
5.5619
5.55036
5.5245
5.47804
5.40015
5.27365
5.0724
4.75884
4.28524
3.61292
5.56197
5.55043
5.52457
5.47811
5.40023
5.27372
5.07247
4.75891
4.2853
3.61298
5.56204
5.55052
5.52467
5.47821
5.40033
5.27382
5.07257
4.759
4.28538
3.61305
3.8289
3.81876
3.7962
3.75617
3.69032
3.58626
3.427
3.19206
2.86291
2.43865
3.82884
3.8187
3.79614
3.75611
3.69027
3.58621
3.42695
3.19201
2.86287
2.43861
3.8288
3.81866
3.7961
3.75607
3.69023
3.58617
3.42692
3.19198
2.86284
2.43859
3.82878
3.81863
3.79607
3.75604
3.69021
3.58615
3.4269
3.19197
2.86283
2.43858
3.82877
3.81863
3.79606
3.75604
3.6902
3.58614
3.42689
3.19196
2.86283
2.43857
3.82877
3.81863
3.79607
3.75605
3.69021
3.58615
3.42691
3.19197
2.86284
2.43858
3.8288
3.81866
3.7961
3.75607
3.69024
3.58618
3.42693
3.192
2.86286
2.4386
3.82884
3.8187
3.79614
3.75612
3.69028
3.58622
3.42697
3.19204
2.8629
2.43864
3.82889
3.81876
3.7962
3.75618
3.69034
3.58628
3.42703
3.19209
2.86295
2.43868
3.82895
3.81883
3.79628
3.75626
3.69042
3.58636
3.42711
3.19216
2.86301
2.43874
2.58158
2.57322
2.55479
2.52258
2.47075
2.39118
2.27396
2.10918
1.89157
1.62895
2.58153
2.57317
2.55474
2.52254
2.47071
2.39114
2.27392
2.10915
1.89154
1.62892
2.5815
2.57314
2.55471
2.52251
2.47068
2.39111
2.27389
2.10912
1.89152
1.6289
2.58148
2.57312
2.55469
2.52249
2.47066
2.3911
2.27388
2.10911
1.89151
1.62889
2.58148
2.57312
2.55469
2.52248
2.47066
2.3911
2.27388
2.10911
1.89151
1.62889
2.58148
2.57313
2.55469
2.52249
2.47067
2.3911
2.27389
2.10912
1.89152
1.6289
2.5815
2.57314
2.55472
2.52251
2.47069
2.39113
2.27391
2.10914
1.89153
1.62892
2.58153
2.57318
2.55475
2.52255
2.47072
2.39116
2.27394
2.10917
1.89156
1.62894
2.58157
2.57322
2.55479
2.52259
2.47077
2.39121
2.27398
2.10921
1.8916
1.62898
2.58162
2.57328
2.55486
2.52266
2.47083
2.39126
2.27404
2.10926
1.89165
1.62902
1.70482
1.69831
1.68409
1.65965
1.62118
1.56377
1.48206
1.37185
1.23292
1.07309
1.70479
1.69828
1.68406
1.65962
1.62115
1.56374
1.48203
1.37182
1.23289
1.07307
1.70476
1.69825
1.68404
1.6596
1.62113
1.56372
1.48202
1.37181
1.23288
1.07306
1.70475
1.69824
1.68403
1.65959
1.62112
1.56371
1.48201
1.3718
1.23287
1.07305
1.70475
1.69824
1.68402
1.65959
1.62112
1.56371
1.482
1.3718
1.23287
1.07305
1.70475
1.69824
1.68403
1.65959
1.62112
1.56371
1.48201
1.3718
1.23288
1.07306
1.70477
1.69826
1.68405
1.65961
1.62114
1.56373
1.48203
1.37182
1.23289
1.07307
1.70479
1.69828
1.68407
1.65963
1.62117
1.56375
1.48205
1.37184
1.23291
1.07309
1.70482
1.69832
1.68411
1.65967
1.6212
1.56379
1.48208
1.37187
1.23294
1.07311
1.70486
1.69836
1.68415
1.65972
1.62125
1.56383
1.48213
1.37191
1.23298
1.07315
1.10276
1.09795
1.08753
1.0699
1.04273
1.00325
0.948806
0.877957
0.792091
0.697175
1.10274
1.09792
1.0875
1.06987
1.04271
1.00323
0.948787
0.877939
0.792075
0.697161
1.10273
1.09791
1.08749
1.06986
1.0427
1.00322
0.948774
0.877928
0.792064
0.697151
1.10272
1.0979
1.08748
1.06985
1.04269
1.00321
0.948767
0.877921
0.792058
0.697146
1.10271
1.0979
1.08748
1.06985
1.04269
1.00321
0.948767
0.877921
0.792058
0.697145
1.10272
1.0979
1.08748
1.06985
1.04269
1.00321
0.948772
0.877926
0.792063
0.697149
1.10273
1.09791
1.08749
1.06987
1.0427
1.00323
0.948783
0.877937
0.792073
0.697159
1.10275
1.09793
1.08751
1.06989
1.04272
1.00324
0.948801
0.877954
0.792088
0.697173
1.10277
1.09795
1.08754
1.06991
1.04275
1.00327
0.948826
0.877977
0.79211
0.697192
1.1028
1.09799
1.08757
1.06995
1.04278
1.0033
0.948857
0.878006
0.792137
0.697217
0.698778
0.69537
0.688074
0.675916
0.657564
0.631557
0.596752
0.553025
0.502162
0.448565
0.698761
0.695354
0.688058
0.675901
0.657549
0.631543
0.596739
0.553013
0.502151
0.448555
0.69875
0.695343
0.688047
0.67589
0.657539
0.631534
0.59673
0.553005
0.502143
0.448548
0.698744
0.695337
0.688041
0.675885
0.657534
0.631528
0.596725
0.553001
0.50214
0.448544
0.698742
0.695336
0.68804
0.675883
0.657533
0.631528
0.596725
0.553
0.502139
0.448544
0.698746
0.695339
0.688043
0.675887
0.657537
0.631532
0.596729
0.553004
0.502143
0.448547
0.698754
0.695347
0.688052
0.675896
0.657545
0.63154
0.596737
0.553012
0.50215
0.448554
0.698766
0.69536
0.688065
0.675909
0.657559
0.631554
0.59675
0.553024
0.502162
0.448564
0.698783
0.695378
0.688084
0.675928
0.657578
0.631572
0.596767
0.553041
0.502177
0.448579
0.698802
0.695401
0.688108
0.675952
0.657601
0.631595
0.596789
0.553061
0.502196
0.448596
0.433806
0.431495
0.426592
0.418545
0.406641
0.390194
0.368877
0.343216
0.31523
0.28898
0.433795
0.431484
0.426582
0.418535
0.406631
0.390184
0.368868
0.343207
0.315222
0.288972
0.433788
0.431477
0.426575
0.418528
0.406624
0.390178
0.368862
0.343202
0.315217
0.288967
0.433784
0.431473
0.426571
0.418524
0.406621
0.390175
0.368859
0.343199
0.315214
0.288965
0.433783
0.431472
0.42657
0.418524
0.40662
0.390174
0.368859
0.343199
0.315214
0.288965
0.433785
0.431475
0.426573
0.418527
0.406623
0.390177
0.368862
0.343202
0.315217
0.288967
0.433791
0.43148
0.426579
0.418533
0.406629
0.390183
0.368868
0.343207
0.315222
0.288972
0.4338
0.43149
0.426588
0.418542
0.406638
0.390192
0.368876
0.343216
0.31523
0.28898
0.433811
0.431502
0.426601
0.418555
0.406651
0.390205
0.368888
0.343227
0.315241
0.28899
0.433825
0.431518
0.426618
0.418572
0.406668
0.390221
0.368904
0.343242
0.315254
0.289002
0.263881
0.262373
0.259203
0.254075
0.24664
0.236638
0.224141
0.209956
0.196355
0.188853
0.263874
0.262366
0.259196
0.254068
0.246634
0.236632
0.224135
0.20995
0.19635
0.188848
0.263869
0.262361
0.259191
0.254063
0.246629
0.236628
0.224131
0.209947
0.196346
0.188845
0.263867
0.262359
0.259188
0.254061
0.246627
0.236626
0.22413
0.209945
0.196344
0.188843
0.263866
0.262358
0.259188
0.254061
0.246627
0.236626
0.22413
0.209945
0.196345
0.188843
0.263868
0.26236
0.25919
0.254063
0.246629
0.236628
0.224132
0.209947
0.196346
0.188845
0.263872
0.262364
0.259194
0.254067
0.246633
0.236632
0.224136
0.209951
0.19635
0.188849
0.263878
0.26237
0.2592
0.254073
0.246639
0.236638
0.224142
0.209957
0.196356
0.188854
0.263886
0.262379
0.259209
0.254082
0.246648
0.236647
0.22415
0.209965
0.196363
0.188862
0.263895
0.262389
0.25922
0.254094
0.246659
0.236657
0.22416
0.209974
0.196373
0.188871
4.86372
3.14759
2.27397
1.97293
2.16445
2.89286
4.3253
6.79727
10.9358
17.9795
4.86366
3.14754
2.27392
1.97288
2.16439
2.89278
4.32519
6.79713
10.9356
17.9792
4.86363
3.14751
2.27389
1.97285
2.16435
2.89273
4.32512
6.79703
10.9354
17.979
4.8636
3.14749
2.27387
1.97283
2.16432
2.89269
4.32507
6.79696
10.9353
17.9789
4.8636
3.14748
2.27387
1.97282
2.16431
2.89268
4.32505
6.79693
10.9353
17.9788
4.86361
3.14749
2.27387
1.97282
2.16431
2.89268
4.32505
6.79693
10.9353
17.9788
4.86364
3.14751
2.27389
1.97284
2.16433
2.89269
4.32507
6.79696
10.9354
17.9789
4.86368
3.14755
2.27392
1.97286
2.16435
2.89272
4.32511
6.79701
10.9354
17.979
4.86375
3.14759
2.27395
1.97289
2.16439
2.89276
4.32516
6.79709
10.9355
17.9791
4.86382
3.14765
2.27399
1.97293
2.16442
2.89281
4.32522
6.79717
10.9357
17.9793
3.81669
2.68873
2.03522
1.81042
2.00091
2.65837
3.91457
5.9978
9.24027
13.9996
3.81664
2.68869
2.03518
1.81037
2.00086
2.65829
3.91447
5.99767
9.2401
13.9994
3.8166
2.68866
2.03515
1.81034
2.00082
2.65824
3.9144
5.99758
9.23998
13.9992
3.81659
2.68864
2.03513
1.81032
2.00079
2.65821
3.91436
5.99752
9.2399
13.9991
3.81658
2.68864
2.03513
1.81031
2.00078
2.6582
3.91434
5.9975
9.23986
13.9991
3.81659
2.68865
2.03513
1.81031
2.00078
2.6582
3.91434
5.9975
9.23987
13.9991
3.81662
2.68867
2.03515
1.81033
2.0008
2.65821
3.91436
5.99752
9.23991
13.9991
3.81666
2.6887
2.03517
1.81035
2.00082
2.65824
3.9144
5.99758
9.23998
13.9992
3.81671
2.68874
2.03521
1.81039
2.00086
2.65828
3.91445
5.99765
9.24009
13.9994
3.81679
2.6888
2.03526
1.81043
2.0009
2.65834
3.91452
5.99775
9.24022
13.9996
2.78828
2.10477
1.67884
1.54349
1.723
2.26709
3.26405
4.83811
7.11677
10.1226
2.78824
2.10474
1.6788
1.54345
1.72295
2.26703
3.26397
4.838
7.11663
10.1224
2.78821
2.10471
1.67878
1.54342
1.72292
2.26698
3.26391
4.83793
7.11653
10.1223
2.7882
2.1047
1.67876
1.54341
1.72289
2.26696
3.26388
4.83788
7.11646
10.1222
2.78819
2.10469
1.67876
1.5434
1.72289
2.26694
3.26386
4.83785
7.11643
10.1222
2.7882
2.1047
1.67876
1.5434
1.72289
2.26694
3.26386
4.83786
7.11644
10.1222
2.78822
2.10472
1.67878
1.54342
1.7229
2.26696
3.26388
4.83788
7.11647
10.1222
2.78826
2.10475
1.6788
1.54344
1.72292
2.26699
3.26391
4.83793
7.11654
10.1223
2.78831
2.10479
1.67883
1.54347
1.72296
2.26703
3.26397
4.838
7.11664
10.1224
2.78837
2.10484
1.67888
1.54351
1.723
2.26708
3.26404
4.8381
7.11677
10.1226
1.96633
1.5622
1.30529
1.23899
1.39603
1.81631
2.55292
3.66395
5.18269
7.05562
1.96629
1.56217
1.30526
1.23896
1.39599
1.81626
2.55285
3.66386
5.18258
7.05548
1.96627
1.56215
1.30524
1.23894
1.39596
1.81622
2.5528
3.6638
5.1825
7.05539
1.96626
1.56214
1.30523
1.23892
1.39595
1.8162
2.55277
3.66376
5.18245
7.05532
1.96626
1.56213
1.30522
1.23892
1.39594
1.81619
2.55276
3.66374
5.18242
7.0553
1.96627
1.56214
1.30523
1.23892
1.39594
1.81619
2.55276
3.66374
5.18243
7.0553
1.96628
1.56216
1.30524
1.23893
1.39595
1.8162
2.55278
3.66377
5.18246
7.05534
1.96631
1.56218
1.30526
1.23895
1.39597
1.81623
2.55281
3.66381
5.18252
7.05542
1.96635
1.56221
1.30529
1.23898
1.396
1.81626
2.55286
3.66387
5.1826
7.05553
1.9664
1.56226
1.30533
1.23902
1.39605
1.81631
2.55292
3.66395
5.18271
7.05567
1.35259
1.11712
0.970379
0.947
1.07499
1.38257
1.89938
2.64908
3.63106
4.79253
1.35256
1.1171
0.970355
0.946973
1.07496
1.38253
1.89933
2.64902
3.63098
4.79243
1.35255
1.11708
0.970339
0.946954
1.07494
1.3825
1.89929
2.64897
3.63092
4.79236
1.35254
1.11707
0.970329
0.946943
1.07492
1.38248
1.89926
2.64894
3.63088
4.79231
1.35254
1.11707
0.970326
0.946939
1.07492
1.38248
1.89925
2.64892
3.63086
4.79229
1.35254
1.11708
0.97033
0.946942
1.07492
1.38248
1.89926
2.64893
3.63087
4.7923
1.35256
1.11709
0.970341
0.946952
1.07493
1.38249
1.89927
2.64895
3.63089
4.79233
1.35258
1.11711
0.970358
0.946969
1.07495
1.38251
1.8993
2.64898
3.63094
4.79239
1.35261
1.11713
0.970383
0.946993
1.07498
1.38254
1.89934
2.64903
3.63101
4.79248
1.35265
1.11717
0.970415
0.947025
1.07501
1.38258
1.89939
2.6491
3.63109
4.79259
0.911507
0.776691
0.696983
0.69624
0.794683
1.01061
1.35965
1.84964
2.47115
3.18658
0.911488
0.776673
0.696965
0.696219
0.794658
1.01058
1.35961
1.84959
2.47109
3.18651
0.911476
0.77666
0.696952
0.696204
0.79464
1.01056
1.35958
1.84955
2.47104
3.18645
0.911469
0.776653
0.696944
0.696196
0.794629
1.01055
1.35956
1.84953
2.47102
3.18642
0.911468
0.776652
0.696942
0.696192
0.794625
1.01054
1.35955
1.84952
2.47101
3.18641
0.911473
0.776656
0.696946
0.696195
0.794627
1.01054
1.35956
1.84952
2.47101
3.18641
0.911484
0.776666
0.696954
0.696203
0.794636
1.01055
1.35957
1.84954
2.47103
3.18644
0.911501
0.776681
0.696968
0.696217
0.794651
1.01057
1.35959
1.84957
2.47107
3.18648
0.911525
0.776702
0.696988
0.696237
0.794672
1.0106
1.35962
1.84961
2.47112
3.18655
0.911555
0.776729
0.697014
0.696263
0.794701
1.01063
1.35967
1.84966
2.47119
3.18664
0.604584
0.52968
0.489171
0.498548
0.571286
0.718603
0.948213
1.26123
1.6477
2.08307
0.60457
0.529667
0.489156
0.498531
0.571267
0.718579
0.948184
1.2612
1.64766
2.08301
0.604561
0.529657
0.489146
0.49852
0.571253
0.718563
0.948162
1.26117
1.64762
2.08298
0.604556
0.529652
0.489141
0.498514
0.571245
0.718552
0.948149
1.26115
1.6476
2.08295
0.604556
0.529652
0.489139
0.498511
0.571242
0.718548
0.948144
1.26115
1.6476
2.08294
0.604559
0.529655
0.489142
0.498514
0.571244
0.71855
0.948146
1.26115
1.6476
2.08295
0.604568
0.529662
0.489149
0.49852
0.571251
0.718558
0.948156
1.26116
1.64762
2.08297
0.604581
0.529674
0.48916
0.498532
0.571263
0.718572
0.948174
1.26119
1.64764
2.083
0.604598
0.52969
0.489176
0.498547
0.57128
0.718593
0.948199
1.26122
1.64768
2.08305
0.604621
0.529711
0.489195
0.498567
0.571302
0.718619
0.948232
1.26126
1.64774
2.08312
0.398935
0.360158
0.342216
0.355336
0.408421
0.508192
0.658017
0.856028
1.09303
1.35201
0.398924
0.360148
0.342205
0.355323
0.408406
0.508174
0.657995
0.856001
1.093
1.35197
0.398918
0.360141
0.342198
0.355315
0.408396
0.508161
0.657979
0.855982
1.09298
1.35194
0.398914
0.360138
0.342194
0.35531
0.40839
0.508154
0.65797
0.85597
1.09296
1.35193
0.398914
0.360137
0.342193
0.355308
0.408388
0.508151
0.657966
0.855966
1.09296
1.35192
0.398917
0.36014
0.342195
0.35531
0.40839
0.508153
0.657968
0.855969
1.09296
1.35193
0.398923
0.360145
0.342201
0.355316
0.408396
0.508159
0.657976
0.855979
1.09297
1.35194
0.398933
0.360154
0.342209
0.355325
0.408405
0.508171
0.65799
0.855996
1.09299
1.35197
0.398946
0.360167
0.342221
0.355337
0.408419
0.508187
0.658009
0.85602
1.09302
1.352
0.398962
0.360182
0.342236
0.355352
0.408436
0.508207
0.658035
0.856051
1.09306
1.35205
0.269718
0.253827
0.248949
0.263292
0.30345
0.373669
0.474942
0.6036
0.749706
0.896668
0.269711
0.253819
0.248941
0.263283
0.303439
0.373656
0.474926
0.60358
0.749682
0.896642
0.269706
0.253814
0.248935
0.263276
0.303431
0.373646
0.474914
0.603566
0.749666
0.896623
0.269703
0.253811
0.248932
0.263272
0.303427
0.37364
0.474907
0.603558
0.749656
0.896612
0.269703
0.253811
0.248931
0.263271
0.303425
0.373638
0.474904
0.603554
0.749653
0.896608
0.269705
0.253813
0.248933
0.263273
0.303427
0.37364
0.474906
0.603557
0.749656
0.896612
0.26971
0.253818
0.248938
0.263278
0.303431
0.373645
0.474913
0.603565
0.749666
0.896624
0.269717
0.253825
0.248944
0.263285
0.303439
0.373655
0.474924
0.603579
0.749682
0.896643
0.269727
0.253834
0.248954
0.263294
0.30345
0.373667
0.47494
0.603598
0.749705
0.89667
0.269739
0.253846
0.248966
0.263307
0.303464
0.373684
0.474959
0.603622
0.749734
0.896705
0.202417
0.201546
0.203587
0.21844
0.252287
0.308394
0.386621
0.481973
0.581904
0.660832
0.202412
0.20154
0.203581
0.218433
0.252279
0.308384
0.386609
0.481959
0.581888
0.660814
0.202408
0.201536
0.203577
0.218428
0.252272
0.308377
0.3866
0.481948
0.581876
0.660801
0.202406
0.201534
0.203574
0.218425
0.252269
0.308372
0.386594
0.481941
0.581868
0.660792
0.202406
0.201534
0.203574
0.218424
0.252268
0.30837
0.386592
0.481939
0.581865
0.66079
0.202408
0.201535
0.203575
0.218425
0.252269
0.308372
0.386594
0.481941
0.581868
0.660793
0.202412
0.201539
0.203579
0.218429
0.252273
0.308377
0.3866
0.481948
0.581876
0.660802
0.202418
0.201545
0.203585
0.218436
0.25228
0.308385
0.38661
0.48196
0.58189
0.660818
0.202426
0.201553
0.203593
0.218444
0.25229
0.308396
0.386623
0.481976
0.581909
0.66084
0.202435
0.201563
0.203603
0.218455
0.252302
0.30841
0.38664
0.481996
0.581934
0.660867
30.7057
35.9268
38.5528
40.0337
40.913
41.4442
41.7643
41.953
42.0574
42.1037
30.7053
35.9263
38.5523
40.0332
40.9124
41.4436
41.7638
41.9525
42.0569
42.1033
30.705
35.926
38.552
40.0328
40.9121
41.4433
41.7635
41.9522
42.0566
42.1031
30.7048
35.9259
38.5518
40.0326
40.9119
41.4431
41.7633
41.952
42.0564
42.1029
30.7048
35.9258
38.5517
40.0325
40.9118
41.443
41.7632
41.9519
42.0564
42.1029
30.7048
35.9258
38.5517
40.0326
40.9119
41.4431
41.7633
41.952
42.0564
42.103
30.7049
35.9259
38.5518
40.0327
40.912
41.4433
41.7634
41.9522
42.0566
42.1031
30.705
35.9261
38.5521
40.033
40.9123
41.4435
41.7637
41.9525
42.0569
42.1035
30.7053
35.9264
38.5524
40.0334
40.9127
41.4439
41.7641
41.9529
42.0573
42.1039
30.7056
35.9268
38.5528
40.0338
40.9131
41.4444
41.7646
41.9534
42.0578
42.1043
20.1196
24.1646
26.6181
28.0973
28.994
29.5384
29.8662
30.059
30.1654
30.2127
20.1194
24.1643
26.6178
28.0969
28.9937
29.538
29.8658
30.0587
30.1651
30.2124
20.1192
24.1641
26.6175
28.0966
28.9934
29.5377
29.8655
30.0584
30.1648
30.2122
20.119
24.1639
26.6173
28.0965
28.9932
29.5375
29.8654
30.0583
30.1647
30.212
20.119
24.1639
26.6173
28.0964
28.9932
29.5375
29.8653
30.0582
30.1647
30.212
20.119
24.1639
26.6173
28.0965
28.9932
29.5375
29.8654
30.0583
30.1647
30.2121
20.1191
24.164
26.6174
28.0966
28.9933
29.5377
29.8655
30.0584
30.1649
30.2122
20.1192
24.1642
26.6176
28.0968
28.9936
29.5379
29.8658
30.0587
30.1651
30.2125
20.1194
24.1644
26.6179
28.0971
28.9939
29.5383
29.8661
30.059
30.1655
30.2129
20.1197
24.1647
26.6183
28.0975
28.9943
29.5387
29.8666
30.0595
30.1659
30.2133
13.5071
16.2076
18.0888
19.325
20.1139
20.6076
20.9104
21.0906
21.1906
21.2352
13.5069
16.2074
18.0886
19.3247
20.1136
20.6073
20.9101
21.0903
21.1904
21.235
13.5068
16.2072
18.0884
19.3245
20.1134
20.6071
20.9099
21.0901
21.1902
21.2348
13.5067
16.2071
18.0882
19.3244
20.1133
20.607
20.9098
21.09
21.1901
21.2347
13.5066
16.207
18.0882
19.3244
20.1132
20.6069
20.9098
21.0899
21.1901
21.2347
13.5067
16.207
18.0882
19.3244
20.1133
20.6069
20.9098
21.09
21.1901
21.2348
13.5067
16.2071
18.0883
19.3245
20.1134
20.6071
20.9099
21.0901
21.1902
21.2349
13.5068
16.2073
18.0885
19.3247
20.1136
20.6073
20.9101
21.0903
21.1905
21.2351
13.507
16.2075
18.0887
19.3249
20.1138
20.6075
20.9104
21.0906
21.1907
21.2354
13.5072
16.2077
18.089
19.3252
20.1142
20.6079
20.9108
21.091
21.1911
21.2358
9.05678
10.7914
12.1127
13.0452
13.6722
14.0796
14.3361
14.4916
14.579
14.6182
9.05662
10.7913
12.1125
13.045
13.672
14.0793
14.3359
14.4913
14.5788
14.618
9.05651
10.7911
12.1124
13.0448
13.6719
14.0792
14.3357
14.4912
14.5786
14.6179
9.05644
10.791
12.1123
13.0447
13.6718
14.0791
14.3356
14.4911
14.5786
14.6178
9.05641
10.791
12.1123
13.0447
13.6717
14.0791
14.3356
14.4911
14.5785
14.6178
9.05642
10.791
12.1123
13.0447
13.6718
14.0791
14.3357
14.4911
14.5786
14.6179
9.05647
10.7911
12.1124
13.0448
13.6719
14.0792
14.3358
14.4912
14.5787
14.618
9.05656
10.7912
12.1125
13.0449
13.672
14.0793
14.3359
14.4914
14.5789
14.6182
9.05669
10.7914
12.1127
13.0451
13.6722
14.0796
14.3361
14.4916
14.5791
14.6184
9.05687
10.7916
12.1129
13.0454
13.6725
14.0799
14.3364
14.4919
14.5794
14.6187
6.00695
7.10363
7.98838
8.64763
9.11165
9.42421
9.62669
9.752
9.82352
9.85589
6.00683
7.1035
7.98824
8.64748
9.11148
9.42405
9.62653
9.75184
9.82337
9.85577
6.00675
7.1034
7.98814
8.64737
9.11137
9.42393
9.62641
9.75173
9.82327
9.85569
6.00669
7.10334
7.98807
8.6473
9.1113
9.42386
9.62635
9.75167
9.82321
9.85563
6.00667
7.10332
7.98805
8.64728
9.11128
9.42384
9.62633
9.75165
9.8232
9.85563
6.00668
7.10333
7.98807
8.6473
9.11131
9.42387
9.62636
9.75169
9.82324
9.85566
6.00672
7.10338
7.98812
8.64737
9.11138
9.42395
9.62644
9.75177
9.82332
9.85575
6.0068
7.10347
7.98822
8.64747
9.11149
9.42407
9.62657
9.7519
9.82346
9.85589
6.0069
7.10359
7.98836
8.64763
9.11166
9.42424
9.62675
9.75209
9.82365
9.85608
6.00704
7.10375
7.98855
8.64783
9.11187
9.42447
9.62698
9.75233
9.82389
9.85632
3.92708
4.61126
5.18476
5.62997
5.95542
6.18193
6.33267
6.42797
6.48322
6.50846
3.92699
4.61116
5.18466
5.62986
5.95531
6.18181
6.33255
6.42785
6.48311
6.50838
3.92693
4.61109
5.18458
5.62978
5.95522
6.18172
6.33247
6.42777
6.48304
6.50832
3.92689
4.61105
5.18454
5.62973
5.95518
6.18168
6.33242
6.42773
6.483
6.50828
3.92688
4.61104
5.18452
5.62972
5.95516
6.18166
6.33241
6.42772
6.48299
6.50828
3.92689
4.61105
5.18454
5.62973
5.95518
6.18169
6.33243
6.42775
6.48302
6.50831
3.92692
4.61109
5.18458
5.62978
5.95524
6.18174
6.3325
6.42781
6.48309
6.50838
3.92698
4.61115
5.18465
5.62987
5.95532
6.18184
6.33259
6.42791
6.48319
6.50848
3.92706
4.61125
5.18476
5.62998
5.95545
6.18197
6.33273
6.42805
6.48333
6.50863
3.92716
4.61137
5.1849
5.63013
5.95561
6.18214
6.33291
6.42823
6.48352
6.50881
2.53006
2.94911
3.31027
3.59983
3.81834
3.97488
4.08168
4.1506
4.19117
4.20989
2.53
2.94904
3.31019
3.59975
3.81826
3.97479
4.0816
4.15052
4.1911
4.20984
2.52996