/*--------------------------------*- C++ -*----------------------------------*\
  =========                 |
  \\      /  F ield         | OpenFOAM: The Open Source CFD Toolbox
   \\    /   O peration     | Website:  https://openfoam.org
    \\  /    A nd           | Version:  6
     \\/     M anipulation  |
\*---------------------------------------------------------------------------*/
FoamFile
{
    version     2.0;
    format      ascii;
    class       surfaceScalarField;
    location    "1000";
    object      phi;
}
// * * * * * * * * * * * * * * * * * * * * * * * * * * * * * * * * * * * * * //

dimensions      [0 3 -1 0 0 0 0];

internalField   nonuniform List<scalar> 
19500
(
1.55673e-07
1.56333e-07
9.96876e-05
1.65906e-08
1.56385e-07
9.99822e-05
1.05746e-08
1.56367e-07
9.98492e-05
4.91781e-09
1.56274e-07
9.98489e-05
-1.62792e-09
1.56168e-07
9.98499e-05
-8.02906e-09
1.56033e-07
9.98498e-05
-1.32015e-08
1.55882e-07
9.98488e-05
-1.84056e-08
1.55749e-07
9.98489e-05
-1.59103e-07
1.55579e-07
9.99846e-05
1.55302e-07
9.96851e-05
1.55726e-07
1.69624e-08
9.99832e-05
1.64914e-08
1.68676e-08
0.000100278
1.0517e-08
1.68209e-08
0.000100145
4.83835e-09
1.67674e-08
0.000100145
-1.7237e-09
1.67009e-08
0.000100145
-8.1343e-09
1.66285e-08
0.000100145
-1.33063e-08
1.65575e-08
0.000100144
-1.84134e-08
1.64967e-08
0.000100144
-1.59384e-07
1.64481e-08
0.00010028
1.64352e-08
9.9979e-05
1.55716e-07
1.11739e-08
9.98496e-05
1.64448e-08
1.11312e-08
0.000100145
1.04507e-08
1.10733e-08
0.000100011
4.76474e-09
1.10005e-08
0.000100011
-1.80996e-09
1.09122e-08
0.000100012
-8.22447e-09
1.08158e-08
0.000100012
-1.33779e-08
1.07204e-08
0.00010001
-1.84593e-08
1.06386e-08
0.00010001
-1.59559e-07
1.05712e-08
0.000100146
1.04643e-08
9.98459e-05
1.55647e-07
5.70336e-09
9.98494e-05
1.63996e-08
5.65382e-09
0.000100144
1.03795e-08
5.60208e-09
0.000100011
4.67887e-09
5.52861e-09
0.000100011
-1.90512e-09
5.43758e-09
0.000100012
-8.3191e-09
5.33686e-09
0.000100011
-1.3458e-08
5.23651e-09
0.00010001
-1.85146e-08
5.14941e-09
0.00010001
-1.59693e-07
5.07286e-09
0.000100146
4.97217e-09
9.98453e-05
1.55584e-07
-7.13732e-10
9.98504e-05
1.63527e-08
-7.62159e-10
0.000100145
1.03066e-08
-8.11442e-10
0.000100012
4.58948e-09
-8.77074e-10
0.000100012
-2.00371e-09
-9.58399e-10
0.000100012
-8.41648e-09
-1.04787e-09
0.000100012
-1.35417e-08
-1.13608e-09
0.000100011
-1.85718e-08
-1.2117e-09
0.000100011
-1.59833e-07
-1.2734e-09
0.000100147
-1.35226e-09
9.9846e-05
1.55518e-07
-7.06267e-09
9.98504e-05
1.63118e-08
-7.10564e-09
0.000100145
1.0242e-08
-7.14765e-09
0.000100012
4.50855e-09
-7.19919e-09
0.000100012
-2.09249e-09
-7.26302e-09
0.000100012
-8.50335e-09
-7.33251e-09
0.000100012
-1.36171e-08
-7.39966e-09
0.000100011
-1.86238e-08
-7.45574e-09
0.000100011
-1.59938e-07
-7.49558e-09
0.000100147
-7.54524e-09
9.98458e-05
1.55455e-07
-1.23167e-08
9.98493e-05
1.62812e-08
-1.23521e-08
0.000100144
1.01921e-08
-1.23727e-08
0.000100011
4.44407e-09
-1.24048e-08
0.00010001
-2.1626e-09
-1.24464e-08
0.000100011
-8.57087e-09
-1.24926e-08
0.000100011
-1.36764e-08
-1.2537e-08
0.00010001
-1.86643e-08
-1.25735e-08
0.00010001
-1.60001e-07
-1.26033e-08
0.000100146
-1.26316e-08
9.98446e-05
1.55419e-07
-1.77444e-08
9.98495e-05
1.62604e-08
-1.77003e-08
0.000100144
1.01591e-08
-1.77067e-08
0.000100011
4.39965e-09
-1.77237e-08
0.000100011
-2.21012e-09
-1.77446e-08
0.000100011
-8.61532e-09
-1.77675e-08
0.000100011
-1.37152e-08
-1.77886e-08
0.00010001
-1.86893e-08
-1.78037e-08
0.00010001
-1.60046e-07
-1.78296e-08
0.000100146
-1.79016e-08
9.98448e-05
1.55346e-07
-1.57715e-07
9.99842e-05
1.62534e-08
-1.57858e-07
0.000100279
1.01423e-08
-1.5793e-07
0.000100146
4.36953e-09
-1.57959e-07
0.000100146
-2.23727e-09
-1.58004e-07
0.000100146
-8.63568e-09
-1.5804e-07
0.000100146
-1.37388e-08
-1.58066e-07
0.000100145
-1.87157e-08
-1.58095e-07
0.000100145
-1.60008e-07
-1.58054e-07
0.000100281
-1.5791e-07
9.99796e-05
1.552e-07
9.96867e-05
1.62926e-08
9.99806e-05
1.01055e-08
9.98478e-05
4.33124e-09
9.98474e-05
-2.27241e-09
9.98482e-05
-8.66368e-09
9.98479e-05
-1.37638e-08
9.98466e-05
-1.87906e-08
9.98465e-05
-1.59867e-07
9.99826e-05
9.96819e-05
2.21151e-07
2.22496e-07
9.92421e-05
6.79763e-08
2.22515e-07
9.99109e-05
3.95159e-08
2.22123e-07
9.96535e-05
1.35517e-08
2.21886e-07
9.96509e-05
-6.50605e-09
2.21514e-07
9.96462e-05
-2.60182e-08
2.21046e-07
9.96461e-05
-5.0354e-08
2.20513e-07
9.96503e-05
-7.61293e-08
2.19944e-07
9.96526e-05
-2.30201e-07
2.197e-07
9.99168e-05
2.18781e-07
9.92347e-05
2.21173e-07
6.93555e-08
9.99132e-05
6.78262e-08
6.92391e-08
0.000100583
3.92291e-08
6.90341e-08
0.000100325
1.31293e-08
6.87586e-08
0.000100322
-7.01296e-09
6.84397e-08
0.000100316
-2.65801e-08
6.80812e-08
0.000100316
-5.09463e-08
6.77136e-08
0.000100319
-7.66921e-08
6.7401e-08
0.00010032
-2.31153e-07
6.7174e-08
0.000100584
6.66152e-08
9.98985e-05
2.20807e-07
4.16588e-08
9.96546e-05
6.76193e-08
4.14608e-08
0.000100323
3.89867e-08
4.12593e-08
0.000100066
1.28202e-08
4.0942e-08
0.000100063
-7.37858e-09
4.05598e-08
0.000100058
-2.69691e-08
4.01331e-08
0.000100057
-5.13032e-08
3.97004e-08
0.000100061
-7.69341e-08
3.93217e-08
0.000100062
-2.31445e-07
3.90052e-08
0.000100327
3.84212e-08
9.96412e-05
2.20649e-07
1.63827e-08
9.9652e-05
6.73808e-08
1.61246e-08
0.000100321
3.86688e-08
1.59131e-08
0.000100063
1.24401e-08
1.55962e-08
0.00010006
-7.80192e-09
1.52063e-08
0.000100055
-2.73984e-08
1.47725e-08
0.000100054
-5.16819e-08
1.43355e-08
0.000100057
-7.72188e-08
1.39482e-08
0.000100059
-2.32053e-07
1.36375e-08
0.000100324
1.31206e-08
9.96371e-05
2.20428e-07
-3.14532e-09
9.96475e-05
6.71536e-08
-3.40205e-09
0.000100316
3.83495e-08
-3.60913e-09
0.000100058
1.20495e-08
-3.89613e-09
0.000100055
-8.23622e-09
-4.24999e-09
0.00010005
-2.78365e-08
-4.6388e-09
0.000100049
-5.2073e-08
-5.02441e-09
0.000100052
-7.75251e-08
-5.36375e-09
0.000100053
-2.3259e-07
-5.61755e-09
0.000100319
-6.02814e-09
9.96312e-05
2.20194e-07
-2.24057e-08
9.96475e-05
6.69479e-08
-2.26386e-08
0.000100316
3.80605e-08
-2.28233e-08
0.000100058
1.16961e-08
-2.30569e-08
0.000100055
-8.62453e-09
-2.33455e-08
0.00010005
-2.82223e-08
-2.36576e-08
0.000100049
-5.24142e-08
-2.39603e-08
0.000100052
-7.77892e-08
-2.4222e-08
0.000100053
-2.33006e-07
-2.43962e-08
0.000100319
-2.46733e-08
9.96301e-05
2.19968e-07
-4.68873e-08
9.96519e-05
6.67803e-08
-4.71124e-08
0.00010032
3.78257e-08
-4.72555e-08
0.000100062
1.14087e-08
-4.74178e-08
0.000100059
-8.93523e-09
-4.76271e-08
0.000100054
-2.85243e-08
-4.78507e-08
0.000100053
-5.26761e-08
-4.80618e-08
0.000100056
-7.79851e-08
-4.82445e-08
0.000100057
-2.33275e-07
-4.83564e-08
0.000100323
-4.84563e-08
9.96338e-05
2.19745e-07
-7.33315e-08
9.96543e-05
6.66778e-08
-7.35359e-08
0.000100322
3.7665e-08
-7.35944e-08
0.000100064
1.12028e-08
-7.36852e-08
0.000100061
-9.15628e-09
-7.38189e-08
0.000100056
-2.87337e-08
-7.39575e-08
0.000100055
-5.28579e-08
-7.4079e-08
0.000100058
-7.81366e-08
-7.4203e-08
0.000100059
-2.3337e-07
-7.42831e-08
0.000100325
-7.42529e-08
9.9636e-05
2.19827e-07
-2.27008e-07
9.99161e-05
6.66263e-08
-2.27397e-07
0.000100584
3.75424e-08
-2.27319e-07
0.000100327
1.10653e-08
-2.27526e-07
0.000100324
-9.28157e-09
-2.27703e-07
0.000100319
-2.88289e-08
-2.27853e-07
0.000100318
-5.29357e-08
-2.27969e-07
0.000100321
-7.82123e-08
-2.27996e-07
0.000100322
-2.33612e-07
-2.28224e-07
0.000100588
-2.27926e-07
9.98984e-05
2.19463e-07
9.92389e-05
6.64519e-08
9.99049e-05
3.73762e-08
9.96483e-05
1.09262e-08
9.9645e-05
-9.40717e-09
9.96395e-05
-2.89324e-08
9.96383e-05
-5.29491e-08
9.96414e-05
-7.81506e-08
9.96425e-05
-2.33305e-07
9.99083e-05
9.92201e-05
2.48531e-07
2.50618e-07
9.87411e-05
8.74111e-08
2.50744e-07
9.98194e-05
5.33304e-08
2.49732e-07
9.94358e-05
1.85572e-08
2.49412e-07
9.94342e-05
-1.03228e-08
2.48736e-07
9.94242e-05
-3.83444e-08
2.47918e-07
9.9424e-05
-7.05373e-08
2.47003e-07
9.94333e-05
-1.00419e-07
2.45874e-07
9.94344e-05
-2.62435e-07
2.4574e-07
9.98309e-05
2.43969e-07
9.87269e-05
2.48663e-07
8.96398e-08
9.98237e-05
8.73668e-08
8.96613e-08
0.000100903
5.28582e-08
8.92319e-08
0.000100518
1.78361e-08
8.87321e-08
0.000100515
-1.12448e-08
8.81642e-08
0.000100504
-3.94175e-08
8.75006e-08
0.000100502
-7.17058e-08
8.67859e-08
0.000100509
-1.01724e-07
8.61535e-08
0.000100507
-2.64218e-07
8.57099e-08
0.000100905
8.43875e-08
9.97925e-05
2.47698e-07
5.6743e-08
9.94379e-05
8.69341e-08
5.64405e-08
0.000100515
5.24344e-08
5.60881e-08
0.000100131
1.72795e-08
5.55173e-08
0.000100129
-1.19023e-08
5.48307e-08
0.000100118
-4.01279e-08
5.40411e-08
0.000100116
-7.24052e-08
5.32068e-08
0.000100124
-1.02183e-07
5.24411e-08
0.000100123
-2.64445e-07
5.17628e-08
0.000100521
5.05793e-08
9.94091e-05
2.47522e-07
2.30489e-08
9.94363e-05
8.64992e-08
2.26432e-08
0.000100514
5.18598e-08
2.22616e-08
0.000100129
1.65837e-08
2.16884e-08
0.000100127
-1.26902e-08
2.09822e-08
0.000100116
-4.09525e-08
2.01811e-08
0.000100114
-7.31782e-08
1.93477e-08
0.000100121
-1.02812e-07
1.85754e-08
0.00010012
-2.65668e-07
1.79273e-08
0.000100519
1.68981e-08
9.94037e-05
2.47125e-07
-4.97952e-09
9.94265e-05
8.60998e-08
-5.41388e-09
0.000100503
5.12898e-08
-5.77627e-09
0.000100119
1.58735e-08
-6.29346e-09
0.000100117
-1.34967e-08
-6.93521e-09
0.000100105
-4.17929e-08
-7.64915e-09
0.000100103
-7.39716e-08
-8.37467e-09
0.00010011
-1.0348e-07
-9.04271e-09
0.000100108
-2.66623e-07
-9.5767e-09
0.000100508
-1.03332e-08
9.93904e-05
2.46744e-07
-3.25762e-08
9.94264e-05
8.57288e-08
-3.30005e-08
0.000100502
5.07682e-08
-3.33115e-08
0.000100118
1.52319e-08
-3.37292e-08
0.000100116
-1.42116e-08
-3.42524e-08
0.000100104
-4.25216e-08
-3.48201e-08
0.000100102
-7.46444e-08
-3.53797e-08
0.000100109
-1.04031e-07
-3.58877e-08
0.000100107
-2.67361e-07
-3.62688e-08
0.000100507
-3.66973e-08
9.93878e-05
2.46414e-07
-6.49945e-08
9.9436e-05
8.54172e-08
-6.5407e-08
0.000100511
5.03396e-08
-6.56534e-08
0.000100128
1.47126e-08
-6.59423e-08
0.000100125
-1.47758e-08
-6.63228e-08
0.000100113
-4.30796e-08
-6.67244e-08
0.000100111
-7.51407e-08
-6.71043e-08
0.000100118
-1.04418e-07
-6.74605e-08
0.000100116
-2.6783e-07
-6.76771e-08
0.000100516
-6.77901e-08
9.93958e-05
2.45968e-07
-9.59088e-08
9.94374e-05
8.5241e-08
-9.64744e-08
0.000100511
5.00554e-08
-9.65016e-08
0.000100128
1.43484e-08
-9.6656e-08
0.000100126
-1.51726e-08
-9.69029e-08
0.000100114
-4.34647e-08
-9.71505e-08
0.000100111
-7.54903e-08
-9.73724e-08
0.000100118
-1.04701e-07
-9.75975e-08
0.000100116
-2.67875e-07
-9.78675e-08
0.000100517
-9.75334e-08
9.93966e-05
2.46487e-07
-2.57345e-07
9.98292e-05
8.52281e-08
-2.5804e-07
0.000100905
4.98481e-08
-2.57529e-07
0.000100521
1.41242e-08
-2.5794e-07
0.000100519
-1.53911e-08
-2.58181e-07
0.000100507
-4.36601e-08
-2.58411e-07
0.000100505
-7.56257e-08
-2.58598e-07
0.000100512
-1.04956e-07
-2.58537e-07
0.00010051
-2.68626e-07
-2.59279e-07
0.000100912
-2.58593e-07
9.97897e-05
2.45806e-07
9.87345e-05
8.47107e-08
9.98067e-05
4.9533e-08
9.94246e-05
1.38622e-08
9.94214e-05
-1.55958e-08
9.94094e-05
-4.37666e-08
9.94067e-05
-7.56004e-08
9.94133e-05
-1.04575e-07
9.94117e-05
-2.67943e-07
9.98113e-05
9.8693e-05
2.64405e-07
2.67237e-07
9.82077e-05
9.64828e-08
2.67512e-07
9.9718e-05
5.74603e-08
2.65786e-07
9.92072e-05
1.90212e-08
2.65344e-07
9.92053e-05
-1.43928e-08
2.64181e-07
9.91914e-05
-4.6612e-08
2.62839e-07
9.91913e-05
-8.15041e-08
2.61371e-07
9.92047e-05
-1.14776e-07
2.59373e-07
9.92062e-05
-2.83768e-07
2.59134e-07
9.97387e-05
2.5591e-07
9.81857e-05
2.64693e-07
9.95432e-08
9.97249e-05
9.65305e-08
9.97048e-08
0.000101237
5.67371e-08
9.89619e-08
0.000100722
1.79166e-08
9.8174e-08
0.000100719
-1.59066e-08
9.72683e-08
0.000100703
-4.84769e-08
9.61738e-08
0.000100699
-8.35217e-08
9.49488e-08
0.000100708
-1.17142e-07
9.38049e-08
0.000100704
-2.86933e-07
9.30345e-08
0.000101238
9.05651e-08
9.96694e-05
2.6305e-07
6.21499e-08
9.92104e-05
9.57824e-08
6.17227e-08
0.000100719
5.60452e-08
6.11533e-08
0.000100207
1.69963e-08
6.0262e-08
0.000100204
-1.69783e-08
5.91762e-08
0.000100188
-4.96409e-08
5.78918e-08
0.000100185
-8.47208e-08
5.64874e-08
0.000100196
-1.17943e-07
5.51404e-08
0.000100193
-2.87389e-07
5.39523e-08
0.000100727
5.18129e-08
9.91591e-05
2.62861e-07
2.52431e-08
9.92085e-05
9.51071e-08
2.46957e-08
0.000100716
5.51456e-08
2.40808e-08
0.000100204
1.58837e-08
2.31895e-08
0.000100201
-1.82646e-08
2.20818e-08
0.000100185
-5.10281e-08
2.07989e-08
0.000100182
-8.60778e-08
1.94283e-08
0.000100191
-1.19099e-07
1.81127e-08
0.000100188
-2.89602e-07
1.70158e-08
0.000100724
1.51733e-08
9.91494e-05
2.62189e-07
-6.90571e-09
9.91946e-05
9.45001e-08
-7.54794e-09
0.000100701
5.42671e-08
-8.09354e-09
0.000100189
1.47673e-08
-8.88489e-09
0.000100186
-1.95586e-08
-9.87657e-09
0.000100169
-5.24139e-08
-1.09932e-08
0.000100166
-8.7428e-08
-1.21474e-08
0.000100175
-1.20278e-07
-1.32371e-08
0.000100171
-2.91163e-07
-1.4125e-08
0.000100708
-1.53491e-08
9.91285e-05
2.61628e-07
-3.84492e-08
9.91945e-05
9.39351e-08
-3.91293e-08
0.000100699
5.34694e-08
-3.95575e-08
0.000100188
1.3776e-08
-4.01829e-08
0.000100185
-2.06767e-08
-4.09757e-08
0.000100168
-5.35743e-08
-4.18369e-08
0.000100164
-8.85194e-08
-4.26863e-08
0.000100172
-1.2119e-07
-4.34654e-08
0.000100168
-2.92347e-07
-4.40828e-08
0.000100706
-4.46261e-08
9.91235e-05
2.61228e-07
-7.35564e-08
9.92081e-05
9.34593e-08
-7.41865e-08
0.000100712
5.28199e-08
-7.45187e-08
0.000100201
1.29914e-08
-7.49429e-08
0.000100197
-2.15297e-08
-7.55077e-08
0.00010018
-5.44193e-08
-7.60933e-08
0.000100176
-8.92684e-08
-7.66349e-08
0.000100184
-1.21761e-07
-7.71254e-08
0.00010018
-2.93096e-07
-7.74761e-08
0.000100719
-7.74524e-08
9.91344e-05
2.60502e-07
-1.0821e-07
9.92097e-05
9.32034e-08
-1.09173e-07
0.000100712
5.24042e-08
-1.09116e-07
0.000100202
1.24609e-08
-1.09334e-07
0.000100198
-2.21064e-08
-1.09695e-07
0.000100181
-5.49744e-08
-1.10044e-07
0.000100176
-8.97468e-08
-1.10321e-07
0.000100185
-1.22162e-07
-1.10638e-07
0.00010018
-2.9294e-07
-1.11048e-07
0.000100719
-1.10258e-07
9.91354e-05
2.61502e-07
-2.76311e-07
9.9734e-05
9.32836e-08
-2.77402e-07
0.000101239
5.21412e-08
-2.76425e-07
0.000100728
1.21827e-08
-2.7709e-07
0.000100725
-2.24067e-08
-2.7733e-07
0.000100708
-5.52528e-08
-2.77614e-07
0.000100704
-8.99574e-08
-2.77908e-07
0.000100712
-1.22537e-07
-2.77607e-07
0.000100708
-2.94153e-07
-2.78852e-07
0.000101249
-2.77518e-07
9.96618e-05
2.60394e-07
9.81966e-05
9.23732e-08
9.96961e-05
5.16487e-08
9.91876e-05
1.17484e-08
9.91829e-05
-2.26681e-08
9.91652e-05
-5.5303e-08
9.91604e-05
-8.97578e-08
9.91686e-05
-1.21725e-07
9.91648e-05
-2.92871e-07
9.97025e-05
9.81222e-05
2.75891e-07
2.79454e-07
9.76508e-05
1.0337e-07
2.79849e-07
9.9609e-05
5.92746e-08
2.77348e-07
9.89721e-05
1.78868e-08
2.76679e-07
9.89681e-05
-1.89686e-08
2.74782e-07
9.89515e-05
-5.43144e-08
2.7263e-07
9.89519e-05
-9.11355e-08
2.70266e-07
9.89692e-05
-1.27791e-07
2.66883e-07
9.89739e-05
-3.01663e-07
2.65994e-07
9.96444e-05
2.60256e-07
9.76224e-05
2.76307e-07
1.07217e-07
9.96191e-05
1.03412e-07
1.07449e-07
0.000101581
5.81574e-08
1.06321e-07
0.000100937
1.62074e-08
1.05133e-07
0.000100931
-2.13934e-08
1.03712e-07
0.000100909
-5.74198e-08
1.01948e-07
0.000100904
-9.45386e-08
9.9898e-08
0.000100914
-1.31815e-07
9.78756e-08
0.000100909
-3.0718e-07
9.63808e-08
0.000101581
9.20527e-08
9.9529e-05
2.73946e-07
6.52254e-08
9.89767e-05
1.02275e-07
6.46071e-08
0.000100932
5.70776e-08
6.37349e-08
0.000100293
1.47416e-08
6.23945e-08
0.000100287
-2.31139e-08
6.07203e-08
0.000100267
-5.93289e-08
5.86848e-08
0.000100263
-9.65943e-08
5.63752e-08
0.000100274
-1.33364e-07
5.40713e-08
0.000100271
-3.08533e-07
5.1966e-08
0.000100945
4.81485e-08
9.88931e-05
2.73704e-07
2.59161e-08
9.89724e-05
1.01279e-07
2.5188e-08
0.000100927
5.57216e-08
2.42473e-08
0.000100288
1.30196e-08
2.29134e-08
0.000100281
-2.51589e-08
2.12306e-08
0.000100261
-6.1609e-08
1.9239e-08
0.000100255
-9.89216e-08
1.70462e-08
0.000100266
-1.35468e-07
1.4887e-08
0.000100262
-3.12432e-07
1.30186e-08
0.000100938
9.80534e-09
9.88741e-05
2.72644e-07
-9.13097e-09
9.89553e-05
1.00376e-07
-1.00404e-08
0.000100907
5.44074e-08
-1.08358e-08
0.000100269
1.132e-08
-1.19998e-08
0.000100262
-2.71736e-08
-1.34744e-08
0.00010024
-6.38217e-08
-1.51563e-08
0.000100234
-1.01147e-07
-1.69257e-08
0.000100244
-1.37487e-07
-1.86089e-08
0.000100238
-3.15051e-07
-2.00392e-08
0.000100917
-2.19639e-08
9.88441e-05
2.71847e-07
-4.33732e-08
9.89551e-05
9.95485e-08
-4.43833e-08
0.000100904
5.3234e-08
-4.49646e-08
0.000100267
9.84649e-09
-4.5863e-08
0.00010026
-2.88581e-08
-4.70096e-08
0.000100238
-6.55945e-08
-4.82536e-08
0.000100231
-1.0284e-07
-4.94745e-08
0.00010024
-1.38934e-07
-5.05696e-08
0.000100234
-3.1691e-07
-5.14865e-08
0.000100914
-5.20424e-08
9.88356e-05
2.7138e-07
-8.02889e-08
9.89718e-05
9.88634e-08
-8.11661e-08
0.000100919
5.2297e-08
-8.16097e-08
0.000100282
8.71428e-09
-8.22076e-08
0.000100275
-3.00872e-08
-8.29958e-08
0.000100253
-6.68028e-08
-8.37944e-08
0.000100246
-1.03889e-07
-8.44986e-08
0.000100254
-1.39725e-07
-8.51032e-08
0.000100248
-3.1793e-07
-8.54731e-08
0.000100929
-8.51491e-08
9.88486e-05
2.70319e-07
-1.18679e-07
9.89761e-05
9.84941e-08
-1.20055e-07
0.000100921
5.17127e-08
-1.19935e-07
0.000100285
7.98299e-09
-1.20236e-07
0.000100278
-3.08684e-08
-1.2072e-07
0.000100255
-6.75232e-08
-1.2116e-07
0.000100248
-1.0447e-07
-1.21489e-07
0.000100257
-1.40115e-07
-1.21761e-07
0.000100251
-3.17386e-07
-1.22298e-07
0.000100932
-1.20783e-07
9.88527e-05
2.71768e-07
-2.91213e-07
9.9633e-05
9.86572e-08
-2.92726e-07
0.000101583
5.13899e-08
-2.91314e-07
0.000100944
7.66102e-09
-2.92263e-07
0.000100938
-3.12325e-08
-2.92447e-07
0.000100916
-6.78823e-08
-2.92765e-07
0.00010091
-1.04618e-07
-2.93113e-07
0.000100919
-1.40577e-07
-2.92468e-07
0.000100913
-3.18812e-07
-2.94056e-07
0.000101598
-2.91604e-07
9.9513e-05
2.70178e-07
9.76341e-05
9.73409e-08
9.9575e-05
5.06986e-08
9.89417e-05
7.02066e-09
9.8933e-05
-3.15454e-08
9.891e-05
-6.77424e-08
9.89026e-05
-1.04195e-07
9.89106e-05
-1.39151e-07
9.89062e-05
-3.16537e-07
9.95849e-05
9.75137e-05
2.82474e-07
2.86658e-07
9.70802e-05
1.07858e-07
2.87103e-07
9.9495e-05
6.0033e-08
2.83713e-07
9.87346e-05
1.61143e-08
2.82628e-07
9.87276e-05
-2.4079e-08
2.7967e-07
9.87101e-05
-6.24536e-08
2.76266e-07
9.8712e-05
-1.00773e-07
2.72398e-07
9.87331e-05
-1.39409e-07
2.66775e-07
9.87436e-05
-3.15184e-07
2.64254e-07
9.95538e-05
2.53882e-07
9.70515e-05
2.8294e-07
1.12376e-07
9.9509e-05
1.07764e-07
1.12596e-07
0.000101929
5.83112e-08
1.10985e-07
0.000101157
1.3536e-08
1.09236e-07
0.000101147
-2.79163e-08
1.07035e-07
0.000101121
-6.75355e-08
1.04227e-07
0.000101113
-1.06514e-07
1.00841e-07
0.000101122
-1.46174e-07
9.72231e-08
0.000101116
-3.25039e-07
9.42081e-08
0.000101928
8.64398e-08
9.93698e-05
2.7978e-07
6.71378e-08
9.87407e-05
1.06141e-07
6.62387e-08
0.00010115
5.66799e-08
6.49493e-08
0.000100386
1.12711e-08
6.2974e-08
0.000100377
-3.06511e-08
6.04249e-08
0.000100353
-7.06948e-08
5.72363e-08
0.000100348
-1.10122e-07
5.34782e-08
0.000100359
-1.49275e-07
4.94825e-08
0.000100356
-3.28752e-07
4.5635e-08
0.000101171
3.85732e-08
9.86108e-05
2.79391e-07
2.59216e-08
9.87326e-05
1.04711e-07
2.49344e-08
0.000101141
5.46765e-08
2.3552e-08
0.000100377
8.64844e-09
2.15959e-08
0.000100367
-3.38646e-08
1.90767e-08
0.000100342
-7.44283e-08
1.60264e-08
0.000100335
-1.14141e-07
1.2559e-08
0.000100344
-1.5319e-07
8.9812e-09
0.000100339
-3.35762e-07
5.75413e-09
0.000101159
3.18443e-11
9.85756e-05
2.7782e-07
-1.17574e-08
9.87135e-05
1.03385e-07
-1.30163e-08
0.000101117
5.27399e-08
-1.41577e-08
0.000100355
6.09782e-09
-1.58375e-08
0.000100344
-3.69579e-08
-1.79911e-08
0.000100319
-7.7935e-08
-2.04787e-08
0.00010031
-1.17805e-07
-2.3138e-08
0.000100317
-1.56667e-07
-2.57143e-08
0.00010031
-3.40416e-07
-2.79524e-08
0.000101132
-3.09829e-08
9.85335e-05
2.76707e-07
-4.83991e-08
9.87134e-05
1.02197e-07
-4.98179e-08
0.000101114
5.1046e-08
-5.06209e-08
0.000100353
3.94677e-09
-5.18887e-08
0.000100341
-3.94486e-08
-5.35081e-08
0.000100315
-8.05975e-08
-5.52558e-08
0.000100305
-1.20388e-07
-5.69461e-08
0.000100312
-1.58919e-07
-5.83942e-08
0.000100303
-3.4329e-07
-5.95672e-08
0.000101128
-5.99114e-08
9.85201e-05
2.76141e-07
-8.6516e-08
9.87322e-05
1.01239e-07
-8.76891e-08
0.00010113
4.97258e-08
-8.82934e-08
0.00010037
2.35112e-09
-8.9123e-08
0.000100358
-4.1171e-08
-9.01902e-08
0.000100331
-8.22611e-08
-9.12344e-08
0.000100321
-1.21767e-07
-9.20893e-08
0.000100327
-1.59871e-07
-9.26465e-08
0.000100319
-3.44411e-07
-9.29276e-08
0.000101146
-9.16632e-08
9.85349e-05
2.74706e-07
-1.27167e-07
9.87404e-05
1.00706e-07
-1.28967e-07
0.000101134
4.8919e-08
-1.28812e-07
0.000100375
1.3702e-09
-1.29234e-07
0.000100364
-4.21802e-08
-1.29851e-07
0.000100337
-8.31168e-08
-1.30381e-07
0.000100326
-1.22294e-07
-1.30666e-07
0.000100332
-1.60084e-07
-1.30812e-07
0.000100325
-3.42879e-07
-1.31143e-07
0.000101151
-1.28328e-07
9.85456e-05
2.76597e-07
-3.01534e-07
9.95291e-05
1.00928e-07
-3.03494e-07
0.000101932
4.85142e-08
-3.01665e-07
0.000101168
9.99522e-10
-3.02903e-07
0.000101158
-4.25945e-08
-3.0299e-07
0.000101131
-8.34395e-08
-3.03264e-07
0.000101122
-1.22312e-07
-3.03619e-07
0.000101129
-1.60266e-07
-3.02302e-07
0.000101121
-3.43996e-07
-3.0395e-07
0.000101953
-2.99546e-07
9.93393e-05
2.74471e-07
9.70569e-05
9.91793e-08
9.94456e-05
4.75942e-08
9.86904e-05
1.25463e-10
9.86763e-05
-4.2894e-08
9.86487e-05
-8.30323e-08
9.86381e-05
-1.21326e-07
9.86441e-05
-1.57899e-07
9.86394e-05
-3.40015e-07
9.94622e-05
9.68733e-05
2.84637e-07
2.8917e-07
9.65051e-05
1.09667e-07
2.89554e-07
9.93789e-05
5.92884e-08
2.85125e-07
9.84983e-05
1.35145e-08
2.83345e-07
9.84883e-05
-2.94284e-08
2.78895e-07
9.84724e-05
-7.0337e-08
2.73595e-07
9.84774e-05
-1.09745e-07
2.67254e-07
9.8503e-05
-1.49001e-07
2.57997e-07
9.85227e-05
-3.24459e-07
2.52154e-07
9.94743e-05
2.33013e-07
9.64922e-05
2.85031e-07
1.14571e-07
9.93972e-05
1.09257e-07
1.1467e-07
0.000102278
5.66689e-08
1.12433e-07
0.000101381
9.55633e-09
1.09895e-07
0.000101366
-3.5447e-08
1.06536e-07
0.000101337
-7.85453e-08
1.02128e-07
0.000101326
-1.1939e-07
9.65562e-08
0.000101332
-1.60685e-07
9.01873e-08
0.000101323
-3.4237e-07
8.42326e-08
0.000102275
6.96164e-08
9.91887e-05
2.80967e-07
6.71958e-08
9.85056e-05
1.07004e-07
6.59053e-08
0.000101371
5.42532e-08
6.40359e-08
0.000100486
6.1332e-09
6.11656e-08
0.000100472
-3.9737e-08
5.73342e-08
0.000100446
-8.37777e-08
5.23905e-08
0.000100439
-1.25633e-07
4.62889e-08
0.000100449
-1.6681e-07
3.94149e-08
0.000100446
-3.5136e-07
3.23008e-08
0.000101405
1.86126e-08
9.83083e-05
2.80285e-07
2.47607e-08
9.84933e-05
1.04977e-07
2.34014e-08
0.000101357
5.13326e-08
2.1422e-08
0.000100472
2.19207e-09
1.85962e-08
0.000100457
-4.47466e-08
1.48715e-08
0.00010043
-8.98532e-08
1.02442e-08
0.00010042
-1.32556e-07
4.78386e-09
0.000100426
-1.74097e-07
-1.06645e-09
0.000100419
-3.64608e-07
-6.75684e-09
0.000101386
-1.71664e-08
9.82447e-05
2.7806e-07
-1.48687e-08
9.84735e-05
1.03059e-07
-1.65858e-08
0.000101331
4.85156e-08
-1.82012e-08
0.000100448
-1.58893e-09
-2.05915e-08
0.000100432
-4.94557e-08
-2.36952e-08
0.000100403
-9.53662e-08
-2.73261e-08
0.000100391
-1.38547e-07
-3.12714e-08
0.000100394
-1.80099e-07
-3.50984e-08
0.000100384
-3.73353e-07
-3.85588e-08
0.000101355
-4.31378e-08
9.81842e-05
2.76524e-07
-5.31836e-08
9.84736e-05
1.01379e-07
-5.51059e-08
0.000101326
4.61046e-08
-5.62216e-08
0.000100444
-4.68693e-09
-5.79871e-08
0.000100428
-5.3093e-08
-6.02364e-08
0.000100398
-9.93006e-08
-6.26355e-08
0.000100385
-1.42391e-07
-6.4882e-08
0.000100386
-1.83528e-07
-6.66039e-08
0.000100374
-3.77753e-07
-6.78464e-08
0.000101349
-6.70465e-08
9.81644e-05
2.75795e-07
-9.16943e-08
9.84933e-05
1.00062e-07
-9.32258e-08
0.000101343
4.42744e-08
-9.4041e-08
0.000100462
-6.89669e-09
-9.5172e-08
0.000100445
-5.54495e-08
-9.65796e-08
0.000100414
-1.01486e-07
-9.78828e-08
0.0001004
-1.44033e-07
-9.8775e-08
0.000100401
-1.84394e-07
-9.90396e-08
0.00010039
-3.7818e-07
-9.86477e-08
0.000101368
-9.50761e-08
9.8183e-05
2.73955e-07
-1.33312e-07
9.85064e-05
9.93065e-08
-1.35574e-07
0.00010135
4.31794e-08
-1.35413e-07
0.000100471
-8.17743e-09
-1.35985e-07
0.000100454
-5.66806e-08
-1.36736e-07
0.000100423
-1.02346e-07
-1.37293e-07
0.000100409
-1.44242e-07
-1.37434e-07
0.000100411
-1.83798e-07
-1.36992e-07
0.000100401
-3.74508e-07
-1.36861e-07
0.000101378
-1.31317e-07
9.82057e-05
2.76272e-07
-3.07736e-07
9.94257e-05
9.95802e-08
-3.1014e-07
0.000102281
4.26897e-08
-3.07908e-07
0.000101396
-8.58412e-09
-3.09413e-07
0.000101381
-5.70606e-08
-3.09346e-07
0.00010135
-1.02515e-07
-3.09509e-07
0.000101337
-1.43653e-07
-3.09597e-07
0.00010134
-1.83344e-07
-3.07343e-07
0.000101329
-3.74073e-07
-3.086e-07
0.000102314
-3.00742e-07
9.91327e-05
2.73553e-07
9.64746e-05
9.73564e-08
9.93106e-05
4.14941e-08
9.84372e-05
-9.69314e-09
9.84168e-05
-5.73028e-08
9.83856e-05
-1.01541e-07
9.83714e-05
-1.41874e-07
9.83733e-05
-1.79479e-07
9.83683e-05
-3.67284e-07
9.93396e-05
9.62043e-05
2.84208e-07
2.88627e-07
9.59311e-05
1.09976e-07
2.88818e-07
9.92631e-05
5.76377e-08
2.83199e-07
9.82661e-05
1.05427e-08
2.80373e-07
9.82536e-05
-3.43721e-08
2.73886e-07
9.82416e-05
-7.72032e-08
2.65816e-07
9.82523e-05
-1.17508e-07
2.55592e-07
9.82855e-05
-1.57401e-07
2.40573e-07
9.83191e-05
-3.26655e-07
2.28224e-07
9.94122e-05
1.92537e-07
9.59705e-05
2.84374e-07
1.14733e-07
9.92855e-05
1.08999e-07
1.14559e-07
0.000102627
5.37267e-08
1.11523e-07
0.000101606
4.533e-09
1.07894e-07
0.000101586
-4.36623e-08
1.02872e-07
0.000101554
-9.02527e-08
9.60548e-08
0.00010154
-1.33766e-07
8.70519e-08
0.000101541
-1.77627e-07
7.59092e-08
0.000101528
-3.60728e-07
6.34292e-08
0.000102619
3.40761e-08
9.89843e-05
2.79312e-07
6.56025e-08
9.82742e-05
1.05944e-07
6.37748e-08
0.000101594
5.02304e-08
6.11185e-08
0.00010059
-5.25351e-10
5.70083e-08
0.000100572
-5.02818e-08
5.1331e-08
0.000100546
-9.87543e-08
4.3754e-08
0.000100538
-1.44602e-07
3.39465e-08
0.000100545
-1.89955e-07
2.20057e-08
0.000100542
-3.82627e-07
7.92247e-09
0.00010165
-2.05383e-08
9.7978e-05
2.78152e-07
2.23162e-08
9.82571e-05
1.03105e-07
2.04327e-08
0.000101574
4.60322e-08
1.76565e-08
0.000100571
-6.36988e-09
1.36327e-08
0.000100551
-5.79949e-08
8.19167e-09
0.000100522
-1.08587e-07
1.23854e-09
0.000100511
-1.56671e-07
-7.27262e-09
0.000100513
-2.04164e-07
-1.69369e-08
0.000100503
-4.09913e-07
-2.73775e-08
0.000101623
-4.7321e-08
9.78592e-05
2.75105e-07
-1.85266e-08
9.82379e-05
1.00376e-07
-2.08409e-08
0.000101545
4.19894e-08
-2.30962e-08
0.000100545
-1.1908e-08
-2.6455e-08
0.000100524
-6.50884e-08
-3.08767e-08
0.000100493
-1.1721e-07
-3.61147e-08
0.000100478
-1.66544e-07
-4.18816e-08
0.000100476
-2.14868e-07
-4.74796e-08
0.000100459
-4.27311e-07
-5.26309e-08
0.000101589
-5.97427e-08
9.77669e-05
2.73012e-07
-5.77326e-08
9.82384e-05
9.8032e-08
-6.02704e-08
0.000101539
3.86e-08
-6.18165e-08
0.000100541
-1.63182e-08
-6.42481e-08
0.000100518
-7.03295e-08
-6.73306e-08
0.000100486
-1.2294e-07
-7.05612e-08
0.000100469
-1.72182e-07
-7.34162e-08
0.000100464
-2.19908e-07
-7.50477e-08
0.000100446
-4.33959e-07
-7.53243e-08
0.000101583
-7.06866e-08
9.77389e-05
2.72022e-07
-9.6113e-08
9.82581e-05
9.62391e-08
-9.80889e-08
0.000101555
3.60943e-08
-9.91853e-08
0.000100557
-1.93357e-08
-1.00707e-07
0.000100535
-7.34825e-08
-1.02534e-07
0.000100501
-1.25669e-07
-1.04091e-07
0.000100483
-1.73708e-07
-1.04823e-07
0.000100478
-2.1959e-07
-1.03984e-07
0.000100461
-4.3103e-07
-1.0139e-07
0.000101602
-9.10586e-08
9.77697e-05
2.69743e-07
-1.38147e-07
9.82772e-05
9.51928e-08
-1.40881e-07
0.000101565
3.46301e-08
-1.40752e-07
0.000100572
-2.09753e-08
-1.41518e-07
0.000100548
-7.49003e-08
-1.42414e-07
0.000100515
-1.26274e-07
-1.42944e-07
0.000100497
-1.72746e-07
-1.42636e-07
0.000100492
-2.16519e-07
-1.41192e-07
0.000100478
-4.20902e-07
-1.39202e-07
0.000101617
-1.2792e-07
9.78187e-05
2.72432e-07
-3.11509e-07
9.93251e-05
9.54875e-08
-3.14373e-07
0.00010263
3.40368e-08
-3.118e-07
0.000101626
-2.14075e-08
-3.13547e-07
0.000101606
-7.51684e-08
-3.13297e-07
0.000101573
-1.25936e-07
-3.13183e-07
0.000101556
-1.71092e-07
-3.12807e-07
0.000101553
-2.14004e-07
-3.08948e-07
0.000101537
-4.16014e-07
-3.0898e-07
0.000102682
-2.94092e-07
9.88804e-05
2.69052e-07
9.58929e-05
9.27568e-08
9.91713e-05
3.25093e-08
9.81844e-05
-2.27764e-08
9.81572e-05
-7.52187e-08
9.81232e-05
-1.24206e-07
9.81055e-05
-1.67773e-07
9.81024e-05
-2.07739e-07
9.80971e-05
-4.0324e-07
9.92239e-05
9.5505e-05
2.82712e-07
2.86328e-07
9.53609e-05
1.10013e-07
2.86162e-07
9.91485e-05
5.61964e-08
2.79198e-07
9.80394e-05
8.27389e-09
2.74914e-07
9.8025e-05
-3.77583e-08
2.65755e-07
9.80201e-05
-8.16489e-08
2.53858e-07
9.80403e-05
-1.23354e-07
2.37948e-07
9.80867e-05
-1.65379e-07
2.14231e-07
9.81439e-05
-3.21687e-07
1.9158e-07
9.93742e-05
1.24034e-07
9.55231e-05
2.82445e-07
1.13779e-07
9.91744e-05
1.08148e-07
1.13143e-07
0.000102973
5.04834e-08
1.09113e-07
0.000101833
-6.65384e-10
1.04013e-07
0.000101807
-5.17705e-08
9.66777e-08
0.000101773
-1.01964e-07
8.63908e-08
0.000101755
-1.49989e-07
7.20558e-08
0.000101753
-2.00245e-07
5.28031e-08
0.000101737
-3.8479e-07
2.88707e-08
0.000102964
-3.4303e-08
9.87559e-05
2.76297e-07
6.29495e-08
9.80474e-05
1.04097e-07
6.03984e-08
0.000101817
4.55505e-08
5.671e-08
0.0001007
-7.96196e-09
5.092e-08
0.000100677
-6.17515e-08
4.26595e-08
0.000100651
-1.15551e-07
3.12205e-08
0.000100644
-1.6847e-07
1.5595e-08
0.000100652
-2.23798e-07
-5.04465e-09
0.000100652
-4.35372e-07
-3.13064e-08
0.000101918
-9.31666e-08
9.75991e-05
2.74434e-07
1.88554e-08
9.80254e-05
1.00175e-07
1.6251e-08
0.000101791
3.96078e-08
1.24346e-08
0.000100674
-1.64867e-08
6.79096e-09
0.000100649
-7.34654e-08
-1.04721e-09
0.000100621
-1.31335e-07
-1.13668e-08
0.000100609
-1.89126e-07
-2.45557e-08
0.000100608
-2.50584e-07
-4.03551e-08
0.000100596
-4.93544e-07
-5.83068e-08
0.00010189
-9.68436e-08
9.73666e-05
2.70375e-07
-2.27798e-08
9.80077e-05
9.6361e-08
-2.5864e-08
0.00010176
3.38937e-08
-2.8966e-08
0.000100647
-2.44886e-08
-3.3627e-08
0.000100621
-8.40423e-08
-3.98554e-08
0.000100589
-1.4474e-07
-4.73473e-08
0.000100572
-2.05183e-07
-5.56847e-08
0.000100564
-2.69259e-07
-6.3585e-08
0.000100543
-5.28026e-07
-7.05239e-08
0.000101856
-7.91163e-08
9.7218e-05
2.6756e-07
-6.2397e-08
9.8009e-05
9.3136e-08