/*--------------------------------*- C++ -*----------------------------------*\
  =========                 |
  \\      /  F ield         | OpenFOAM: The Open Source CFD Toolbox
   \\    /   O peration     | Website:  https://openfoam.org
    \\  /    A nd           | Version:  6
     \\/     M anipulation  |
\*---------------------------------------------------------------------------*/
FoamFile
{
    version     2.0;
    format      ascii;
    class       volScalarField;
    location    "0.055";
    object      T;
}
// * * * * * * * * * * * * * * * * * * * * * * * * * * * * * * * * * * * * * //

dimensions      [0 0 0 1 0 0 0];

internalField   nonuniform List<scalar> 
7000
(
96.6005
96.6003
96.6001
96.6001
96.6
96.6
96.6001
96.6001
96.6002
96.6003
96.6003
96.6
96.5999
96.5998
96.5998
96.5998
96.5998
96.5999
96.6
96.6001
96.6001
96.5999
96.5998
96.5997
96.5997
96.5997
96.5997
96.5998
96.5999
96.6
96.6001
96.5998
96.5997
96.5996
96.5996
96.5996
96.5996
96.5997
96.5998
96.5999
96.6
96.5998
96.5997
96.5996
96.5996
96.5996
96.5996
96.5997
96.5998
96.5999
96.6
96.5998
96.5997
96.5996
96.5996
96.5996
96.5996
96.5997
96.5998
96.5999
96.6001
96.5998
96.5997
96.5996
96.5996
96.5996
96.5997
96.5997
96.5998
96.6
96.6001
96.5999
96.5998
96.5997
96.5997
96.5997
96.5997
96.5998
96.5999
96.6
96.6002
96.6
96.5999
96.5998
96.5998
96.5998
96.5998
96.5999
96.6
96.6001
96.6003
96.6001
96.6
96.5999
96.5999
96.5999
96.6
96.6
96.6001
96.6003
71.0537
71.0531
71.0528
71.0526
71.0526
71.0526
71.0526
71.0528
71.053
71.0533
71.0531
71.0526
71.0523
71.0521
71.052
71.052
71.0521
71.0523
71.0526
71.0529
71.0528
71.0523
71.052
71.0518
71.0517
71.0517
71.0518
71.052
71.0523
71.0526
71.0526
71.0521
71.0518
71.0516
71.0515
71.0516
71.0516
71.0518
71.0521
71.0525
71.0526
71.052
71.0517
71.0515
71.0515
71.0515
71.0516
71.0518
71.0521
71.0524
71.0526
71.052
71.0517
71.0516
71.0515
71.0515
71.0516
71.0518
71.0521
71.0525
71.0526
71.0521
71.0518
71.0516
71.0516
71.0516
71.0517
71.0519
71.0522
71.0526
71.0528
71.0523
71.052
71.0518
71.0518
71.0518
71.0519
71.0521
71.0524
71.0528
71.053
71.0526
71.0523
71.0521
71.0521
71.0521
71.0522
71.0524
71.0527
71.0531
71.0533
71.0529
71.0526
71.0525
71.0524
71.0525
71.0526
71.0528
71.0531
71.0535
48.9112
48.9106
48.9102
48.9099
48.9098
48.9098
48.9099
48.9102
48.9105
48.9109
48.9106
48.9099
48.9095
48.9093
48.9092
48.9092
48.9093
48.9096
48.9099
48.9105
48.9102
48.9095
48.9091
48.9089
48.9088
48.9088
48.9089
48.9092
48.9096
48.9101
48.9099
48.9093
48.9089
48.9086
48.9085
48.9085
48.9087
48.909
48.9094
48.91
48.9098
48.9092
48.9088
48.9085
48.9084
48.9085
48.9086
48.9089
48.9093
48.9099
48.9098
48.9092
48.9088
48.9085
48.9085
48.9085
48.9086
48.9089
48.9093
48.9099
48.9099
48.9093
48.9089
48.9087
48.9086
48.9086
48.9088
48.9091
48.9095
48.9101
48.9102
48.9096
48.9092
48.909
48.9089
48.9089
48.9091
48.9094
48.9098
48.9104
48.9105
48.9099
48.9096
48.9094
48.9093
48.9093
48.9095
48.9098
48.9102
48.9108
48.9109
48.9105
48.9102
48.91
48.9099
48.9099
48.9101
48.9104
48.9108
48.9114
31.4345
31.4339
31.4335
31.4332
31.4331
31.4331
31.4333
31.4335
31.4339
31.4344
31.4339
31.4333
31.4328
31.4326
31.4325
31.4325
31.4327
31.4329
31.4334
31.434
31.4335
31.4328
31.4324
31.4322
31.4321
31.4321
31.4323
31.4326
31.433
31.4337
31.4332
31.4326
31.4322
31.432
31.4319
31.4319
31.432
31.4324
31.4328
31.4335
31.4331
31.4325
31.4321
31.4319
31.4318
31.4318
31.432
31.4323
31.4328
31.4334
31.4331
31.4325
31.4321
31.4319
31.4318
31.4318
31.432
31.4323
31.4328
31.4335
31.4333
31.4327
31.4323
31.432
31.432
31.432
31.4322
31.4325
31.433
31.4337
31.4335
31.4329
31.4326
31.4324
31.4323
31.4323
31.4325
31.4328
31.4333
31.434
31.4339
31.4334
31.433
31.4328
31.4328
31.4328
31.433
31.4333
31.4338
31.4345
31.4344
31.434
31.4337
31.4335
31.4334
31.4335
31.4337
31.434
31.4345
31.4352
18.8426
18.8421
18.8418
18.8416
18.8415
18.8415
18.8416
18.8419
18.8422
18.8427
18.8421
18.8416
18.8412
18.841
18.841
18.841
18.8411
18.8414
18.8418
18.8424
18.8418
18.8412
18.8409
18.8407
18.8406
18.8407
18.8408
18.8411
18.8415
18.8421
18.8416
18.841
18.8407
18.8405
18.8404
18.8405
18.8406
18.8409
18.8413
18.842
18.8415
18.841
18.8406
18.8404
18.8404
18.8404
18.8405
18.8408
18.8413
18.8419
18.8415
18.841
18.8407
18.8405
18.8404
18.8404
18.8406
18.8409
18.8413
18.842
18.8416
18.8411
18.8408
18.8406
18.8405
18.8406
18.8407
18.841
18.8415
18.8421
18.8419
18.8414
18.8411
18.8409
18.8408
18.8409
18.841
18.8413
18.8418
18.8424
18.8422
18.8418
18.8415
18.8413
18.8413
18.8413
18.8415
18.8418
18.8423
18.8429
18.8427
18.8424
18.8421
18.842
18.8419
18.842
18.8422
18.8425
18.8429
18.8436
10.5355
10.5352
10.5349
10.5348
10.5347
10.5347
10.5348
10.535
10.5353
10.5357
10.5352
10.5348
10.5345
10.5344
10.5343
10.5344
10.5345
10.5347
10.535
10.5354
10.5349
10.5345
10.5343
10.5341
10.5341
10.5341
10.5342
10.5344
10.5348
10.5352
10.5348
10.5344
10.5341
10.534
10.5339
10.534
10.5341
10.5343
10.5346
10.5351
10.5347
10.5343
10.5341
10.5339
10.5339
10.5339
10.534
10.5343
10.5346
10.5351
10.5347
10.5344
10.5341
10.534
10.5339
10.534
10.5341
10.5343
10.5346
10.5352
10.5348
10.5345
10.5342
10.5341
10.5341
10.5341
10.5342
10.5344
10.5348
10.5353
10.535
10.5347
10.5345
10.5343
10.5343
10.5343
10.5345
10.5347
10.535
10.5355
10.5353
10.535
10.5348
10.5347
10.5347
10.5347
10.5348
10.5351
10.5354
10.5359
10.5357
10.5355
10.5353
10.5352
10.5352
10.5352
10.5354
10.5356
10.5359
10.5365
5.50001
5.49976
5.4996
5.4995
5.49946
5.49947
5.49951
5.4996
5.49972
5.49991
5.49976
5.49952
5.49935
5.49925
5.49922
5.49922
5.49928
5.49937
5.49951
5.49976
5.4996
5.49935
5.49919
5.49909
5.49905
5.49907
5.49912
5.49922
5.49938
5.49965
5.4995
5.49926
5.49909
5.499
5.49896
5.49898
5.49903
5.49914
5.4993
5.49958
5.49946
5.49922
5.49906
5.49897
5.49893
5.49895
5.49901
5.49912
5.49928
5.49957
5.49948
5.49924
5.49908
5.49899
5.49896
5.49897
5.49904
5.49915
5.49932
5.4996
5.49956
5.49933
5.49917
5.49908
5.49905
5.49907
5.49913
5.49925
5.49942
5.4997
5.49971
5.49948
5.49933
5.49925
5.49922
5.49924
5.49931
5.49942
5.49959
5.49988
5.49993
5.49973
5.49959
5.49952
5.49949
5.49951
5.49958
5.4997
5.49987
5.50015
5.50023
5.50008
5.49997
5.4999
5.49988
5.4999
5.49997
5.50008
5.50026
5.50054
2.68491
2.68476
2.68466
2.68461
2.68457
2.68456
2.68452
2.68442
2.68421
2.68398
2.68476
2.68462
2.68452
2.68446
2.68443
2.68441
2.68438
2.68429
2.68408
2.68389
2.68467
2.68452
2.68442
2.68437
2.68434
2.68432
2.68429
2.6842
2.68401
2.68383
2.68461
2.68447
2.68437
2.68431
2.68428
2.68427
2.68424
2.68415
2.68396
2.68379
2.68459
2.68445
2.68435
2.68429
2.68427
2.68425
2.68423
2.68414
2.68395
2.68378
2.68461
2.68446
2.68437
2.68431
2.68429
2.68427
2.68425
2.68416
2.68398
2.68381
2.68466
2.68452
2.68443
2.68437
2.68435
2.68434
2.68431
2.68423
2.68404
2.68387
2.68475
2.68462
2.68453
2.68448
2.68446
2.68445
2.68443
2.68434
2.68416
2.68399
2.6849
2.68478
2.6847
2.68465
2.68463
2.68463
2.6846
2.68452
2.68434
2.68417
2.6851
2.68501
2.68495
2.6849
2.68489
2.68488
2.68486
2.68477
2.68459
2.68442
1.228
1.22792
1.22786
1.22783
1.22779
1.22773
1.22755
1.22705
1.22595
1.22434
1.22792
1.22784
1.22779
1.22775
1.22772
1.22765
1.22747
1.22698
1.22588
1.22429
1.22787
1.22779
1.22773
1.2277
1.22767
1.2276
1.22742
1.22693
1.22584
1.22426
1.22784
1.22776
1.2277
1.22767
1.22764
1.22758
1.2274
1.22691
1.22582
1.22424
1.22783
1.22775
1.2277
1.22766
1.22763
1.22757
1.22739
1.2269
1.22581
1.22424
1.22784
1.22776
1.22771
1.22767
1.22764
1.22758
1.2274
1.22692
1.22583
1.22425
1.22787
1.22779
1.22774
1.22771
1.22768
1.22762
1.22744
1.22695
1.22587
1.22429
1.22793
1.22785
1.2278
1.22777
1.22774
1.22768
1.22751
1.22702
1.22593
1.22436
1.22801
1.22795
1.2279
1.22787
1.22785
1.22779
1.22761
1.22713
1.22604
1.22446
1.22813
1.22808
1.22805
1.22802
1.228
1.22794
1.22776
1.22728
1.22619
1.22461
0.527364
0.527324
0.527296
0.52727
0.527226
0.527096
0.526673
0.52538
0.521894
0.514827
0.527325
0.527286
0.527257
0.527232
0.527188
0.527058
0.526636
0.525344
0.521862
0.514806
0.527299
0.52726
0.527232
0.527206
0.527162
0.527033
0.526611
0.525322
0.521842
0.51479
0.527285
0.527246
0.527217
0.527192
0.527148
0.527019
0.526598
0.52531
0.521832
0.514781
0.52728
0.527241
0.527213
0.527188
0.527145
0.527016
0.526595
0.525307
0.52183
0.51478
0.527286
0.527247
0.52722
0.527195
0.527152
0.527023
0.526603
0.525315
0.521838
0.514788
0.527304
0.527265
0.527238
0.527214
0.527172
0.527043
0.526623
0.525336
0.521858
0.514808
0.527335
0.527298
0.527273
0.527249
0.527207
0.527079
0.52666
0.525372
0.521895
0.514844
0.527383
0.52735
0.527327
0.527305
0.527263
0.527136
0.526716
0.525428
0.521951
0.514899
0.527447
0.527425
0.527405
0.527384
0.527344
0.527216
0.526797
0.525509
0.522031
0.514978
0.213142
0.213123
0.213108
0.213087
0.213033
0.212848
0.212186
0.20985
0.201583
0.171441
0.213124
0.213105
0.21309
0.213069
0.213016
0.21283
0.212169
0.209834
0.201569
0.171433
0.213112
0.213093
0.213078
0.213058
0.213004
0.212819
0.212158
0.209824
0.201561
0.171426
0.213105
0.213087
0.213072
0.213051
0.212998
0.212813
0.212152
0.209819
0.201556
0.171423
0.213104
0.213085
0.21307
0.21305
0.212996
0.212812
0.212151
0.209818
0.201556
0.171423
0.213107
0.213088
0.213073
0.213053
0.213
0.212815
0.212155
0.209822
0.20156
0.171426
0.213116
0.213097
0.213083
0.213063
0.21301
0.212825
0.212165
0.209832
0.201569
0.171434
0.213131
0.213114
0.2131
0.213081
0.213028
0.212843
0.212183
0.20985
0.201586
0.171449
0.213155
0.21314
0.213127
0.213108
0.213056
0.212871
0.212211
0.209877
0.201613
0.171472
0.213188
0.213177
0.213166
0.213148
0.213096
0.212911
0.212251
0.209917
0.201651
0.171505
0.0812617
0.0812532
0.0812449
0.0812296
0.0811828
0.0810216
0.0804755
0.0787099
0.0733513
0.058631
0.081254
0.0812456
0.0812373
0.081222
0.0811753
0.0810142
0.0804683
0.0787032
0.0733458
0.0586275
0.0812489
0.0812406
0.0812323
0.081217
0.0811704
0.0810094
0.0804636
0.078699
0.0733422
0.058625
0.0812462
0.0812378
0.0812296
0.0812143
0.0811677
0.0810068
0.0804612
0.0786968
0.0733404
0.0586238
0.0812455
0.0812372
0.081229
0.0812138
0.0811672
0.0810063
0.0804608
0.0786965
0.0733403
0.0586238
0.081247
0.0812388
0.0812306
0.0812155
0.081169
0.0810082
0.0804627
0.0786984
0.0733421
0.0586252
0.0812512
0.081243
0.081235
0.08122
0.0811736
0.0810129
0.0804674
0.078703
0.0733464
0.0586287
0.0812585
0.0812507
0.081243
0.0812282
0.0811818
0.0810211
0.0804756
0.0787111
0.0733539
0.0586347
0.0812697
0.0812626
0.0812554
0.0812409
0.0811947
0.081034
0.0804885
0.0787237
0.0733656
0.0586442
0.0812848
0.0812799
0.0812734
0.0812592
0.0812131
0.0810525
0.0805068
0.0787417
0.0733826
0.0586583
0.0292934
0.0292897
0.0292854
0.0292756
0.0292447
0.0291426
0.0288213
0.0278825
0.0254077
0.0198382
0.0292903
0.0292867
0.0292823
0.0292726
0.0292417
0.0291397
0.0288184
0.0278799
0.0254056
0.0198368
0.0292883
0.0292847
0.0292804
0.0292706
0.0292397
0.0291377
0.0288166
0.0278782
0.0254043
0.0198359
0.0292872
0.0292836
0.0292793
0.0292695
0.0292386
0.0291367
0.0288157
0.0278774
0.0254036
0.0198354
0.029287
0.0292834
0.0292791
0.0292693
0.0292385
0.0291366
0.0288156
0.0278773
0.0254036
0.0198354
0.0292877
0.0292841
0.0292798
0.0292701
0.0292393
0.0291374
0.0288164
0.0278782
0.0254043
0.019836
0.0292895
0.029286
0.0292817
0.0292721
0.0292413
0.0291394
0.0288184
0.0278801
0.0254061
0.0198375
0.0292927
0.0292893
0.0292852
0.0292756
0.0292448
0.029143
0.0288219
0.0278835
0.0254092
0.0198399
0.0292975
0.0292944
0.0292905
0.029281
0.0292503
0.0291485
0.0288274
0.0278888
0.0254141
0.0198438
0.029304
0.0293019
0.0292983
0.0292889
0.0292582
0.0291564
0.0288352
0.0278964
0.0254211
0.0198495
0.010007
0.0100055
0.0100033
0.00999799
0.0099813
0.00992904
0.00977578
0.00936649
0.00840277
0.006516
0.0100058
0.0100043
0.0100022
0.00999686
0.00998018
0.00992794
0.00977473
0.00936555
0.008402
0.00651548
0.010005
0.0100036
0.0100014
0.00999612
0.00997945
0.00992722
0.00977406
0.00936494
0.00840151
0.00651514
0.0100046
0.0100032
0.010001
0.00999573
0.00997906
0.00992685
0.00977371
0.00936463
0.00840126
0.00651498
0.0100046
0.0100031
0.010001
0.00999568
0.00997902
0.00992682
0.00977369
0.00936463
0.00840127
0.006515
0.0100049
0.0100034
0.0100013
0.009996
0.00997935
0.00992716
0.00977403
0.00936496
0.00840158
0.00651524
0.0100056
0.0100042
0.0100021
0.00999679
0.00998016
0.00992797
0.00977483
0.00936573
0.00840228
0.00651579
0.0100069
0.0100055
0.0100035
0.0099982
0.00998158
0.00992939
0.00977624
0.00936708
0.00840349
0.00651675
0.0100089
0.0100076
0.0100056
0.0100004
0.0099838
0.00993161
0.00977843
0.00936918
0.00840539
0.00651826
0.0100115
0.0100106
0.0100087
0.0100036
0.00998697
0.00993477
0.00978155
0.00937219
0.00840813
0.00652047
0.00324662
0.00324603
0.00324508
0.00324255
0.00323484
0.00321189
0.00314876
0.00299252
0.00265603
0.00205976
0.00324621
0.00324563
0.00324467
0.00324215
0.00323444
0.0032115
0.00314839
0.00299219
0.00265577
0.00205958
0.00324595
0.00324536
0.00324441
0.00324189
0.00323418
0.00321125
0.00314816
0.00299198
0.0026556
0.00205946
0.0032458
0.00324522
0.00324427
0.00324175
0.00323405
0.00321112
0.00314804
0.00299188
0.00265552
0.0020594
0.00324579
0.00324521
0.00324426
0.00324174
0.00323404
0.00321112
0.00314804
0.00299188
0.00265553
0.00205941
0.0032459
0.00324533
0.00324438
0.00324187
0.00323417
0.00321125
0.00314817
0.00299201
0.00265564
0.0020595
0.00324618
0.00324561
0.00324467
0.00324217
0.00323447
0.00321156
0.00314847
0.0029923
0.0026559
0.00205971
0.00324667
0.00324612
0.0032452
0.0032427
0.00323501
0.00321209
0.003149
0.0029928
0.00265635
0.00206006
0.00324742
0.00324691
0.00324601
0.00324353
0.00323585
0.00321293
0.00314982
0.00299358
0.00265705
0.00206062
0.00324843
0.00324804
0.00324719
0.00324472
0.00323704
0.00321411
0.00315099
0.0029947
0.00265806
0.00206143
0.00100245
0.00100224
0.00100184
0.00100078
0.000997627
0.000988684
0.000965417
0.000911391
0.000803007
0.000624465
0.00100232
0.0010021
0.00100171
0.00100064
0.000997495
0.000988555
0.000965296
0.000911283
0.00080292
0.000624404
0.00100223
0.00100201
0.00100162
0.00100056
0.000997409
0.000988472
0.000965218
0.000911214
0.000802864
0.000624365
0.00100218
0.00100197
0.00100157
0.00100051
0.000997366
0.000988431
0.00096518
0.000911181
0.000802838
0.000624347
0.00100218
0.00100196
0.00100157
0.00100051
0.000997365
0.000988431
0.000965181
0.000911184
0.000802842
0.000624351
0.00100222
0.00100201
0.00100162
0.00100056
0.000997412
0.000988479
0.000965229
0.000911229
0.000802883
0.000624385
0.00100232
0.00100211
0.00100172
0.00100066
0.000997521
0.000988588
0.000965336
0.000911331
0.000802974
0.000624457
0.0010025
0.00100229
0.00100191
0.00100085
0.000997712
0.000988778
0.000965522
0.000911508
0.00080313
0.000624581
0.00100276
0.00100257
0.0010022
0.00100115
0.000998009
0.000989073
0.000965811
0.000911782
0.000803374
0.000624776
0.00100312
0.00100298
0.00100262
0.00100157
0.000998433
0.000989495
0.000966224
0.000912174
0.000803725
0.000625058
0.000295164
0.000295088
0.000294938
0.000294533
0.00029337
0.000290207
0.000282365
0.000265108
0.000232404
0.000181402
0.000295121
0.000295045
0.000294896
0.000294491
0.000293329
0.000290166
0.000282327
0.000265074
0.000232377
0.000181383
0.000295093
0.000295017
0.000294868
0.000294464
0.000293302
0.00029014
0.000282303
0.000265052
0.000232359
0.000181371
0.000295079
0.000295003
0.000294854
0.00029445
0.000293288
0.000290127
0.000282291
0.000265042
0.000232351
0.000181365
0.000295078
0.000295002
0.000294854
0.00029445
0.000293289
0.000290128
0.000282292
0.000265044
0.000232353
0.000181367
0.000295093
0.000295018
0.000294869
0.000294466
0.000293305
0.000290144
0.000282308
0.000265059
0.000232367
0.000181378
0.000295127
0.000295053
0.000294905
0.000294502
0.000293342
0.000290181
0.000282344
0.000265093
0.000232397
0.000181402
0.000295186
0.000295113
0.000294968
0.000294566
0.000293406
0.000290245
0.000282407
0.000265152
0.000232449
0.000181444
0.000295276
0.000295208
0.000295065
0.000294665
0.000293505
0.000290344
0.000282503
0.000265243
0.00023253
0.000181508
0.000295398
0.000295344
0.000295206
0.000294807
0.000293648
0.000290485
0.000282641
0.000265373
0.000232646
0.000181602
8.30323e-05
8.3007e-05
8.29546e-05
8.28134e-05
8.24195e-05
8.13878e-05
7.89367e-05
7.37812e-05
6.44543e-05
5.05097e-05
8.30193e-05
8.29941e-05
8.29418e-05
8.28006e-05
8.24069e-05
8.13757e-05
7.89254e-05
7.37712e-05
6.44463e-05
5.05039e-05
8.30109e-05
8.29858e-05
8.29335e-05
8.27924e-05
8.23989e-05
8.13679e-05
7.89181e-05
7.37648e-05
6.44411e-05
5.05002e-05
8.30067e-05
8.29816e-05
8.29294e-05
8.27883e-05
8.23949e-05
8.13641e-05
7.89147e-05
7.37619e-05
6.44388e-05
5.04986e-05
8.30067e-05
8.29816e-05
8.29295e-05
8.27886e-05
8.23952e-05
8.13646e-05
7.89152e-05
7.37625e-05
6.44396e-05
5.04993e-05
8.30115e-05
8.29866e-05
8.29346e-05
8.27938e-05
8.24005e-05
8.13699e-05
7.89205e-05
7.37675e-05
6.4444e-05
5.0503e-05
8.30225e-05
8.29978e-05
8.29461e-05
8.28054e-05
8.24123e-05
8.13816e-05
7.89319e-05
7.37782e-05
6.44535e-05
5.05106e-05
8.30415e-05
8.30173e-05
8.29661e-05
8.28258e-05
8.24327e-05
8.14019e-05
7.89517e-05
7.37968e-05
6.44699e-05
5.05237e-05
8.30702e-05
8.30474e-05
8.29971e-05
8.28573e-05
8.24644e-05
8.14333e-05
7.89822e-05
7.38255e-05
6.44952e-05
5.0544e-05
8.31094e-05
8.30908e-05
8.30419e-05
8.29025e-05
8.25096e-05
8.14781e-05
7.90258e-05
7.38665e-05
6.45316e-05
5.05734e-05
2.23557e-05
2.23477e-05
2.23307e-05
2.2285e-05
2.21612e-05
2.18479e-05
2.11304e-05
1.96789e-05
1.71545e-05
1.35149e-05
2.23519e-05
2.2344e-05
2.2327e-05
2.22814e-05
2.21576e-05
2.18444e-05
2.11271e-05
1.96761e-05
1.71522e-05
1.35132e-05
2.23495e-05
2.23416e-05
2.23246e-05
2.2279e-05
2.21553e-05
2.18422e-05
2.11251e-05
1.96743e-05
1.71508e-05
1.35121e-05
2.23483e-05
2.23405e-05
2.23235e-05
2.22779e-05
2.21542e-05
2.18411e-05
2.11241e-05
1.96735e-05
1.71501e-05
1.35117e-05
2.23484e-05
2.23405e-05
2.23235e-05
2.2278e-05
2.21544e-05
2.18413e-05
2.11243e-05
1.96737e-05
1.71504e-05
1.3512e-05
2.23499e-05
2.23421e-05
2.23251e-05
2.22796e-05
2.2156e-05
2.1843e-05
2.1126e-05
1.96752e-05
1.71517e-05
1.35131e-05
2.23533e-05
2.23455e-05
2.23286e-05
2.22832e-05
2.21596e-05
2.18465e-05
2.11294e-05
1.96785e-05
1.71546e-05
1.35154e-05
2.2359e-05
2.23514e-05
2.23347e-05
2.22893e-05
2.21658e-05
2.18526e-05
2.11354e-05
1.96841e-05
1.71595e-05
1.35193e-05
2.23678e-05
2.23606e-05
2.23441e-05
2.22989e-05
2.21754e-05
2.18621e-05
2.11446e-05
1.96927e-05
1.71671e-05
1.35254e-05
2.23797e-05
2.23737e-05
2.23576e-05
2.23125e-05
2.2189e-05
2.18756e-05
2.11577e-05
1.9705e-05
1.7178e-05
1.35342e-05
5.77052e-06
5.76816e-06
5.76295e-06
5.74917e-06
5.71279e-06
5.62346e-06
5.42568e-06
5.04006e-06
4.39871e-06
3.54521e-06
5.7695e-06
5.76715e-06
5.76194e-06
5.74818e-06
5.71181e-06
5.62251e-06
5.4248e-06
5.03928e-06
4.39808e-06
3.54474e-06
5.76884e-06
5.7665e-06
5.7613e-06
5.74754e-06
5.71118e-06
5.62191e-06
5.42424e-06
5.0388e-06
4.39769e-06
3.54445e-06
5.76852e-06
5.76618e-06
5.76099e-06
5.74723e-06
5.71089e-06
5.62164e-06
5.42399e-06
5.03858e-06
4.39752e-06
3.54433e-06
5.76856e-06
5.76622e-06
5.76103e-06
5.74728e-06
5.71095e-06
5.6217e-06
5.42406e-06
5.03866e-06
4.39761e-06
3.54441e-06
5.769e-06
5.76667e-06
5.76149e-06
5.74776e-06
5.71143e-06
5.62218e-06
5.42453e-06
5.03911e-06
4.398e-06
3.54474e-06
5.76998e-06
5.76767e-06
5.76251e-06
5.74879e-06
5.71246e-06
5.62321e-06
5.42553e-06
5.04004e-06
4.39883e-06
3.54542e-06
5.77165e-06
5.76938e-06
5.76426e-06
5.75056e-06
5.71424e-06
5.62497e-06
5.42724e-06
5.04164e-06
4.40024e-06
3.54658e-06
5.77417e-06
5.77202e-06
5.76698e-06
5.75332e-06
5.717e-06
5.6277e-06
5.42988e-06
5.0441e-06
4.40242e-06
3.54838e-06
5.77763e-06
5.77582e-06
5.77088e-06
5.75725e-06
5.72093e-06
5.63158e-06
5.43364e-06
5.04762e-06
4.40552e-06
3.55094e-06
0.0543606
0.0170662
0.00526844
0.00168832
0.000927208
0.00184196
0.0059904
0.0199958
0.0651239
0.207522
0.0543575
0.0170651
0.00526804
0.00168813
0.000926973
0.00184135
0.00598861
0.0199908
0.0651104
0.207488
0.0543554
0.0170644
0.0052678
0.00168802
0.000926837
0.001841
0.00598761
0.019988
0.0651032
0.20747
0.0543543
0.0170641
0.00526769
0.00168797
0.000926772
0.00184082
0.00598712
0.0199867
0.0650997
0.207461
0.0543544
0.0170641
0.00526771
0.00168798
0.000926758
0.00184077
0.00598698
0.0199863
0.0650987
0.207458
0.0543557
0.0170646
0.00526791
0.00168805
0.000926793
0.00184082
0.00598711
0.0199867
0.0650999
0.207462
0.0543589
0.0170658
0.00526834
0.00168821
0.000926877
0.00184095
0.00598749
0.0199879
0.0651033
0.207471
0.0543644
0.0170679
0.00526908
0.00168848
0.000927016
0.00184116
0.0059881
0.0199898
0.0651089
0.207487
0.0543729
0.017071
0.00527021
0.00168888
0.00092721
0.00184143
0.00598887
0.0199922
0.0651163
0.20751
0.0543849
0.0170753
0.00527173
0.00168942
0.000927442
0.0018417
0.00598958
0.0199944
0.0651235
0.207533
0.026439
0.00998868
0.0034469
0.00119439
0.000694721
0.0013586
0.00420258
0.013061
0.0380977
0.100899
0.0264374
0.00998802
0.00344664
0.00119425
0.000694546
0.00135816
0.00420134
0.0130578
0.0380899
0.100882
0.0264363
0.00998758
0.00344647
0.00119417
0.000694443
0.0013579
0.00420063
0.0130559
0.0380854
0.100873
0.0264357
0.00998737
0.00344639
0.00119413
0.000694392
0.00135777
0.00420028
0.013055
0.0380832
0.100868
0.0264358
0.00998741
0.00344641
0.00119414
0.000694382
0.00135773
0.00420017
0.0130547
0.0380826
0.100866
0.0264365
0.00998776
0.00344656
0.0011942
0.000694409
0.00135776
0.00420027
0.013055
0.0380834
0.100868
0.0264383
0.00998852
0.00344686
0.00119432
0.000694476
0.00135787
0.00420055
0.0130558
0.0380855
0.100873
0.0264414
0.00998986
0.00344739
0.00119452
0.000694587
0.00135804
0.00420102
0.0130572
0.0380892
0.100882
0.0264462
0.00999195
0.00344821
0.00119484
0.000694749
0.00135827
0.00420165
0.013059
0.0380943
0.100895
0.0264533
0.00999499
0.0034494
0.00119529
0.000694965
0.00135855
0.00420239
0.0130612
0.0381006
0.100912
0.0105803
0.00458778
0.00175914
0.000666042
0.00041605
0.000796365
0.00231515
0.00665007
0.0174884
0.0403673
0.0105796
0.00458746
0.001759
0.000665965
0.000415944
0.000796104
0.00231447
0.00664841
0.0174848
0.0403605
0.0105791
0.00458724
0.00175891
0.000665917
0.00041588
0.000795948
0.00231406
0.00664743
0.0174826
0.0403563
0.0105788
0.00458714
0.00175887
0.000665895
0.000415849
0.000795869
0.00231386
0.00664692
0.0174815
0.0403541
0.0105789
0.00458717
0.00175889
0.000665899
0.000415843
0.000795845
0.0023138
0.00664678
0.0174812
0.0403535
0.0105792
0.00458735
0.00175897
0.000665933
0.00041586
0.000795868
0.00231385
0.00664694
0.0174816
0.0403544
0.0105801
0.00458776
0.00175914
0.000666007
0.000415903
0.000795934
0.00231403
0.0066474
0.0174827
0.0403568
0.0105815
0.00458846
0.00175945
0.000666133
0.000415977
0.000796046
0.00231432
0.00664818
0.0174846
0.040361
0.0105838
0.00458956
0.00175992
0.000666329
0.000416085
0.000796203
0.00231473
0.00664929
0.0174874
0.0403672
0.0105871
0.00459117
0.00176061
0.000666612
0.000416235
0.000796407
0.00231525
0.00665074
0.0174912
0.0403758
0.00381498
0.00182496
0.000763423
0.00031385
0.00021
0.000393044
0.00107573
0.00287761
0.00695208
0.0145516
0.00381469
0.00182482
0.000763359
0.000313811
0.000209945
0.000392914
0.00107541
0.00287688
0.0069506
0.0145491
0.0038145
0.00182473
0.000763318
0.000313787
0.000209912
0.000392835
0.00107522
0.00287643
0.00694968
0.0145474
0.0038144
0.00182468
0.0007633
0.000313776
0.000209895
0.000392794
0.00107511
0.0028762
0.0069492
0.0145466
0.00381443
0.0018247
0.000763308
0.000313779
0.000209892
0.000392782
0.00107508
0.00287614
0.00694908
0.0145463
0.00381458
0.00182478
0.000763348
0.000313796
0.000209901
0.000392795
0.00107512
0.00287621
0.00694926
0.0145467
0.00381493
0.00182497
0.000763434
0.000313835
0.000209925
0.000392831
0.0010752
0.00287644
0.00694977
0.0145477
0.00381554
0.00182529
0.000763582
0.000313901
0.000209966
0.000392893
0.00107536
0.00287682
0.00695065
0.0145495
0.00381649
0.00182579
0.000763815
0.000314004
0.000210028
0.000392983
0.00107558
0.00287739
0.00695197
0.0145522
0.00381788
0.00182652
0.000764155
0.000314153
0.000210114
0.000393104
0.00107588
0.00287816
0.0069538
0.014556
0.00127745
0.00065629
0.000294592
0.000130246
9.26568e-05
0.000169728
0.000439843
0.00110672
0.00249818
0.00487121
0.00127734
0.000656236
0.000294565
0.000130229
9.26319e-05
0.000169671
0.000439708
0.00110643
0.00249763
0.00487031
0.00127727
0.000656201
0.000294549
0.000130218
9.26165e-05
0.000169636
0.000439625
0.00110625
0.00249728
0.00486972
0.00127724
0.000656185
0.000294541
0.000130214
9.26087e-05
0.000169618
0.000439581
0.00110616
0.00249709
0.0048694
0.00127725
0.000656192
0.000294545
0.000130215
9.26074e-05
0.000169612
0.000439569
0.00110613
0.00249704
0.00486932
0.00127731
0.000656228
0.000294563
0.000130223
9.26121e-05
0.000169618
0.000439583
0.00110616
0.00249712
0.00486947
0.00127745
0.000656303
0.0002946
0.000130241
9.26238e-05
0.000169636
0.000439624
0.00110626
0.00249733
0.00486986
0.00127768
0.000656434
0.000294665
0.000130272
9.26438e-05
0.000169666
0.000439695
0.00110643
0.0024977
0.00487055
0.00127805
0.00065664
0.000294766
0.000130319
9.26742e-05
0.000169711
0.000439801
0.00110669
0.00249825
0.00487161
0.00127859
0.00065694
0.000294913
0.000130388
9.27169e-05
0.000169772
0.000439945
0.00110704
0.00249904
0.00487315
0.000402523
0.000218122
0.000103687
4.88406e-05
3.6638e-05
6.579e-05
0.000162468
0.000388098
0.000829552
0.00153441
0.000402486
0.000218103
0.000103677
4.88337e-05
3.66278e-05
6.57674e-05
0.000162417
0.000387993
0.000829361
0.00153411
0.000402463
0.00021809
0.000103671
4.88294e-05
3.66214e-05
6.57533e-05
0.000162385
0.000387927
0.000829238
0.00153391
0.000402452
0.000218085
0.000103668
4.88274e-05
3.66182e-05
6.57458e-05
0.000162368
0.000387891
0.000829172
0.0015338
0.000402456
0.000218088
0.00010367
4.8828e-05
3.66177e-05
6.57437e-05
0.000162363
0.000387882
0.000829155
0.00153378
0.000402479
0.000218102
0.000103677
4.88314e-05
3.66197e-05
6.57464e-05
0.000162369
0.000387896
0.000829184
0.00153383
0.000402528
0.00021813
0.000103692
4.88389e-05
3.66248e-05
6.5754e-05
0.000162386
0.000387934
0.000829264
0.00153397
0.000402613
0.00021818
0.000103717
4.88516e-05
3.66336e-05
6.57672e-05
0.000162416
0.000388002
0.000829404
0.00153422
0.000402746
0.000218257
0.000103757
4.88715e-05
3.66471e-05
6.5787e-05
0.000162461
0.000388105
0.000829619
0.00153462
0.000402938
0.000218369
0.000103815
4.89001e-05
3.6666e-05
6.58144e-05
0.000162523
0.00038825
0.000829925
0.00153518
0.000120198
6.786e-05
3.38175e-05
1.68311e-05
1.32127e-05
2.3299e-05
5.51596e-05
0.000126078
0.000257825
0.000458024
0.000120187
6.78534e-05
3.3814e-05
1.68286e-05
1.32089e-05
2.32908e-05
5.51418e-05
0.000126042
0.000257763
0.000457929
0.000120179
6.78493e-05
3.38118e-05
1.68269e-05
1.32065e-05
2.32857e-05
5.51304e-05
0.00012602
0.000257722
0.000457866
0.000120176
6.78476e-05
3.38109e-05
1.68262e-05
1.32053e-05
2.32829e-05
5.51244e-05
0.000126008
0.000257701
0.000457831
0.000120177
6.78487e-05
3.38116e-05
1.68265e-05
1.32051e-05
2.32822e-05
5.51227e-05
0.000126004
0.000257695
0.000457824
0.000120185
6.78536e-05
3.38142e-05
1.68278e-05
1.32059e-05
2.32832e-05
5.5125e-05
0.00012601
0.000257706
0.000457842
0.000120202
6.78637e-05
3.38196e-05
1.68306e-05
1.32079e-05
2.32862e-05
5.51315e-05
0.000126024
0.000257734
0.000457891
0.000120231
6.7881e-05
3.38289e-05
1.68355e-05
1.32115e-05
2.32915e-05
5.51429e-05
0.000126049
0.000257784
0.000457978
0.000120276
6.79081e-05
3.38435e-05
1.68431e-05
1.32168e-05
2.32995e-05
5.51604e-05
0.000126087
0.00025786
0.000458113
0.000120341
6.79474e-05
3.38645e-05
1.6854e-05
1.32244e-05
2.33106e-05
5.51848e-05
0.000126142
0.000257971
0.000458309
3.41798e-05
1.99365e-05
1.03367e-05
5.39862e-06
4.40629e-06
7.64285e-06
1.74361e-05
3.83762e-05
7.56624e-05
0.00013019
3.41761e-05
1.99344e-05
1.03355e-05
5.39774e-06
4.40497e-06
7.64008e-06
1.74302e-05
3.8365e-05
7.56433e-05
0.000130162
3.41738e-05
1.99331e-05
1.03348e-05
5.39718e-06
4.40414e-06
7.63832e-06
1.74265e-05
3.83577e-05
7.56308e-05
0.000130143
3.41728e-05
1.99326e-05
1.03345e-05
5.39694e-06
4.40371e-06
7.63738e-06
1.74245e-05
3.83538e-05
7.56241e-05
0.000130132
3.41734e-05
1.9933e-05
1.03347e-05
5.39703e-06
4.40366e-06
7.63713e-06
1.7424e-05
3.83529e-05
7.56225e-05
0.00013013
3.4176e-05
1.99346e-05
1.03357e-05
5.39751e-06
4.40397e-06
7.63754e-06
1.74248e-05
3.83547e-05
7.5626e-05
0.000130136
3.41814e-05
1.9938e-05
1.03375e-05
5.39851e-06
4.40472e-06
7.63863e-06
1.74271e-05
3.83595e-05
7.56353e-05
0.000130152
3.41907e-05
1.99437e-05
1.03407e-05
5.40024e-06
4.40601e-06
7.64057e-06
1.74312e-05
3.83682e-05
7.56519e-05
0.00013018
3.42051e-05
1.99526e-05
1.03456e-05
5.40292e-06
4.408e-06
7.64351e-06
1.74374e-05
3.83815e-05
7.56777e-05
0.000130224
3.42258e-05
1.99655e-05
1.03527e-05
5.40677e-06
4.41082e-06
7.64764e-06
1.74462e-05
3.84004e-05
7.57148e-05
0.000130288
9.35927e-06
5.6254e-06
3.02279e-06
1.64993e-06
1.39409e-06
2.3809e-06
5.25121e-06
1.1172e-05
2.13227e-05
3.56323e-05
9.35818e-06
5.62476e-06
3.02242e-06
1.64964e-06
1.39365e-06
2.38001e-06
5.24939e-06
1.11686e-05
2.13171e-05
3.5624e-05
9.35751e-06
5.62437e-06
3.0222e-06
1.64946e-06
1.39338e-06
2.37944e-06
5.24821e-06
1.11664e-05
2.13134e-05
3.56185e-05
9.35724e-06
5.62423e-06
3.02211e-06
1.64938e-06
1.39324e-06
2.37913e-06
5.24758e-06
1.11652e-05
2.13113e-05
3.56155e-05
9.35744e-06
5.62437e-06
3.0222e-06
1.64941e-06
1.39322e-06
2.37906e-06
5.24742e-06
1.11649e-05
2.13109e-05
3.56149e-05
9.35825e-06
5.62489e-06
3.02249e-06
1.64958e-06
1.39333e-06
2.3792e-06
5.24771e-06
1.11655e-05
2.1312e-05
3.56169e-05
9.35991e-06
5.62595e-06
3.0231e-06
1.64992e-06
1.39359e-06
2.37958e-06
5.24849e-06
1.11671e-05
2.1315e-05
3.56218e-05
9.36276e-06
5.62776e-06
3.02413e-06
1.6505e-06
1.39405e-06
2.38026e-06
5.24987e-06
1.11699e-05
2.13203e-05
3.56305e-05
9.36719e-06
5.63057e-06
3.02573e-06
1.6514e-06
1.39475e-06
2.38129e-06
5.25199e-06
1.11743e-05
2.13286e-05
3.56442e-05
9.37354e-06
5.6346e-06
3.02803e-06
1.65269e-06
1.39573e-06
2.38273e-06
5.25499e-06
1.11806e-05
2.13404e-05
3.5664e-05
2.85017e-06
1.81419e-06
1.01688e-06
5.80823e-07
5.07389e-07
8.5323e-07
1.81984e-06
3.73882e-06
6.86601e-06
1.08445e-05
2.84984e-06
1.81399e-06
1.01676e-06
5.8072e-07
5.0723e-07
8.52911e-07
1.8192e-06
3.73767e-06
6.86418e-06
1.0842e-05