/*--------------------------------*- C++ -*----------------------------------*\
  =========                 |
  \\      /  F ield         | OpenFOAM: The Open Source CFD Toolbox
   \\    /   O peration     | Website:  https://openfoam.org
    \\  /    A nd           | Version:  6
     \\/     M anipulation  |
\*---------------------------------------------------------------------------*/
FoamFile
{
    version     2.0;
    format      ascii;
    class       volScalarField;
    location    "0.05";
    object      T;
}
// * * * * * * * * * * * * * * * * * * * * * * * * * * * * * * * * * * * * * //

dimensions      [0 0 0 1 0 0 0];

internalField   nonuniform List<scalar> 
7000
(
95.9276
95.9274
95.9272
95.9272
95.9271
95.9271
95.9272
95.9272
95.9273
95.9274
95.9274
95.9271
95.927
95.9269
95.9269
95.9269
95.9269
95.927
95.9271
95.9272
95.9272
95.927
95.9268
95.9268
95.9267
95.9267
95.9268
95.9268
95.9269
95.9271
95.9272
95.9269
95.9268
95.9267
95.9267
95.9267
95.9267
95.9268
95.9269
95.927
95.9271
95.9269
95.9267
95.9267
95.9266
95.9266
95.9267
95.9267
95.9269
95.927
95.9271
95.9269
95.9267
95.9267
95.9266
95.9266
95.9267
95.9267
95.9269
95.927
95.9272
95.9269
95.9268
95.9267
95.9267
95.9267
95.9267
95.9268
95.9269
95.927
95.9272
95.927
95.9268
95.9268
95.9267
95.9267
95.9268
95.9269
95.927
95.9271
95.9273
95.9271
95.9269
95.9269
95.9269
95.9269
95.9269
95.927
95.9271
95.9272
95.9274
95.9272
95.9271
95.927
95.927
95.927
95.927
95.9271
95.9272
95.9274
69.234
69.2334
69.233
69.2328
69.2327
69.2327
69.2328
69.233
69.2332
69.2335
69.2334
69.2328
69.2324
69.2322
69.2322
69.2322
69.2323
69.2324
69.2327
69.2331
69.233
69.2324
69.2321
69.2319
69.2318
69.2318
69.2319
69.2321
69.2324
69.2328
69.2328
69.2322
69.2319
69.2317
69.2316
69.2316
69.2317
69.2319
69.2323
69.2327
69.2327
69.2322
69.2318
69.2316
69.2315
69.2316
69.2317
69.2319
69.2322
69.2326
69.2327
69.2322
69.2318
69.2316
69.2316
69.2316
69.2317
69.2319
69.2322
69.2327
69.2328
69.2323
69.2319
69.2317
69.2317
69.2317
69.2318
69.232
69.2323
69.2328
69.233
69.2324
69.2321
69.2319
69.2319
69.2319
69.232
69.2322
69.2326
69.233
69.2332
69.2327
69.2324
69.2323
69.2322
69.2322
69.2323
69.2326
69.2329
69.2333
69.2335
69.2331
69.2328
69.2327
69.2326
69.2327
69.2328
69.233
69.2333
69.2338
46.4428
46.4421
46.4416
46.4414
46.4413
46.4413
46.4414
46.4416
46.442
46.4424
46.4421
46.4414
46.4409
46.4407
46.4406
46.4406
46.4407
46.441
46.4414
46.442
46.4416
46.4409
46.4405
46.4402
46.4401
46.4401
46.4403
46.4406
46.441
46.4416
46.4414
46.4407
46.4402
46.44
46.4399
46.4399
46.44
46.4403
46.4408
46.4415
46.4413
46.4406
46.4401
46.4399
46.4398
46.4398
46.44
46.4403
46.4407
46.4414
46.4413
46.4406
46.4401
46.4399
46.4398
46.4398
46.44
46.4403
46.4408
46.4414
46.4414
46.4407
46.4403
46.44
46.44
46.44
46.4401
46.4404
46.4409
46.4416
46.4416
46.441
46.4406
46.4403
46.4403
46.4403
46.4404
46.4408
46.4412
46.4419
46.442
46.4414
46.441
46.4408
46.4407
46.4408
46.4409
46.4412
46.4417
46.4424
46.4424
46.442
46.4416
46.4415
46.4414
46.4414
46.4416
46.4419
46.4424
46.4431
28.8881
28.8874
28.887
28.8867
28.8866
28.8866
28.8868
28.887
28.8874
28.888
28.8874
28.8867
28.8863
28.8861
28.886
28.886
28.8861
28.8864
28.8869
28.8875
28.887
28.8863
28.8859
28.8856
28.8855
28.8856
28.8857
28.886
28.8865
28.8872
28.8867
28.8861
28.8856
28.8854
28.8853
28.8853
28.8855
28.8858
28.8863
28.8871
28.8866
28.886
28.8855
28.8853
28.8852
28.8852
28.8854
28.8857
28.8862
28.887
28.8866
28.886
28.8856
28.8853
28.8852
28.8853
28.8854
28.8858
28.8863
28.887
28.8868
28.8861
28.8857
28.8855
28.8854
28.8854
28.8856
28.886
28.8865
28.8872
28.887
28.8864
28.886
28.8858
28.8857
28.8858
28.886
28.8863
28.8868
28.8876
28.8874
28.8869
28.8865
28.8863
28.8863
28.8863
28.8865
28.8868
28.8873
28.8881
28.888
28.8875
28.8872
28.8871
28.887
28.887
28.8872
28.8876
28.8881
28.8888
16.6504
16.6499
16.6496
16.6494
16.6493
16.6493
16.6494
16.6497
16.6501
16.6505
16.6499
16.6494
16.649
16.6488
16.6488
16.6488
16.6489
16.6492
16.6496
16.6502
16.6496
16.649
16.6487
16.6485
16.6484
16.6485
16.6486
16.6489
16.6493
16.65
16.6494
16.6488
16.6485
16.6483
16.6482
16.6483
16.6484
16.6487
16.6492
16.6498
16.6493
16.6488
16.6484
16.6482
16.6482
16.6482
16.6484
16.6486
16.6491
16.6498
16.6493
16.6488
16.6485
16.6483
16.6482
16.6482
16.6484
16.6487
16.6492
16.6498
16.6494
16.6489
16.6486
16.6484
16.6484
16.6484
16.6486
16.6489
16.6493
16.65
16.6497
16.6492
16.6489
16.6487
16.6486
16.6487
16.6489
16.6492
16.6496
16.6503
16.6501
16.6496
16.6493
16.6492
16.6491
16.6492
16.6493
16.6496
16.6501
16.6508
16.6506
16.6502
16.65
16.6498
16.6498
16.6499
16.65
16.6503
16.6508
16.6515
8.89835
8.89799
8.89775
8.89761
8.89756
8.89758
8.89768
8.89786
8.89815
8.89854
8.89799
8.89762
8.89739
8.89725
8.8972
8.89722
8.89732
8.89752
8.89784
8.89832
8.89775
8.89739
8.89715
8.89701
8.89696
8.89699
8.8971
8.89731
8.89765
8.89816
8.89761
8.89725
8.89702
8.89688
8.89683
8.89686
8.89697
8.89719
8.89754
8.89806
8.89756
8.8972
8.89696
8.89683
8.89678
8.89681
8.89693
8.89715
8.89751
8.89804
8.89758
8.89722
8.89699
8.89686
8.89682
8.89685
8.89697
8.89719
8.89755
8.89808
8.89768
8.89733
8.8971
8.89698
8.89694
8.89697
8.89709
8.89732
8.89768
8.89821
8.89788
8.89754
8.89732
8.8972
8.89717
8.8972
8.89732
8.89755
8.89791
8.89844
8.89818
8.89787
8.89768
8.89757
8.89754
8.89758
8.8977
8.89793
8.89829
8.89882
8.89858
8.89836
8.8982
8.8981
8.89807
8.89812
8.89824
8.89847
8.89883
8.89937
4.41615
4.41593
4.41578
4.41569
4.41566
4.41568
4.41573
4.41584
4.41601
4.41624
4.41593
4.4157
4.41556
4.41547
4.41544
4.41545
4.41552
4.41563
4.41582
4.41611
4.41578
4.41556
4.41541
4.41533
4.4153
4.41531
4.41538
4.4155
4.4157
4.41601
4.4157
4.41547
4.41533
4.41524
4.41521
4.41523
4.4153
4.41543
4.41563
4.41595
4.41566
4.41544
4.4153
4.41522
4.41519
4.41521
4.41528
4.41541
4.41561
4.41594
4.41568
4.41546
4.41532
4.41524
4.41521
4.41523
4.4153
4.41544
4.41564
4.41597
4.41575
4.41554
4.4154
4.41532
4.41529
4.41532
4.41539
4.41552
4.41573
4.41606
4.41589
4.41568
4.41555
4.41548
4.41545
4.41548
4.41555
4.41568
4.41589
4.41622
4.4161
4.41591
4.41579
4.41573
4.41571
4.41573
4.41581
4.41594
4.41615
4.41648
4.41639
4.41625
4.41615
4.4161
4.41608
4.41611
4.41618
4.41632
4.41653
4.41686
2.03972
2.03959
2.03951
2.03946
2.03944
2.03944
2.03945
2.03944
2.03939
2.03935
2.03959
2.03947
2.03938
2.03934
2.03932
2.03932
2.03933
2.03932
2.03928
2.03928
2.03951
2.03938
2.0393
2.03926
2.03924
2.03924
2.03925
2.03925
2.03922
2.03922
2.03946
2.03934
2.03926
2.03921
2.03919
2.03919
2.03921
2.03921
2.03918
2.03919
2.03945
2.03932
2.03924
2.0392
2.03918
2.03918
2.03919
2.0392
2.03918
2.03918
2.03946
2.03934
2.03926
2.03921
2.03919
2.0392
2.03921
2.03922
2.0392
2.0392
2.0395
2.03938
2.03931
2.03926
2.03925
2.03925
2.03927
2.03927
2.03925
2.03926
2.03959
2.03947
2.0394
2.03936
2.03934
2.03935
2.03936
2.03937
2.03935
2.03936
2.03972
2.03962
2.03955
2.03951
2.0395
2.03951
2.03952
2.03953
2.03951
2.03952
2.0399
2.03983
2.03977
2.03974
2.03973
2.03974
2.03975
2.03976
2.03974
2.03975
0.878999
0.878935
0.878893
0.878867
0.87885
0.878826
0.878752
0.878525
0.877969
0.877107
0.878935
0.878872
0.87883
0.878804
0.878787
0.878764
0.878691
0.878466
0.877916
0.877072
0.878893
0.87883
0.878788
0.878763
0.878747
0.878724
0.878652
0.878429
0.877883
0.877045
0.87887
0.878807
0.878765
0.87874
0.878724
0.878702
0.878631
0.878409
0.877866
0.87703
0.878863
0.8788
0.878758
0.878733
0.878718
0.878696
0.878626
0.878405
0.877862
0.877028
0.87887
0.878808
0.878767
0.878743
0.878727
0.878706
0.878636
0.878416
0.877874
0.87704
0.878896
0.878835
0.878795
0.878771
0.878757
0.878735
0.878666
0.878446
0.877904
0.87707
0.878944
0.878885
0.878847
0.878825
0.878811
0.87879
0.878721
0.878502
0.87796
0.877126
0.879018
0.878965
0.878931
0.878911
0.878899
0.878878
0.87881
0.87859
0.878049
0.877215
0.87912
0.879084
0.879056
0.879039
0.879027
0.879007
0.878938
0.878719
0.878178
0.877344
0.354391
0.354362
0.354341
0.354326
0.354306
0.354249
0.354047
0.35338
0.351449
0.347292
0.354362
0.354332
0.354312
0.354297
0.354277
0.35422
0.354019
0.353352
0.351425
0.347277
0.354343
0.354313
0.354293
0.354278
0.354258
0.354201
0.354001
0.353335
0.35141
0.347265
0.354332
0.354302
0.354282
0.354268
0.354248
0.354191
0.353991
0.353327
0.351402
0.347258
0.354329
0.354299
0.354279
0.354265
0.354245
0.354189
0.353989
0.353325
0.351401
0.347257
0.354333
0.354304
0.354284
0.35427
0.354251
0.354194
0.353995
0.353331
0.351407
0.347263
0.354346
0.354318
0.354298
0.354284
0.354266
0.35421
0.35401
0.353346
0.351423
0.347278
0.354371
0.354343
0.354325
0.354312
0.354293
0.354237
0.354038
0.353374
0.351451
0.347306
0.354409
0.354384
0.354368
0.354356
0.354338
0.354282
0.354083
0.353419
0.351495
0.34735
0.354461
0.354445
0.354432
0.35442
0.354403
0.354347
0.354148
0.353484
0.35156
0.347414
0.13405
0.134037
0.134027
0.134017
0.133994
0.133908
0.133577
0.132313
0.127506
0.108834
0.134037
0.134024
0.134015
0.134005
0.133981
0.133895
0.133564
0.132301
0.127497
0.108828
0.134029
0.134016
0.134007
0.133997
0.133973
0.133888
0.133557
0.132294
0.127491
0.108824
0.134024
0.134012
0.134002
0.133992
0.133969
0.133883
0.133553
0.13229
0.127487
0.108822
0.134023
0.13401
0.134001
0.133991
0.133968
0.133882
0.133552
0.13229
0.127487
0.108822
0.134025
0.134013
0.134003
0.133994
0.13397
0.133885
0.133555
0.132292
0.12749
0.108824
0.134032
0.134019
0.13401
0.134
0.133977
0.133892
0.133562
0.1323
0.127497
0.10883
0.134043
0.134031
0.134022
0.134013
0.13399
0.133905
0.133575
0.132312
0.127509
0.10884
0.134061
0.13405
0.134043
0.134034
0.134011
0.133926
0.133596
0.132333
0.127529
0.108857
0.134086
0.134079
0.134072
0.134064
0.134041
0.133956
0.133626
0.132363
0.127558
0.108883
0.0477023
0.047697
0.0476925
0.0476858
0.047666
0.0475931
0.0473273
0.0464065
0.0434282
0.0347716
0.0476972
0.047692
0.0476875
0.0476808
0.047661
0.0475882
0.0473226
0.0464021
0.0434246
0.0347694
0.047694
0.0476887
0.0476843
0.0476776
0.0476578
0.047585
0.0473195
0.0463993
0.0434223
0.0347678
0.0476922
0.0476869
0.0476825
0.0476759
0.0476561
0.0475834
0.0473179
0.0463979
0.0434211
0.034767
0.0476917
0.0476865
0.0476821
0.0476755
0.0476558
0.0475831
0.0473177
0.0463977
0.043421
0.034767
0.0476927
0.0476875
0.0476832
0.0476766
0.0476569
0.0475843
0.0473189
0.0463989
0.0434222
0.0347679
0.0476955
0.0476904
0.0476861
0.0476796
0.04766
0.0475873
0.047322
0.046402
0.043425
0.0347702
0.0477005
0.0476956
0.0476915
0.0476851
0.0476655
0.0475929
0.0473276
0.0464074
0.0434301
0.0347743
0.0477083
0.0477039
0.0477001
0.0476939
0.0476744
0.0476019
0.0473365
0.0464162
0.0434383
0.0347809
0.047719
0.0477161
0.0477129
0.0477069
0.0476875
0.0476149
0.0473495
0.046429
0.0434504
0.034791
0.0160129
0.0160109
0.0160089
0.0160049
0.0159924
0.0159482
0.0157992
0.0153344
0.0140339
0.0109496
0.0160111
0.016009
0.016007
0.0160031
0.0159905
0.0159464
0.0157974
0.0153328
0.0140326
0.0109487
0.0160099
0.0160078
0.0160058
0.0160019
0.0159894
0.0159452
0.0157963
0.0153318
0.0140317
0.0109482
0.0160092
0.0160072
0.0160051
0.0160012
0.0159887
0.0159446
0.0157958
0.0153313
0.0140313
0.0109479
0.0160091
0.016007
0.016005
0.0160011
0.0159886
0.0159446
0.0157957
0.0153313
0.0140313
0.0109479
0.0160095
0.0160075
0.0160055
0.0160016
0.0159891
0.015945
0.0157962
0.0153318
0.0140318
0.0109483
0.0160106
0.0160086
0.0160067
0.0160028
0.0159903
0.0159463
0.0157974
0.015333
0.0140329
0.0109491
0.0160126
0.0160107
0.0160088
0.016005
0.0159926
0.0159485
0.0157996
0.0153351
0.0140348
0.0109507
0.0160157
0.016014
0.0160123
0.0160085
0.0159961
0.0159521
0.0158032
0.0153386
0.014038
0.0109532
0.0160201
0.016019
0.0160174
0.0160137
0.0160013
0.0159573
0.0158084
0.0153436
0.0140427
0.010957
0.00508375
0.00508299
0.00508211
0.00508013
0.00507372
0.00505229
0.00498512
0.00479416
0.00431812
0.00333961
0.0050831
0.00508234
0.00508146
0.00507948
0.00507308
0.00505166
0.00498452
0.00479362
0.00431769
0.00333932
0.00508267
0.00508192
0.00508105
0.00507907
0.00507267
0.00505126
0.00498414
0.00479327
0.00431741
0.00333913
0.00508245
0.0050817
0.00508082
0.00507885
0.00507245
0.00505105
0.00498395
0.0047931
0.00431727
0.00333904
0.00508241
0.00508166
0.00508079
0.00507882
0.00507243
0.00505103
0.00498393
0.0047931
0.00431727
0.00333905
0.00508258
0.00508183
0.00508097
0.005079
0.00507261
0.00505122
0.00498412
0.00479328
0.00431745
0.00333919
0.005083
0.00508226
0.00508141
0.00507945
0.00507307
0.00505168
0.00498458
0.00479372
0.00431784
0.0033395
0.00508375
0.00508304
0.00508222
0.00508028
0.0050739
0.00505251
0.0049854
0.00479452
0.00431856
0.00334006
0.00508493
0.00508429
0.00508351
0.0050816
0.00507523
0.00505384
0.00498672
0.00479578
0.00431971
0.00334097
0.00508657
0.00508614
0.00508542
0.00508353
0.00507718
0.00505579
0.00498864
0.00479764
0.0043214
0.00334233
0.00153019
0.00152992
0.00152957
0.00152869
0.0015259
0.00151705
0.00149104
0.00142266
0.00126711
0.000978696
0.00152998
0.00152971
0.00152936
0.00152848
0.00152569
0.00151684
0.00149085
0.00142249
0.00126697
0.000978601
0.00152984
0.00152957
0.00152922
0.00152835
0.00152556
0.00151671
0.00149072
0.00142238
0.00126688
0.00097854
0.00152977
0.0015295
0.00152915
0.00152828
0.00152549
0.00151664
0.00149066
0.00142232
0.00126684
0.000978511
0.00152976
0.00152949
0.00152914
0.00152827
0.00152549
0.00151664
0.00149066
0.00142232
0.00126684
0.000978516
0.00152982
0.00152956
0.00152921
0.00152834
0.00152555
0.00151671
0.00149073
0.00142239
0.0012669
0.000978564
0.00152997
0.00152971
0.00152936
0.00152849
0.00152571
0.00151687
0.00149089
0.00142254
0.00126704
0.000978671
0.00153023
0.00152998
0.00152964
0.00152878
0.00152601
0.00151716
0.00149118
0.00142281
0.00126729
0.000978864
0.00153065
0.00153042
0.0015301
0.00152925
0.00152647
0.00151762
0.00149163
0.00142325
0.00126768
0.000979176
0.00153123
0.00153107
0.00153077
0.00152992
0.00152715
0.0015183
0.0014923
0.00142389
0.00126826
0.000979638
0.000437688
0.000437599
0.000437467
0.000437122
0.000436053
0.000432816
0.000423844
0.000401741
0.00035501
0.000274714
0.000437622
0.000437534
0.000437401
0.000437057
0.000435989
0.000432753
0.000423784
0.000401688
0.000354967
0.000274685
0.000437579
0.000437491
0.000437359
0.000437015
0.000435947
0.000432713
0.000423746
0.000401655
0.00035494
0.000274666
0.000437557
0.000437469
0.000437337
0.000436994
0.000435926
0.000432693
0.000423728
0.000401638
0.000354928
0.000274658
0.000437555
0.000437468
0.000437336
0.000436993
0.000435926
0.000432693
0.000423728
0.00040164
0.000354929
0.00027466
0.000437576
0.000437488
0.000437357
0.000437015
0.000435948
0.000432716
0.000423751
0.000401661
0.000354949
0.000274676
0.000437625
0.000437539
0.000437409
0.000437068
0.000436002
0.000432769
0.000423803
0.000401711
0.000354993
0.000274711
0.000437713
0.00043763
0.000437502
0.000437163
0.000436098
0.000432865
0.000423897
0.000401801
0.000355073
0.000274773
0.000437851
0.000437775
0.000437652
0.000437315
0.000436251
0.000433017
0.000424047
0.000401943
0.0003552
0.000274874
0.000438043
0.000437988
0.000437872
0.000437538
0.000436474
0.00043324
0.000424265
0.000402151
0.000355386
0.000275023
0.000119232
0.000119204
0.000119158
0.000119036
0.000118666
0.000117596
0.000114773
0.000108193
9.50761e-05
7.38003e-05
0.000119212
0.000119184
0.000119138
0.000119016
0.000118648
0.000117578
0.000114756
0.000108177
9.50638e-05
7.37918e-05
0.0001192
0.000119172
0.000119126
0.000119004
0.000118636
0.000117566
0.000114745
0.000108168
9.50561e-05
7.37864e-05
0.000119193
0.000119166
0.00011912
0.000118998
0.00011863
0.00011756
0.00011474
0.000108163
9.50525e-05
7.37839e-05
0.000119193
0.000119165
0.00011912
0.000118998
0.00011863
0.000117561
0.00011474
0.000108164
9.50533e-05
7.37847e-05
0.0001192
0.000119172
0.000119127
0.000119005
0.000118637
0.000117568
0.000114747
0.00010817
9.50594e-05
7.37897e-05
0.000119215
0.000119188
0.000119143
0.000119022
0.000118653
0.000117584
0.000114764
0.000108186
9.50731e-05
7.38005e-05
0.000119243
0.000119216
0.000119172
0.000119051
0.000118683
0.000117614
0.000114793
0.000108213
9.50974e-05
7.38198e-05
0.000119286
0.000119261
0.000119218
0.000119099
0.000118731
0.000117661
0.000114839
0.000108257
9.51362e-05
7.38507e-05
0.000119346
0.000119328
0.000119287
0.000119168
0.0001188
0.00011773
0.000114906
0.000108321
9.51932e-05
7.38962e-05
3.09969e-05
3.09886e-05
3.09738e-05
3.09341e-05
3.08175e-05
3.04922e-05
2.96704e-05
2.78422e-05
2.43699e-05
1.89834e-05
3.09916e-05
3.09832e-05
3.09684e-05
3.09288e-05
3.08123e-05
3.04871e-05
2.96657e-05
2.7838e-05
2.43666e-05
1.8981e-05
3.09881e-05
3.09798e-05
3.0965e-05
3.09254e-05
3.0809e-05
3.04839e-05
2.96627e-05
2.78354e-05
2.43644e-05
1.89795e-05
3.09864e-05
3.09781e-05
3.09633e-05
3.09238e-05
3.08073e-05
3.04823e-05
2.96612e-05
2.78341e-05
2.43635e-05
1.89789e-05
3.09864e-05
3.09781e-05
3.09634e-05
3.09238e-05
3.08074e-05
3.04825e-05
2.96614e-05
2.78344e-05
2.43638e-05
1.89792e-05
3.09883e-05
3.09801e-05
3.09654e-05
3.0926e-05
3.08096e-05
3.04846e-05
2.96635e-05
2.78364e-05
2.43656e-05
1.89806e-05
3.09929e-05
3.09848e-05
3.09702e-05
3.09308e-05
3.08145e-05
3.04895e-05
2.96683e-05
2.78409e-05
2.43696e-05
1.89838e-05
3.10011e-05
3.09931e-05
3.09788e-05
3.09396e-05
3.08233e-05
3.04982e-05
2.96768e-05
2.78489e-05
2.43766e-05
1.89894e-05
3.10138e-05
3.10065e-05
3.09925e-05
3.09535e-05
3.08372e-05
3.05121e-05
2.96904e-05
2.78617e-05
2.43879e-05
1.89984e-05
3.10316e-05
3.1026e-05
3.10127e-05
3.09738e-05
3.08576e-05
3.05323e-05
2.97101e-05
2.78803e-05
2.44044e-05
1.90116e-05
7.7052e-06
7.70283e-06
7.69838e-06
7.68647e-06
7.65236e-06
7.56042e-06
7.33684e-06
6.859e-06
5.98772e-06
4.68606e-06
7.70378e-06
7.70141e-06
7.69698e-06
7.68507e-06
7.65098e-06
7.55908e-06
7.33559e-06
6.8579e-06
5.98684e-06
4.68544e-06
7.70287e-06
7.70051e-06
7.69608e-06
7.68418e-06
7.65011e-06
7.55824e-06
7.3348e-06
6.85721e-06
5.98629e-06
4.68504e-06
7.70242e-06
7.70006e-06
7.69564e-06
7.68375e-06
7.64969e-06
7.55784e-06
7.33444e-06
6.8569e-06
5.98604e-06
4.68488e-06
7.70244e-06
7.70009e-06
7.69567e-06
7.68379e-06
7.64974e-06
7.5579e-06
7.33451e-06
6.85698e-06
5.98613e-06
4.68496e-06
7.703e-06
7.70066e-06
7.69626e-06
7.68439e-06
7.65035e-06
7.55851e-06
7.33511e-06
6.85755e-06
5.98664e-06
4.68537e-06
7.7043e-06
7.70198e-06
7.6976e-06
7.68576e-06
7.65172e-06
7.55988e-06
7.33644e-06
6.8588e-06
5.98775e-06
4.68626e-06
7.70658e-06
7.70432e-06
7.70001e-06
7.6882e-06
7.65417e-06
7.56231e-06
7.33881e-06
6.86103e-06
5.9897e-06
4.68782e-06
7.71015e-06
7.70805e-06
7.70384e-06
7.69208e-06
7.65807e-06
7.56617e-06
7.34257e-06
6.86456e-06
5.99282e-06
4.69032e-06
7.71514e-06
7.71352e-06
7.70947e-06
7.69776e-06
7.66375e-06
7.5718e-06
7.34804e-06
6.86971e-06
5.99738e-06
4.69398e-06
1.83473e-06
1.83409e-06
1.83284e-06
1.8295e-06
1.82018e-06
1.79584e-06
1.73862e-06
1.62084e-06
1.41536e-06
1.1304e-06
1.83437e-06
1.83373e-06
1.83248e-06
1.82915e-06
1.81984e-06
1.7955e-06
1.73831e-06
1.62056e-06
1.41513e-06
1.13023e-06
1.83414e-06
1.83351e-06
1.83226e-06
1.82893e-06
1.81962e-06
1.79529e-06
1.73811e-06
1.62039e-06
1.415e-06
1.13013e-06
1.83403e-06
1.8334e-06
1.83215e-06
1.82882e-06
1.81951e-06
1.79519e-06
1.73803e-06
1.62032e-06
1.41494e-06
1.13009e-06
1.83404e-06
1.83341e-06
1.83216e-06
1.82884e-06
1.81953e-06
1.79521e-06
1.73805e-06
1.62034e-06
1.41496e-06
1.13012e-06
1.83419e-06
1.83356e-06
1.83232e-06
1.829e-06
1.8197e-06
1.79538e-06
1.73821e-06
1.62049e-06
1.4151e-06
1.13023e-06
1.83454e-06
1.83392e-06
1.83268e-06
1.82936e-06
1.82006e-06
1.79574e-06
1.73856e-06
1.62083e-06
1.41539e-06
1.13047e-06
1.83515e-06
1.83454e-06
1.83332e-06
1.83001e-06
1.82071e-06
1.79639e-06
1.73919e-06
1.62141e-06
1.41591e-06
1.13089e-06
1.8361e-06
1.83553e-06
1.83434e-06
1.83104e-06
1.82175e-06
1.79741e-06
1.74019e-06
1.62235e-06
1.41673e-06
1.13157e-06
1.83744e-06
1.83699e-06
1.83584e-06
1.83255e-06
1.82326e-06
1.7989e-06
1.74163e-06
1.6237e-06
1.41794e-06
1.13255e-06
0.0324154
0.00951451
0.00273273
0.000803189
0.000400038
0.000821841
0.00289137
0.0103908
0.0363128
0.123745
0.0324134
0.00951386
0.00273251
0.000803096
0.000399922
0.000821513
0.00289034
0.0103877
0.0363039
0.123721
0.032412
0.00951343
0.00273237
0.000803041
0.000399857
0.000821333
0.00288979
0.0103861
0.0362993
0.123708
0.0324113
0.00951322
0.00273231
0.000803017
0.000399826
0.000821247
0.00288953
0.0103853
0.0362972
0.123703
0.0324113
0.00951324
0.00273232
0.00080302
0.000399821
0.000821223
0.00288946
0.0103851
0.0362966
0.123701
0.0324122
0.00951357
0.00273244
0.000803058
0.000399837
0.000821246
0.00288953
0.0103853
0.0362974
0.123703
0.0324143
0.0095143
0.00273268
0.000803143
0.000399878
0.000821313
0.00288974
0.010386
0.0362995
0.12371
0.0324181
0.00951561
0.00273312
0.000803291
0.000399948
0.000821423
0.00289008
0.0103872
0.0363032
0.123721
0.0324241
0.00951768
0.00273381
0.000803519
0.000400048
0.000821564
0.00289052
0.0103886
0.0363081
0.123737
0.0324327
0.00952059
0.00273477
0.000803831
0.000400171
0.000821702
0.00289092
0.01039
0.0363129
0.123753
0.0149554
0.0053299
0.00172159
0.000549336
0.000291342
0.000588739
0.00196279
0.00653696
0.0203315
0.0570698
0.0149544
0.00532952
0.00172145
0.000549272
0.000291258
0.000588508
0.0019621
0.00653504
0.0203266
0.0570588
0.0149538
0.00532927
0.00172136
0.000549233
0.00029121
0.000588378
0.00196172
0.00653398
0.0203239
0.0570527
0.0149534
0.00532915
0.00172132
0.000549216
0.000291187
0.000588315
0.00196154
0.00653347
0.0203226
0.0570497
0.0149535
0.00532917
0.00172133
0.000549219
0.000291183
0.000588297
0.00196148
0.00653333
0.0203223
0.0570489
0.0149539
0.00532937
0.00172141
0.000549247
0.000291196
0.000588314
0.00196153
0.00653349
0.0203227
0.0570501
0.014955
0.00532983
0.00172158
0.000549308
0.000291227
0.000588365
0.00196169
0.00653395
0.0203241
0.0570534
0.014957
0.00533065
0.00172188
0.000549417
0.000291282
0.000588451
0.00196194
0.00653474
0.0203263
0.0570593
0.0149603
0.00533196
0.00172237
0.00054959
0.000291363
0.000588568
0.00196229
0.00653583
0.0203295
0.0570679
0.0149651
0.00533392
0.00172309
0.000549841
0.000291473
0.00058871
0.0019627
0.00653715
0.0203335
0.0570791
0.0056206
0.00231302
0.000833658
0.000291422
0.000166876
0.000329857
0.00103015
0.00315939
0.00881863
0.0214421
0.00562019
0.00231284
0.000833588
0.000291387
0.000166827
0.000329728
0.00102979
0.00315846
0.00881649
0.0214379
0.00561991
0.00231273
0.000833543
0.000291365
0.000166799
0.000329653
0.00102959
0.00315792
0.00881525
0.0214354
0.00561977
0.00231267
0.000833523
0.000291355
0.000166785
0.000329616
0.00102948
0.00315766
0.00881463
0.0214341
0.00561979
0.00231269
0.00083353
0.000291357
0.000166782
0.000329606
0.00102945
0.00315759
0.00881447
0.0214338
0.00562001
0.00231279
0.000833572
0.000291374
0.00016679
0.000329616
0.00102948
0.00315767
0.0088147
0.0214343
0.00562049
0.00231301
0.000833665
0.00029141
0.00016681
0.000329647
0.00102957
0.00315792
0.00881534
0.0214357
0.00562137
0.00231342
0.00083383
0.000291474
0.000166844
0.000329701
0.00102972
0.00315835
0.00881647
0.0214383
0.00562279
0.00231407
0.000834095
0.000291576
0.000166896
0.000329777
0.00102994
0.00315897
0.00881813
0.0214422
0.00562493
0.00231506
0.000834493
0.000291727
0.000166969
0.000329877
0.00103021
0.0031598
0.00882038
0.0214477
0.00189323
0.000863495
0.00034057
0.000129482
7.9798e-05
0.000154168
0.000452114
0.00128771
0.00329025
0.0072205
0.00189308
0.000863424
0.00034054
0.000129465
7.97742e-05
0.000154107
0.000451954
0.00128732
0.00328944
0.00721903
0.00189298
0.000863378
0.000340521
0.000129455
7.976e-05
0.000154072
0.00045186
0.00128709
0.00328894
0.00721811
0.00189293
0.000863357
0.000340512
0.00012945
7.9753e-05
0.000154054
0.000451812
0.00128698
0.00328869
0.00721764
0.00189294
0.000863364
0.000340516
0.000129451
7.97518e-05
0.000154048
0.000451798
0.00128695
0.00328863
0.00721752
0.00189302
0.000863408
0.000340536
0.000129459
7.97559e-05
0.000154054
0.000451813
0.00128699
0.00328873
0.00721773
0.00189322
0.000863504
0.000340578
0.000129477
7.97662e-05
0.00015407
0.000451856
0.0012871
0.003289
0.00721829
0.00189356
0.000863678
0.000340654
0.000129509
7.97843e-05
0.000154098
0.00045193
0.0012873
0.00328948
0.00721931
0.00189412
0.000863958
0.000340777
0.000129559
7.98122e-05
0.00015414
0.00045204
0.0012876
0.00329022
0.00722088
0.00189495
0.000864378
0.00034096
0.000129634
7.98518e-05
0.000154196
0.000452189
0.00128801
0.00329126
0.00722315
0.000590139
0.00029013
0.000123077
5.03797e-05
3.31506e-05
6.26636e-05
0.000173634
0.000464125
0.00110478
0.00225002
0.000590086
0.000290105
0.000123065
5.03727e-05
3.31404e-05
6.26386e-05
0.000173572
0.000463983
0.0011045
0.00224954
0.000590051
0.000290088
0.000123058
5.03684e-05
3.31343e-05
6.26236e-05
0.000173534
0.000463896
0.00110432
0.00224923
0.000590035
0.000290081
0.000123055
5.03664e-05
3.31312e-05
6.26159e-05
0.000173514
0.000463852
0.00110423
0.00224907
0.00059004
0.000290084
0.000123057
5.0367e-05
3.31307e-05
6.26137e-05
0.000173509
0.00046384
0.00110421
0.00224903
0.000590071
0.000290101
0.000123065
5.03705e-05
3.31326e-05
6.26163e-05
0.000173515
0.000463856
0.00110425
0.00224911
0.000590141
0.000290138
0.000123082
5.03782e-05
3.31373e-05
6.26236e-05
0.000173534
0.000463902
0.00110435
0.00224931
0.000590265
0.000290204
0.000123113
5.03919e-05
3.31457e-05
6.26365e-05
0.000173566
0.000463984
0.00110454
0.00224968
0.000590465
0.000290312
0.000123163
5.04138e-05
3.31586e-05
6.26559e-05
0.000173615
0.00046411
0.00110483
0.00225026
0.000590763
0.000290472
0.000123237
5.04462e-05
3.31772e-05
6.26827e-05
0.000173683
0.000464288
0.00110525
0.00225111
0.00017266
8.9798e-05
4.04178e-05
1.76418e-05
1.22882e-05
2.27643e-05
6.00011e-05
0.000151969
0.000341686
0.000658078
0.000172642
8.97894e-05
4.04136e-05
1.76392e-05
1.22843e-05
2.2755e-05
5.99789e-05
0.000151921
0.000341595
0.00065793
0.000172632
8.97839e-05
4.04111e-05
1.76375e-05
1.22819e-05
2.27494e-05
5.99653e-05
0.000151891
0.000341537
0.000657834
0.000172627
8.97816e-05
4.041e-05
1.76368e-05
1.22807e-05
2.27465e-05
5.99582e-05
0.000151876
0.000341507
0.000657783
0.000172629
8.97828e-05
4.04107e-05
1.7637e-05
1.22805e-05
2.27457e-05
5.99563e-05
0.000151871
0.000341499
0.000657771
0.000172639
8.97889e-05
4.04137e-05
1.76384e-05
1.22813e-05
2.27467e-05
5.99587e-05
0.000151878
0.000341513
0.000657796
0.000172663
8.9802e-05
4.04201e-05
1.76414e-05
1.22833e-05
2.27497e-05
5.99659e-05
0.000151895
0.00034155
0.000657865
0.000172704
8.98253e-05
4.04315e-05
1.76468e-05
1.22867e-05
2.27549e-05
5.99786e-05
0.000151925
0.000341616
0.00065799
0.000172771
8.98629e-05
4.04499e-05
1.76553e-05
1.2292e-05
2.2763e-05
5.99981e-05
0.000151973
0.00034172
0.000658187
0.000172871
8.99188e-05
4.04773e-05
1.76679e-05
1.22997e-05
2.27743e-05
6.00257e-05
0.000152041
0.000341872
0.00065848
4.77787e-05
2.59506e-05
1.22637e-05
5.66031e-06
4.14045e-06
7.53064e-06
1.89986e-05
4.59653e-05
9.86615e-05
0.000182037
4.77736e-05
2.5948e-05
1.22624e-05
5.6594e-06
4.13908e-06
7.5275e-06
1.89914e-05
4.59503e-05
9.86341e-05
0.000181994
4.77704e-05
2.59463e-05
1.22616e-05
5.65884e-06
4.13824e-06
7.52557e-06
1.89869e-05
4.59409e-05
9.86165e-05
0.000181966
4.7769e-05
2.59456e-05
1.22612e-05
5.6586e-06
4.13782e-06
7.52456e-06
1.89846e-05
4.59359e-05
9.86073e-05
0.000181951
4.77696e-05
2.5946e-05
1.22615e-05
5.65868e-06
4.13776e-06
7.52429e-06
1.89839e-05
4.59346e-05
9.8605e-05
0.000181947
4.7773e-05
2.5948e-05
1.22625e-05
5.65918e-06
4.13805e-06
7.52468e-06
1.89848e-05
4.59367e-05
9.86094e-05
0.000181956
4.77804e-05
2.59523e-05
1.22647e-05
5.66025e-06
4.13877e-06
7.52577e-06
1.89873e-05
4.59426e-05
9.86215e-05
0.000181977
4.77935e-05
2.59599e-05
1.22686e-05
5.66215e-06
4.14005e-06
7.52773e-06
1.89919e-05
4.59531e-05
9.86435e-05
0.000182017
4.78145e-05
2.59722e-05
1.22748e-05
5.66517e-06
4.14206e-06
7.53075e-06
1.89989e-05
4.59696e-05
9.86781e-05
0.00018208
4.78456e-05
2.59903e-05
1.2284e-05
5.66963e-06
4.14495e-06
7.53505e-06
1.9009e-05
4.59935e-05
9.87288e-05
0.000182174
1.25692e-05
7.06622e-06
3.47844e-06
1.68585e-06
1.28628e-06
2.30073e-06
5.58549e-06
1.29937e-05
2.68404e-05
4.78692e-05
1.25677e-05
7.06543e-06
3.47803e-06
1.68556e-06
1.28584e-06
2.29975e-06
5.5833e-06
1.29893e-05
2.68326e-05
4.78572e-05
1.25668e-05
7.06495e-06
3.47778e-06
1.68538e-06
1.28557e-06
2.29913e-06
5.58193e-06
1.29865e-05
2.68275e-05
4.78493e-05
1.25664e-05
7.06475e-06
3.47768e-06
1.6853e-06
1.28543e-06
2.29881e-06
5.58121e-06
1.29851e-05
2.68249e-05
4.78451e-05
1.25667e-05
7.0649e-06
3.47777e-06
1.68533e-06
1.28541e-06
2.29873e-06
5.58101e-06
1.29847e-05
2.68243e-05
4.78442e-05
1.25677e-05
7.06552e-06
3.4781e-06
1.68549e-06
1.28551e-06
2.29886e-06
5.58131e-06
1.29854e-05
2.68256e-05
4.78466e-05
1.25699e-05
7.06684e-06
3.47879e-06
1.68585e-06
1.28576e-06
2.29924e-06
5.58214e-06
1.29872e-05
2.68294e-05
4.78532e-05
1.25738e-05
7.06916e-06
3.48002e-06
1.68647e-06
1.2862e-06
2.2999e-06
5.58365e-06
1.29906e-05
2.68361e-05
4.7865e-05
1.258e-05
7.07289e-06
3.48198e-06
1.68747e-06
1.28689e-06
2.30095e-06
5.586e-06
1.29959e-05
2.68469e-05
4.78841e-05
1.25892e-05
7.07839e-06
3.48488e-06
1.68893e-06
1.28788e-06
2.30244e-06
5.58938e-06
1.30036e-05
2.68627e-05
4.79123e-05
3.17508e-06
1.84083e-06
9.39659e-07
4.76092e-07
3.77115e-07
6.64083e-07
1.55695e-06
3.49744e-06
6.98506e-06
1.20866e-05
3.17468e-06
1.84061e-06
9.3954e-07
4.76003e-07
3.7698e-07
6.6379e-07
1.55632e-06
3.4962e-06
6.98293e-06
1.20834e-05
3.17444e-06
1.84048e-06
9.39468e-07
4.75949e-07
3.76896e-07
6.63607e-07
1.55592e-06
3.49542e-06
6.98156e-06
1.20813e-05
3.17434e-06
1.84043e-06
9.39441e-07
4.75926e-07
3.76854e-07
6.63511e-07
1.55571e-06
3.495e-06
6.98082e-06
1.20802e-05
3.17441e-06
1.84048e-06
9.39468e-07
4.75936e-07
3.76849e-07
6.63487e-07
1.55566e-06
3.4949e-06
6.98066e-06
1.208e-05
3.1747e-06
1.84066e-06
9.39568e-07
4.75988e-07
3.76882e-07
6.63531e-07
1.55575e-06
3.4951e-06
6.98108e-06
1.20807e-05
3.17533e-06
1.84104e-06
9.39777e-07
4.76098e-07
3.76962e-07
6.6365e-07
1.55601e-06
3.49567e-06
6.98217e-06
1.20825e-05
3.17643e-06
1.84172e-06
9.40145e-07
4.76293e-07
3.77104e-07
6.63866e-07
1.55648e-06
3.49669e-06
6.98417e-06
1.20859e-05
3.1782e-06
1.8428e-06
9.40733e-07
4.76602e-07
3.77328e-07
6.64204e-07
1.55722e-06
3.49831e-06
6.98734e-06
1.20914e-05
3.18078e-06