/*--------------------------------*- C++ -*----------------------------------*\
  =========                 |
  \\      /  F ield         | OpenFOAM: The Open Source CFD Toolbox
   \\    /   O peration     | Website:  https://openfoam.org
    \\  /    A nd           | Version:  6
     \\/     M anipulation  |
\*---------------------------------------------------------------------------*/
FoamFile
{
    version     2.0;
    format      ascii;
    class       volScalarField;
    location    "0.605";
    object      T;
}
// * * * * * * * * * * * * * * * * * * * * * * * * * * * * * * * * * * * * * //

dimensions      [0 0 0 1 0 0 0];

internalField   nonuniform List<scalar> 
7000
(
105.928
105.925
105.921
105.915
105.908
105.899
105.891
105.884
105.879
105.876
105.928
105.925
105.921
105.915
105.908
105.899
105.891
105.884
105.879
105.876
105.928
105.925
105.921
105.915
105.908
105.899
105.891
105.884
105.879
105.876
105.928
105.925
105.921
105.915
105.908
105.899
105.891
105.884
105.879
105.876
105.928
105.925
105.921
105.915
105.908
105.899
105.891
105.884
105.879
105.876
105.928
105.925
105.921
105.915
105.908
105.899
105.891
105.884
105.879
105.876
105.928
105.925
105.921
105.915
105.908
105.899
105.891
105.884
105.879
105.876
105.928
105.925
105.921
105.915
105.908
105.899
105.891
105.884
105.879
105.876
105.928
105.925
105.921
105.915
105.908
105.899
105.891
105.884
105.879
105.876
105.928
105.925
105.921
105.915
105.908
105.899
105.891
105.884
105.879
105.876
97.816
97.8092
97.796
97.7773
97.7544
97.7293
97.7042
97.6819
97.6651
97.656
97.8159
97.8091
97.796
97.7773
97.7544
97.7293
97.7042
97.6819
97.6651
97.656
97.8159
97.8091
97.7959
97.7772
97.7544
97.7293
97.7042
97.6819
97.6651
97.656
97.8159
97.8091
97.7959
97.7772
97.7544
97.7293
97.7042
97.6819
97.6651
97.656
97.8159
97.8091
97.7959
97.7772
97.7544
97.7293
97.7042
97.6819
97.6651
97.656
97.8159
97.8091
97.7959
97.7772
97.7544
97.7293
97.7042
97.6819
97.6651
97.656
97.8159
97.8091
97.7959
97.7772
97.7544
97.7293
97.7042
97.6819
97.6651
97.656
97.8159
97.8091
97.7959
97.7772
97.7544
97.7293
97.7042
97.6819
97.6651
97.656
97.8159
97.8091
97.7959
97.7772
97.7544
97.7293
97.7042
97.6819
97.6651
97.656
97.8159
97.8091
97.7959
97.7773
97.7544
97.7293
97.7042
97.6819
97.6651
97.656
89.8027
89.7909
89.768
89.7354
89.6953
89.651
89.6063
89.5662
89.5358
89.5193
89.8027
89.7909
89.768
89.7354
89.6953
89.6509
89.6063
89.5662
89.5358
89.5192
89.8026
89.7908
89.768
89.7354
89.6953
89.6509
89.6063
89.5662
89.5357
89.5192
89.8026
89.7908
89.7679
89.7354
89.6953
89.6509
89.6063
89.5662
89.5357
89.5192
89.8026
89.7908
89.7679
89.7353
89.6953
89.6509
89.6062
89.5662
89.5357
89.5192
89.8026
89.7908
89.7679
89.7353
89.6953
89.6509
89.6062
89.5662
89.5357
89.5192
89.8026
89.7908
89.7679
89.7353
89.6953
89.6509
89.6062
89.5662
89.5357
89.5192
89.8026
89.7908
89.7679
89.7354
89.6953
89.6509
89.6063
89.5662
89.5357
89.5192
89.8026
89.7908
89.768
89.7354
89.6953
89.6509
89.6063
89.5662
89.5357
89.5192
89.8026
89.7909
89.768
89.7354
89.6953
89.6509
89.6063
89.5662
89.5358
89.5193
81.9514
81.934
81.9001
81.8515
81.7912
81.7237
81.6549
81.5922
81.544
81.5175
81.9513
81.9339
81.9
81.8514
81.7912
81.7237
81.6549
81.5922
81.5439
81.5175
81.9513
81.9339
81.9
81.8514
81.7912
81.7236
81.6548
81.5922
81.5439
81.5175
81.9513
81.9339
81.9
81.8514
81.7911
81.7236
81.6548
81.5922
81.5439
81.5175
81.9513
81.9339
81.9
81.8514
81.7911
81.7236
81.6548
81.5922
81.5439
81.5175
81.9513
81.9339
81.9
81.8514
81.7911
81.7236
81.6548
81.5922
81.5439
81.5175
81.9513
81.9339
81.9
81.8514
81.7911
81.7236
81.6548
81.5922
81.5439
81.5175
81.9513
81.9339
81.9
81.8514
81.7911
81.7236
81.6548
81.5922
81.5439
81.5175
81.9513
81.9339
81.9
81.8514
81.7912
81.7236
81.6548
81.5922
81.5439
81.5175
81.9513
81.9339
81.9
81.8515
81.7912
81.7237
81.6549
81.5922
81.544
81.5175
74.3226
74.2988
74.2522
74.1848
74.1003
74.004
73.904
73.8111
73.7379
73.6971
74.3225
74.2987
74.2521
74.1848
74.1002
74.004
73.904
73.811
73.7378
73.697
74.3225
74.2987
74.2521
74.1848
74.1002
74.004
73.904
73.811
73.7378
73.697
74.3225
74.2987
74.2521
74.1848
74.1002
74.0039
73.904
73.811
73.7378
73.697
74.3224
74.2987
74.2521
74.1847
74.1002
74.0039
73.9039
73.811
73.7378
73.697
74.3224
74.2987
74.2521
74.1847
74.1002
74.0039
73.9039
73.811
73.7378
73.697
74.3224
74.2987
74.2521
74.1847
74.1002
74.0039
73.904
73.811
73.7378
73.697
74.3225
74.2987
74.2521
74.1848
74.1002
74.0039
73.904
73.811
73.7378
73.697
74.3225
74.2987
74.2521
74.1848
74.1002
74.004
73.904
73.811
73.7378
73.697
74.3225
74.2987
74.2521
74.1848
74.1003
74.004
73.904
73.8111
73.7378
73.6971
66.9727
66.9417
66.8807
66.7914
66.6776
66.5453
66.4042
66.2689
66.1587
66.0955
66.9726
66.9417
66.8806
66.7914
66.6776
66.5453
66.4042
66.2688
66.1587
66.0955
66.9726
66.9416
66.8806
66.7914
66.6776
66.5452
66.4042
66.2688
66.1587
66.0955
66.9726
66.9416
66.8805
66.7913
66.6775
66.5452
66.4041
66.2688
66.1586
66.0955
66.9726
66.9416
66.8805
66.7913
66.6775
66.5452
66.4041
66.2688
66.1586
66.0954
66.9725
66.9416
66.8805
66.7913
66.6775
66.5452
66.4041
66.2688
66.1586
66.0954
66.9726
66.9416
66.8805
66.7913
66.6775
66.5452
66.4041
66.2688
66.1586
66.0955
66.9726
66.9416
66.8806
66.7913
66.6775
66.5452
66.4042
66.2688
66.1587
66.0955
66.9726
66.9416
66.8806
66.7914
66.6776
66.5453
66.4042
66.2688
66.1587
66.0955
66.9726
66.9417
66.8806
66.7914
66.6776
66.5453
66.4042
66.2689
66.1587
66.0955
59.9531
59.9143
59.8373
59.7233
59.5751
59.3981
59.2027
59.0068
58.8391
58.7379
59.953
59.9142
59.8372
59.7232
59.575
59.3981
59.2027
59.0068
58.8391
58.7379
59.953
59.9142
59.8372
59.7232
59.575
59.398
59.2026
59.0068
58.839
58.7378
59.9529
59.9142
59.8372
59.7232
59.575
59.398
59.2026
59.0067
58.839
58.7378
59.9529
59.9142
59.8371
59.7232
59.5749
59.398
59.2026
59.0067
58.839
58.7378
59.9529
59.9141
59.8371
59.7232
59.5749
59.398
59.2026
59.0067
58.839
58.7378
59.9529
59.9142
59.8371
59.7232
59.575
59.398
59.2026
59.0067
58.839
58.7378
59.953
59.9142
59.8372
59.7232
59.575
59.398
59.2026
59.0068
58.839
58.7378
59.953
59.9142
59.8372
59.7232
59.575
59.3981
59.2027
59.0068
58.8391
58.7379
59.953
59.9142
59.8372
59.7233
59.5751
59.3981
59.2027
59.0068
58.8391
58.7379
53.309
53.2622
53.1686
53.0282
52.8415
52.6114
52.3458
52.063
51.8013
51.6286
53.3089
53.2622
53.1686
53.0281
52.8414
52.6113
52.3457
52.063
51.8013
51.6285
53.3089
53.2621
53.1685
53.0281
52.8414
52.6113
52.3457
52.0629
51.8013
51.6285
53.3088
53.2621
53.1685
53.028
52.8413
52.6113
52.3457
52.0629
51.8012
51.6285
53.3088
53.2621
53.1685
53.028
52.8413
52.6113
52.3456
52.0629
51.8012
51.6285
53.3088
53.2621
53.1685
53.028
52.8413
52.6113
52.3456
52.0629
51.8012
51.6285
53.3088
53.2621
53.1685
53.028
52.8413
52.6113
52.3457
52.0629
51.8012
51.6285
53.3088
53.2621
53.1685
53.028
52.8414
52.6113
52.3457
52.0629
51.8013
51.6285
53.3089
53.2621
53.1685
53.0281
52.8414
52.6113
52.3457
52.063
51.8013
51.6286
53.3089
53.2622
53.1686
53.0281
52.8414
52.6114
52.3458
52.063
51.8013
51.6286
47.0785
47.0244
46.9152
46.7491
46.5232
46.2349
45.884
45.4798
45.0599
44.734
47.0784
47.0243
46.9152
46.749
46.5231
46.2348
45.884
45.4797
45.0598
44.734
47.0784
47.0243
46.9151
46.749
46.5231
46.2348
45.8839
45.4797
45.0598
44.734
47.0783
47.0242
46.9151
46.7489
46.523
46.2347
45.8839
45.4797
45.0598
44.7339
47.0783
47.0242
46.9151
46.7489
46.523
46.2347
45.8839
45.4797
45.0597
44.7339
47.0783
47.0242
46.9151
46.7489
46.523
46.2347
45.8839
45.4797
45.0597
44.7339
47.0783
47.0242
46.9151
46.7489
46.523
46.2347
45.8839
45.4797
45.0597
44.7339
47.0783
47.0242
46.9151
46.7489
46.5231
46.2348
45.8839
45.4797
45.0598
44.734
47.0784
47.0243
46.9151
46.749
46.5231
46.2348
45.8839
45.4797
45.0598
44.734
47.0784
47.0243
46.9152
46.749
46.5232
46.2349
45.884
45.4798
45.0599
44.7341
41.2915
41.2317
41.1103
40.9232
40.6637
40.3214
39.8811
39.3237
38.642
37.936
41.2915
41.2317
41.1103
40.9232
40.6637
40.3213
39.881
39.3236
38.6419
37.936
41.2914
41.2316
41.1102
40.9231
40.6636
40.3213
39.8809
39.3236
38.6418
37.9359
41.2914
41.2316
41.1102
40.9231
40.6636
40.3213
39.8809
39.3236
38.6418
37.9359
41.2914
41.2316
41.1102
40.9231
40.6636
40.3212
39.8809
39.3235
38.6418
37.9359
41.2914
41.2316
41.1102
40.9231
40.6636
40.3212
39.8809
39.3235
38.6418
37.9359
41.2914
41.2316
41.1102
40.9231
40.6636
40.3213
39.8809
39.3236
38.6418
37.9359
41.2914
41.2316
41.1102
40.9231
40.6636
40.3213
39.8809
39.3236
38.6418
37.9359
41.2915
41.2317
41.1102
40.9232
40.6637
40.3213
39.881
39.3236
38.6419
37.936
41.2915
41.2317
41.1103
40.9232
40.6637
40.3214
39.881
39.3237
38.6419
37.936
35.9689
35.9061
35.7781
35.5796
35.3009
34.9251
34.4214
33.7274
32.6946
30.8891
35.9689
35.906
35.7781
35.5796
35.3008
34.925
34.4213
33.7274
32.6945
30.889
35.9688
35.906
35.778
35.5795
35.3008
34.9249
34.4213
33.7273
32.6944
30.8889
35.9688
35.906
35.778
35.5795
35.3007
34.9249
34.4212
33.7273
32.6944
30.8889
35.9688
35.9059
35.778
35.5795
35.3007
34.9249
34.4212
33.7273
32.6944
30.8889
35.9688
35.9059
35.778
35.5795
35.3007
34.9249
34.4212
33.7273
32.6944
30.8889
35.9688
35.906
35.778
35.5795
35.3007
34.9249
34.4212
33.7273
32.6944
30.8889
35.9688
35.906
35.778
35.5795
35.3008
34.9249
34.4213
33.7273
32.6944
30.8889
35.9688
35.906
35.7781
35.5795
35.3008
34.925
34.4213
33.7274
32.6945
30.889
35.9689
35.9061
35.7781
35.5796
35.3009
34.925
34.4214
33.7274
32.6946
30.889
31.1212
31.0588
30.9318
30.7348
30.4587
30.0871
29.592
28.9231
27.9908
26.6569
31.1211
31.0587
30.9317
30.7348
30.4586
30.087
29.5919
28.923
27.9907
26.6568
31.1211
31.0587
30.9316
30.7347
30.4586
30.087
29.5919
28.9229
27.9907
26.6567
31.121
31.0586
30.9316
30.7347
30.4585
30.087
29.5918
28.9229
27.9906
26.6567
31.121
31.0586
30.9316
30.7347
30.4585
30.087
29.5918
28.9229
27.9906
26.6567
31.121
31.0586
30.9316
30.7347
30.4585
30.087
29.5918
28.9229
27.9906
26.6567
31.121
31.0586
30.9316
30.7347
30.4585
30.087
29.5918
28.9229
27.9906
26.6567
31.121
31.0587
30.9316
30.7347
30.4586
30.087
29.5919
28.9229
27.9907
26.6567
31.1211
31.0587
30.9317
30.7348
30.4586
30.087
29.5919
28.923
27.9907
26.6568
31.1211
31.0588
30.9317
30.7348
30.4587
30.0871
29.592
28.923
27.9908
26.6568
26.7485
26.69
26.5717
26.3898
26.1382
25.8074
25.3825
24.8436
24.1716
23.3806
26.7484
26.69
26.5716
26.3897
26.1382
25.8073
25.3824
24.8435
24.1715
23.3806
26.7484
26.6899
26.5716
26.3897
26.1381
25.8073
25.3824
24.8435
24.1715
23.3805
26.7483
26.6899
26.5715
26.3896
26.1381
25.8072
25.3823
24.8434
24.1715
23.3805
26.7483
26.6899
26.5715
26.3896
26.1381
25.8072
25.3823
24.8434
24.1714
23.3804
26.7483
26.6899
26.5715
26.3896
26.1381
25.8072
25.3823
24.8434
24.1714
23.3804
26.7483
26.6899
26.5715
26.3896
26.1381
25.8072
25.3823
24.8434
24.1715
23.3805
26.7483
26.6899
26.5716
26.3897
26.1381
25.8073
25.3824
24.8434
24.1715
23.3805
26.7484
26.69
26.5716
26.3897
26.1382
25.8073
25.3824
24.8435
24.1715
23.3806
26.7484
26.69
26.5717
26.3898
26.1382
25.8074
25.3825
24.8436
24.1716
23.3806
22.841
22.7896
22.6862
22.53
22.3195
22.0534
21.7315
21.3588
20.9557
20.5821
22.841
22.7895
22.6861
22.5299
22.3195
22.0534
21.7315
21.3587
20.9556
20.582
22.8409
22.7895
22.6861
22.5299
22.3194
22.0533
21.7314
21.3587
20.9556
20.582
22.8409
22.7894
22.6861
22.5299
22.3194
22.0533
21.7314
21.3586
20.9555
20.5819
22.8409
22.7894
22.6861
22.5298
22.3194
22.0533
21.7314
21.3586
20.9555
20.5819
22.8409
22.7894
22.6861
22.5298
22.3194
22.0533
21.7314
21.3586
20.9555
20.5819
22.8409
22.7894
22.6861
22.5299
22.3194
22.0533
21.7314
21.3586
20.9555
20.5819
22.8409
22.7894
22.6861
22.5299
22.3194
22.0533
21.7314
21.3587
20.9556
20.582
22.8409
22.7895
22.6861
22.5299
22.3195
22.0534
21.7315
21.3587
20.9556
20.582
22.841
22.7895
22.6862
22.53
22.3195
22.0534
21.7315
21.3588
20.9557
20.5821
19.3804
19.3379
19.2536
19.1295
18.9688
18.7778
18.5676
18.3587
18.1879
18.1199
19.3803
19.3378
19.2536
19.1294
18.9687
18.7777
18.5676
18.3587
18.1878
18.1198
19.3803
19.3378
19.2535
19.1294
18.9687
18.7777
18.5675
18.3586
18.1878
18.1198
19.3803
19.3377
19.2535
19.1293
18.9687
18.7777
18.5675
18.3586
18.1877
18.1197
19.3803
19.3377
19.2535
19.1293
18.9687
18.7776
18.5675
18.3586
18.1877
18.1197
19.3803
19.3377
19.2535
19.1293
18.9687
18.7776
18.5675
18.3586
18.1877
18.1197
19.3803
19.3377
19.2535
19.1294
18.9687
18.7777
18.5675
18.3586
18.1877
18.1197
19.3803
19.3378
19.2535
19.1294
18.9687
18.7777
18.5675
18.3586
18.1878
18.1198
19.3803
19.3378
19.2536
19.1294
18.9687
18.7777
18.5676
18.3587
18.1878
18.1198
19.3804
19.3379
19.2536
19.1295
18.9688
18.7778
18.5676
18.3587
18.1879
18.1199
16.3413
16.3085
16.2449
16.1548
16.0455
15.9291
15.8247
15.7615
15.7821
15.9447
16.3412
16.3085
16.2449
16.1547
16.0454
15.929
15.8247
15.7615
15.782
15.9447
16.3412
16.3084
16.2449
16.1547
16.0454
15.929
15.8246
15.7614
15.782
15.9446
16.3412
16.3084
16.2448
16.1547
16.0453
15.929
15.8246
15.7614
15.7819
15.9446
16.3412
16.3084
16.2448
16.1547
16.0453
15.929
15.8246
15.7614
15.7819
15.9446
16.3412
16.3084
16.2448
16.1547
16.0453
15.929
15.8246
15.7614
15.7819
15.9446
16.3412
16.3084
16.2448
16.1547
16.0453
15.929
15.8246
15.7614
15.7819
15.9446
16.3412
16.3084
16.2449
16.1547
16.0454
15.929
15.8246
15.7614
15.782
15.9446
16.3412
16.3085
16.2449
16.1547
16.0454
15.929
15.8247
15.7615
15.782
15.9447
16.3413
16.3085
16.2449
16.1548
16.0455
15.9291
15.8248
15.7616
15.7821
15.9447
13.6936
13.6704
13.6267
13.5686
13.5065
13.4568
13.444
13.5032
13.6812
14.0322
13.6936
13.6703
13.6266
13.5685
13.5065
13.4568
13.4439
13.5032
13.6812
14.0321
13.6935
13.6703
13.6266
13.5685
13.5064
13.4567
13.4439
13.5031
13.6811
14.0321
13.6935
13.6702
13.6265
13.5685
13.5064
13.4567
13.4439
13.5031
13.6811
14.032
13.6935
13.6702
13.6265
13.5685
13.5064
13.4567
13.4439
13.5031
13.6811
14.032
13.6935
13.6702
13.6265
13.5685
13.5064
13.4567
13.4439
13.5031
13.6811
14.032
13.6935
13.6702
13.6265
13.5685
13.5064
13.4567
13.4439
13.5031
13.6811
14.032
13.6935
13.6703
13.6266
13.5685
13.5064
13.4567
13.4439
13.5031
13.6811
14.0321
13.6936
13.6703
13.6266
13.5685
13.5065
13.4568
13.4439
13.5032
13.6812
14.0321
13.6936
13.6703
13.6267
13.5686
13.5065
13.4568
13.444
13.5032
13.6812
14.0322
11.4045
11.3897
11.3632
11.3324
11.3093
11.3129
11.3715
11.5261
11.8326
12.3552
11.4045
11.3896
11.3632
11.3324
11.3093
11.3128
11.3714
11.5261
11.8325
12.3552
11.4045
11.3896
11.3632
11.3324
11.3093
11.3128
11.3714
11.526
11.8325
12.3551
11.4044
11.3896
11.3631
11.3323
11.3092
11.3128
11.3714
11.526
11.8325
12.3551
11.4044
11.3895
11.3631
11.3323
11.3092
11.3128
11.3713
11.526
11.8325
12.3551
11.4044
11.3895
11.3631
11.3323
11.3092
11.3128
11.3713
11.526
11.8325
12.3551
11.4044
11.3896
11.3631
11.3323
11.3092
11.3128
11.3714
11.526
11.8325
12.3551
11.4045
11.3896
11.3632
11.3324
11.3093
11.3128
11.3714
11.526
11.8325
12.3551
11.4045
11.3896
11.3632
11.3324
11.3093
11.3129
11.3714
11.5261
11.8325
12.3552
11.4045
11.3897
11.3632
11.3324
11.3094
11.3129
11.3715
11.5261
11.8326
12.3552
9.44021
9.43201
9.4191
9.40884
9.41367
9.45302
9.55671
9.77076
10.1672
10.8551
9.44017
9.43197
9.41906
9.4088
9.41363
9.45298
9.55666
9.77071
10.1672
10.8551
9.44014
9.43194
9.41903
9.40877
9.41359
9.45294
9.55663
9.77068
10.1671
10.855
9.44012
9.43192
9.41901
9.40875
9.41357
9.45292
9.55661
9.77065
10.1671
10.855
9.44011
9.43191
9.419
9.40874
9.41357
9.45291
9.5566
9.77064
10.1671
10.855
9.44011
9.43191
9.419
9.40874
9.41357
9.45291
9.5566
9.77065
10.1671
10.855
9.44012
9.43192
9.41901
9.40875
9.41358
9.45293
9.55661
9.77066
10.1671
10.855
9.44014
9.43194
9.41903
9.40878
9.4136
9.45295
9.55664
9.77069
10.1671
10.855
9.44017
9.43197
9.41906
9.40881
9.41364
9.45299
9.55668
9.77073
10.1672
10.8551
9.4402
9.43201
9.41911
9.40885
9.41368
9.45304
9.55673
9.77078
10.1672
10.8551
7.76721
7.76379
7.76017
7.76311
7.78376
7.83933
7.95603
8.17626
8.5794
9.35757
7.76718
7.76376
7.76014
7.76307
7.78373
7.83929
7.95599
8.17622
8.57935
9.35752
7.76715
7.76373
7.76011
7.76304
7.7837
7.83926
7.95596
8.17619
8.57932
9.35749
7.76713
7.76371
7.76009
7.76302
7.78368
7.83924
7.95594
8.17617
8.5793
9.35746
7.76713
7.7637
7.76008
7.76302
7.78367
7.83923
7.95593
8.17616
8.57929
9.35745
7.76713
7.7637
7.76009
7.76302
7.78367
7.83923
7.95594
8.17616
8.57929
9.35746
7.76714
7.76371
7.7601
7.76303
7.78369
7.83925
7.95595
8.17618
8.57931
9.35747
7.76715
7.76373
7.76012
7.76305
7.78371
7.83927
7.95597
8.1762
8.57933
9.3575
7.76718
7.76376
7.76014
7.76308
7.78374
7.8393
7.95601
8.17624
8.57937
9.35754
7.76721
7.7638
7.76018
7.76312
7.78378
7.83934
7.95605
8.17629
8.57942
9.3576
26.7673
25.0844
25.0648
26.4553
29.2324
33.5192
39.5849
47.9072
59.348
75.6229
26.7672
25.0843
25.0647
26.4552
29.2323
33.5191
39.5848
47.9071
59.3478
75.6227
26.7671
25.0842
25.0647
26.4551
29.2322
33.519
39.5847
47.907
59.3477
75.6226
26.7671
25.0842
25.0646
26.4551
29.2321
33.5189
39.5846
47.9069
59.3476
75.6225
26.7671
25.0841
25.0646
26.4551
29.2321
33.5189
39.5845
47.9068
59.3476
75.6224
26.7671
25.0841
25.0646
26.455
29.2321
33.5189
39.5845
47.9068
59.3476
75.6224
26.7671
25.0842
25.0646
26.4551
29.2321
33.5189
39.5846
47.9069
59.3476
75.6224
26.7671
25.0842
25.0646
26.4551
29.2321
33.5189
39.5846
47.9069
59.3477
75.6225
26.7672
25.0842
25.0647
26.4552
29.2322
33.519
39.5847
47.907
59.3477
75.6226
26.7672
25.0843
25.0647
26.4552
29.2323
33.5191
39.5848
47.9071
59.3478
75.6227
24.8794
24.0211
24.3053
25.7729
28.4843
32.5638
38.2176
45.7477
55.5457
67.9404
24.8793
24.021
24.3052
25.7728
28.4841
32.5637
38.2174
45.7475
55.5456
67.9402
24.8793
24.0209
24.3051
25.7727
28.484
32.5636
38.2173
45.7474
55.5455
67.9401
24.8792
24.0209
24.305
25.7726
28.484
32.5636
38.2173
45.7473
55.5454
67.94
24.8792
24.0209
24.305
25.7726
28.484
32.5635
38.2172
45.7473
55.5453
67.94
24.8792
24.0209
24.305
25.7726
28.484
32.5635
38.2172
45.7473
55.5453
67.94
24.8792
24.0209
24.305
25.7726
28.484
32.5635
38.2172
45.7473
55.5454
67.94
24.8792
24.0209
24.3051
25.7726
28.484
32.5636
38.2173
45.7474
55.5454
67.9401
24.8793
24.021
24.3051
25.7727
28.4841
32.5637
38.2174
45.7475
55.5455
67.9402
24.8794
24.021
24.3052
25.7728
28.4842
32.5638
38.2175
45.7476
55.5457
67.9403
22.6256
22.4136
23.0091
24.5461
27.124
30.8511
35.8551
42.2689
50.1654
59.3744
22.6255
22.4135
23.009
24.5459
27.1239
30.851
35.8549
42.2687
50.1653
59.3742
22.6254
22.4135
23.009
24.5459
27.1238
30.8509
35.8548
42.2686
50.1652
59.3741
22.6254
22.4134
23.0089
24.5458
27.1238
30.8508
35.8548
42.2685
50.1651
59.374
22.6254
22.4134
23.0089
24.5458
27.1237
30.8508
35.8547
42.2685
50.1651
59.374
22.6254
22.4134
23.0089
24.5458
27.1237
30.8508
35.8547
42.2685
50.1651
59.374
22.6254
22.4134
23.0089
24.5458
27.1238
30.8508
35.8548
42.2685
50.1651
59.374
22.6254
22.4135
23.0089
24.5458
27.1238
30.8508
35.8548
42.2686
50.1652
59.3741
22.6255
22.4135
23.009
24.5459
27.1239
30.8509
35.8549
42.2687
50.1653
59.3742
22.6256
22.4136
23.0091
24.546
27.124
30.851
35.855
42.2688
50.1654
59.3743
20.379
20.5912
21.4108
22.9683
25.3598
28.6651
32.9483
38.237
44.4678
51.3881
20.3789
20.5911
21.4107
22.9682
25.3597
28.665
32.9482
38.2368
44.4677
51.388
20.3788
20.5911
21.4106
22.9681
25.3596
28.6649
32.9481
38.2367
44.4676
51.3878
20.3788
20.591
21.4106
22.9681
25.3596
28.6648
32.9481
38.2367
44.4675
51.3878
20.3788
20.591
21.4106
22.968
25.3595
28.6648
32.948
38.2366
44.4675
51.3877
20.3788
20.591
21.4106
22.968
25.3595
28.6648
32.948
38.2366
44.4675
51.3877
20.3788
20.591
21.4106
22.968
25.3595
28.6648
32.948
38.2367
44.4675
51.3878
20.3788
20.5911
21.4106
22.9681
25.3596
28.6649
32.9481
38.2367
44.4676
51.3878
20.3789
20.5911
21.4107
22.9682
25.3597
28.665
32.9482
38.2368
44.4677
51.3879
20.379
20.5912
21.4108
22.9683
25.3598
28.6651
32.9483
38.2369
44.4678
51.3881
18.2589
18.7439
19.7021
21.2333
23.4115
26.2869
29.8805
34.167
39.0453
44.2992
18.2588
18.7438
19.702
21.2332
23.4114
26.2868
29.8803
34.1669
39.0452
44.2991
18.2588
18.7437
19.7019
21.2331
23.4113
26.2867
29.8803
34.1668
39.0451
44.299
18.2587
18.7437
19.7019
21.2331
23.4113
26.2867
29.8802
34.1667
39.045
44.2989
18.2587
18.7437
19.7018
21.233
23.4113
26.2867
29.8802
34.1667
39.045
44.2988
18.2587
18.7437
19.7018
21.233
23.4113
26.2867
29.8802
34.1667
39.045
44.2988
18.2587
18.7437
19.7019
21.2331
23.4113
26.2867
29.8802
34.1667
39.045
44.2989
18.2588
18.7437
19.7019
21.2331
23.4113
26.2867
29.8802
34.1668
39.0451
44.299
18.2588
18.7438
19.702
21.2332
23.4114
26.2868
29.8803
34.1669
39.0452
44.2991
18.2589
18.7439
19.702
21.2333
23.4115
26.2869
29.8804
34.167
39.0453
44.2992
16.3218
16.9921
18.0331
19.5118
21.4774
23.9552
26.9387
30.3799
34.1763
38.1656
16.3217
16.992
18.033
19.5117
21.4773
23.9551
26.9386
30.3797
34.1762
38.1654
16.3217
16.9919
18.0329
19.5116
21.4773
23.955
26.9385
30.3796
34.1761
38.1653
16.3217
16.9919
18.0329
19.5116
21.4772
23.9549
26.9385
30.3796
34.176
38.1653
16.3216
16.9919
18.0328
19.5116
21.4772
23.9549
26.9385
30.3795
34.176
38.1652
16.3216
16.9919
18.0328
19.5116
21.4772
23.9549
26.9385
30.3795
34.176
38.1652
16.3217
16.9919
18.0329
19.5116
21.4772
23.9549
26.9385
30.3796
34.176
38.1653
16.3217
16.9919
18.0329
19.5116
21.4773
23.955
26.9385
30.3796
34.1761
38.1653
16.3217
16.992
18.033
19.5117
21.4773
23.9551
26.9386
30.3797
34.1762
38.1654
16.3218
16.9921
18.033
19.5118
21.4774
23.9552
26.9387
30.3799
34.1763
38.1656
14.604
15.4219
16.5224
17.9461
19.7228
21.8594
24.3321
27.0801
30.006
32.9872
14.6039
15.4218
16.5223
17.9461
19.7227
21.8593
24.332
27.08
30.0059
32.987
14.6039
15.4217
16.5222
17.946
19.7226
21.8592
24.3319
27.0799
30.0058
32.987
14.6038
15.4217
16.5222
17.9459
19.7226
21.8592
24.3318
27.0799
30.0057
32.9869
14.6038
15.4217
16.5222
17.9459
19.7226
21.8592
24.3318
27.0798
30.0057
32.9869
14.6038
15.4217
16.5222
17.9459
19.7226
21.8592
24.3318
27.0798
30.0057
32.9869
14.6038
15.4217
16.5222
17.9459
19.7226
21.8592
24.3318
27.0799
30.0057
32.9869
14.6039
15.4217
16.5222
17.946
19.7226
21.8593
24.3319
27.0799
30.0058
32.987
14.6039
15.4218
16.5223
17.9461
19.7227
21.8593
24.332
27.08
30.0059
32.9871
14.604
15.4219
16.5224
17.9462
19.7228
21.8594
24.3321
27.0801
30.006
32.9872
13.1337
14.1038
15.2674
16.6527
18.2805
20.1475
22.2167
24.4143
26.6343
28.7636
13.1336
14.1037
15.2673
16.6526
18.2804
20.1474
22.2166
24.4142
26.6342
28.7635
13.1336
14.1037
15.2673
16.6525
18.2804
20.1473
22.2165
24.4141
26.6341
28.7634
13.1335
14.1036
15.2672
16.6525
18.2803
20.1473
22.2165
24.414
26.6341
28.7633
13.1335
14.1036
15.2672
16.6525
18.2803
20.1472
22.2164
24.414
26.6341
28.7633
13.1335
14.1036
15.2672
16.6525
18.2803
20.1472
22.2164
24.414
26.6341
28.7633
13.1335
14.1036
15.2672
16.6525
18.2803
20.1473
22.2165
24.414
26.6341
28.7633
13.1336
14.1037
15.2673
16.6525
18.2804
20.1473
22.2165
24.4141
26.6342
28.7634
13.1336
14.1037
15.2673
16.6526
18.2804
20.1474
22.2166
24.4142
26.6342
28.7635
13.1337
14.1038
15.2674
16.6527
18.2805
20.1475
22.2167
24.4143
26.6344
28.7636
11.9451
13.1097
14.3539
15.7259
17.2545
18.9339
20.7168
22.5099
24.1727
25.5366
11.945
13.1096
14.3538
15.7258
17.2544
18.9338
20.7167
22.5098
24.1726
25.5365
11.945
13.1096
14.3538
15.7257
17.2544
18.9338
20.7167
22.5097
24.1725
25.5364
11.9449
13.1095
14.3537
15.7257
17.2543
18.9337
20.7166
22.5097
24.1724
25.5363
11.9449
13.1095
14.3537
15.7257
17.2543
18.9337
20.7166
22.5096
24.1724
25.5363
11.9449
13.1095
14.3537
15.7257
17.2543
18.9337
20.7166
22.5096
24.1724
25.5363
11.9449
13.1096
14.3537
15.7257
17.2543
18.9337
20.7166
22.5097
24.1725
25.5364
11.945
13.1096
14.3538
15.7257
17.2544
18.9338
20.7167
22.5097
24.1725
25.5364
11.945
13.1097
14.3538
15.7258
17.2544
18.9339
20.7168
22.5098
24.1726
25.5365
11.9451
13.1097
14.3539
15.7259
17.2545
18.934
20.7169
22.5099
24.1727
25.5366
11.1349
12.5384
13.863
15.2396
16.7205
18.3032
19.9336
21.4981
22.8008
23.5052
11.1349
12.5384
13.8629
15.2395
16.7204
18.3031
19.9335
21.498
22.8007
23.5051
11.1348
12.5383
13.8629
15.2395
16.7203
18.303
19.9335
21.4979
22.8007
23.5051
11.1348
12.5383
13.8628
15.2394
16.7203
18.303
19.9334
21.4979
22.8006
23.505
11.1348
12.5383
13.8628
15.2394
16.7203
18.303
19.9334
21.4979
22.8006
23.505
11.1348
12.5383
13.8628
15.2394
16.7203
18.303
19.9334
21.4979
22.8006
23.505
11.1348
12.5383
13.8628
15.2394
16.7203
18.303
19.9334
21.4979
22.8006
23.505
11.1349
12.5383
13.8629
15.2395
16.7204
18.303
19.9335
21.498
22.8007
23.5051
11.1349
12.5384
13.8629
15.2395
16.7204
18.3031
19.9336
21.498
22.8008
23.5052
11.135
12.5385
13.863
15.2396
16.7205
18.3032
19.9337
21.4982
22.8009
23.5053
100.689
112.468
119.584
124.491
128.073
130.729
132.675
134.044
134.917
135.342
100.688
112.468
119.583
124.491
128.073
130.729
132.675
134.044
134.917
135.342
100.688
112.468
119.583
124.491
128.073
130.728
132.675
134.044
134.917
135.342
100.688
112.468
119.583
124.491
128.073
130.728
132.675
134.044
134.917
135.342
100.688
112.468
119.583
124.491
128.073
130.728
132.675
134.044
134.917
135.342
100.688
112.468
119.583
124.491
128.073
130.728
132.675
134.044
134.917
135.342
100.688
112.468
119.583
124.491
128.073
130.728
132.675
134.044
134.917
135.342
100.688
112.468
119.583
124.491
128.073
130.728
132.675
134.044
134.917
135.342
100.688
112.468
119.583
124.491
128.073
130.729
132.675
134.044
134.917
135.342
100.688
112.468
119.583
124.491
128.073
130.729
132.675
134.044
134.917
135.342
82.3078
92.6966
99.965
105.176
108.997
111.817
113.874
115.315
116.23
116.675
82.3076
92.6964
99.9648
105.176
108.996
111.817
113.874
115.314
116.23
116.675
82.3075
92.6963
99.9647
105.176
108.996
111.817
113.874
115.314
116.23
116.675
82.3074
92.6962
99.9646
105.176
108.996
111.817
113.874
115.314
116.23
116.675
82.3074
92.6961
99.9645
105.176
108.996
111.817
113.874
115.314
116.229
116.675
82.3074
92.6961
99.9645
105.176
108.996
111.817
113.874
115.314
116.23
116.675
82.3074
92.6962
99.9646
105.176
108.996
111.817
113.874
115.314
116.23
116.675
82.3075
92.6962
99.9647
105.176
108.996
111.817
113.874
115.314
116.23
116.675
82.3076
92.6964
99.9648
105.176
108.996
111.817
113.874
115.314
116.23
116.675
82.3077
92.6965
99.965
105.176
108.997
111.817
113.874
115.315
116.23
116.675
69.0634
77.2583
83.6628
88.5499
92.2507
95.0283
97.0708
98.5068
99.4216
99.8668
69.0632
77.2581
83.6626
88.5497
92.2505
95.0281
97.0706
98.5066
99.4214
99.8667
69.0631
77.2579
83.6625
88.5496
92.2504
95.028
97.0704
98.5065
99.4213
99.8665
69.063
77.2579
83.6624
88.5495
92.2503
95.0279
97.0703
98.5064
99.4212
99.8665
69.063
77.2578
83.6624
88.5495
92.2502
95.0279
97.0703
98.5064
99.4212
99.8664
69.063
77.2578
83.6624
88.5495
92.2502
95.0279
97.0703
98.5064
99.4212
99.8664
69.063
77.2579
83.6624
88.5495
92.2503
95.0279
97.0704
98.5064
99.4212
99.8665
69.0631
77.2579
83.6625
88.5496
92.2504
95.028
97.0705
98.5065
99.4213
99.8666
69.0632
77.2581
83.6626
88.5498
92.2505
95.0282
97.0706
98.5067
99.4215
99.8668
69.0634
77.2582
83.6628
88.5499
92.2507
95.0284
97.0708
98.5069
99.4217
99.867
58.4345
64.786
70.1007
74.3729
77.7251
80.3002
82.2222
83.5863
84.4603
84.8869
58.4343
64.7858
70.1005
74.3728
77.7249
80.3001
82.222
83.5861
84.4601
84.8868
58.4342
64.7857
70.1004
74.3726
77.7248
80.2999
82.2219
83.586
84.46
84.8867
58.4341
64.7856
70.1003
74.3725
77.7247
80.2998
82.2218
83.5859
84.4599
84.8866
58.4341
64.7855
70.1003
74.3725
77.7247
80.2998
82.2217
83.5859
84.4599
84.8866
58.4341
64.7855
70.1003
74.3725
77.7247
80.2998
82.2217
83.5859
84.4599
84.8866
58.4341
64.7856
70.1003
74.3725
77.7247
80.2999
82.2218
83.586
84.4599
84.8867
58.4342
64.7857
70.1004
74.3726
77.7248
80.3
82.2219
83.5861
84.46
84.8868
58.4343
64.7858
70.1006
74.3728
77.725
80.3001
82.2221
83.5862
84.4602
84.8869
58.4345
64.786
70.1007
74.373
77.7252
80.3003
82.2223
83.5864
84.4604
84.8871
49.5799
54.4807
58.7566
62.3308
65.2253
67.5023
69.2312
70.473
71.2747
71.6678
49.5797
54.4805
58.7564
62.3307
65.2251
67.5022
69.231
70.4728
71.2745
71.6677
49.5796
54.4804
58.7563
62.3305
65.225
67.502
69.2309
70.4727
71.2744
71.6676
49.5795
54.4803
58.7562
62.3305
65.2249
67.502
69.2308
70.4726
71.2744
71.6675
49.5795
54.4803
58.7562
62.3304
65.2249
67.5019
69.2308
70.4726
71.2743
71.6675
49.5795
54.4803
58.7562
62.3304
65.2249
67.5019
69.2308
70.4726
71.2743
71.6675
49.5796
54.4803
58.7563
62.3305
65.225
67.502
69.2308
70.4726
71.2744
71.6676
49.5796
54.4804
58.7563
62.3306
65.2251
67.5021
69.2309
70.4727
71.2745
71.6677
49.5797
54.4805
58.7565
62.3307
65.2252
67.5022
69.2311
70.4729
71.2747
71.6679
49.5799
54.4807
58.7566
62.3309
65.2254
67.5024
69.2313
70.4731
71.2749
71.668
42.1372
45.8782
49.2338
52.1248
54.5313
56.4678
57.9643
59.0531
59.7623
60.1119
42.1371
45.878
49.2336
52.1247
54.5311
56.4676
57.9641
59.053
59.7622
60.1118
42.137
45.8779
49.2335
52.1245
54.531
56.4675
57.964
59.0529
59.7621
60.1117
42.1369
45.8778
49.2334
52.1245
54.5309
56.4674
57.9639
59.0528
59.762
60.1116
42.1369
45.8778
49.2334
52.1244
54.5309
56.4674
57.9639
59.0528
59.762
60.1116
42.1369
45.8778
49.2334
52.1244
54.5309
56.4674
57.9639
59.0528
59.762
60.1116
42.1369
45.8779
49.2334
52.1245
54.5309
56.4675
57.964
59.0528
59.7621
60.1117
42.137
45.8779
49.2335
52.1246
54.531
56.4676
57.9641
59.0529
59.7622
60.1118
42.1371
45.878
49.2336
52.1247
54.5311
56.4677
57.9642
59.0531
59.7623
60.1119
42.1372
45.8782
49.2338
52.1249
54.5313
56.4679
57.9644
59.0533
59.7625
60.1121
35.906
38.6817
41.2326
43.4934
45.4259
47.0168
48.2686
49.1919
49.799
50.0998
35.9058
38.6816
41.2325
43.4932
45.4258
47.0167
48.2685
49.1918
49.7988
50.0997
35.9057
38.6815
41.2324
43.4931
45.4257
47.0166
48.2684
49.1917
49.7987
50.0996
35.9057
38.6814
41.2323
43.4931
45.4256
47.0165
48.2683
49.1916
49.7987
50.0996
35.9056
38.6814
41.2323
43.493
45.4256
47.0165
48.2683
49.1916
49.7987
50.0995
35.9056
38.6814
41.2323
43.493
45.4256
47.0165
48.2683
49.1916
49.7987
50.0996
35.9057
38.6814
41.2323
43.4931
45.4256
47.0165
48.2684
49.1917
49.7987
50.0996
35.9058
38.6815
41.2324
43.4932
45.4257
47.0166
48.2684
49.1918
49.7988
50.0997
35.9059
38.6816
41.2325
43.4933
45.4259
47.0167
48.2686
49.1919
49.799
50.0998
35.906
38.6818
41.2327
43.4934
45.426
47.0169
48.2687
49.1921
49.7991
50.1
30.7453
32.6701
34.5119
36.2082
37.7054
38.9698
39.9843
40.7436
41.2478
41.4991
30.7451
32.6699
34.5117
36.2081
37.7053
38.9696
39.9842