/*--------------------------------*- C++ -*----------------------------------*\
  =========                 |
  \\      /  F ield         | OpenFOAM: The Open Source CFD Toolbox
   \\    /   O peration     | Website:  https://openfoam.org
    \\  /    A nd           | Version:  6
     \\/     M anipulation  |
\*---------------------------------------------------------------------------*/
FoamFile
{
    version     2.0;
    format      ascii;
    class       volScalarField;
    location    "0.91";
    object      T;
}
// * * * * * * * * * * * * * * * * * * * * * * * * * * * * * * * * * * * * * //

dimensions      [0 0 0 1 0 0 0];

internalField   nonuniform List<scalar> 
7000
(
106.641
106.64
106.638
106.635
106.631
106.627
106.623
106.619
106.616
106.615
106.641
106.64
106.638
106.635
106.631
106.627
106.623
106.619
106.616
106.615
106.641
106.64
106.638
106.635
106.631
106.627
106.623
106.619
106.616
106.615
106.641
106.64
106.638
106.635
106.631
106.627
106.623
106.619
106.616
106.615
106.641
106.64
106.638
106.635
106.631
106.627
106.623
106.619
106.616
106.615
106.641
106.64
106.638
106.635
106.631
106.627
106.623
106.619
106.616
106.615
106.641
106.64
106.638
106.635
106.631
106.627
106.623
106.619
106.616
106.615
106.641
106.64
106.638
106.635
106.631
106.627
106.623
106.619
106.616
106.615
106.641
106.64
106.638
106.635
106.631
106.627
106.623
106.619
106.616
106.615
106.641
106.64
106.638
106.635
106.631
106.627
106.623
106.619
106.616
106.615
99.944
99.9405
99.9338
99.9243
99.9128
99.9001
99.8874
99.8762
99.8678
99.8632
99.944
99.9405
99.9338
99.9243
99.9127
99.9001
99.8874
99.8762
99.8678
99.8632
99.944
99.9405
99.9338
99.9243
99.9127
99.9001
99.8874
99.8762
99.8678
99.8632
99.9439
99.9405
99.9338
99.9243
99.9127
99.9
99.8874
99.8762
99.8678
99.8632
99.9439
99.9405
99.9338
99.9243
99.9127
99.9
99.8874
99.8762
99.8678
99.8632
99.9439
99.9405
99.9338
99.9243
99.9127
99.9
99.8874
99.8762
99.8678
99.8632
99.9439
99.9405
99.9338
99.9243
99.9127
99.9
99.8874
99.8762
99.8678
99.8632
99.9439
99.9405
99.9338
99.9243
99.9127
99.9
99.8874
99.8762
99.8678
99.8632
99.9439
99.9405
99.9338
99.9243
99.9127
99.9001
99.8874
99.8762
99.8678
99.8632
99.944
99.9405
99.9338
99.9243
99.9127
99.9001
99.8874
99.8762
99.8678
99.8632
93.3062
93.3003
93.289
93.2729
93.2531
93.2313
93.2094
93.1898
93.1749
93.1668
93.3062
93.3003
93.289
93.2729
93.2531
93.2313
93.2094
93.1898
93.1748
93.1668
93.3061
93.3003
93.289
93.2729
93.2531
93.2313
93.2094
93.1897
93.1748
93.1667
93.3061
93.3003
93.289
93.2729
93.2531
93.2313
93.2094
93.1897
93.1748
93.1667
93.3061
93.3003
93.289
93.2728
93.2531
93.2313
93.2094
93.1897
93.1748
93.1667
93.3061
93.3003
93.2889
93.2728
93.2531
93.2313
93.2094
93.1897
93.1748
93.1667
93.3061
93.3003
93.289
93.2728
93.2531
93.2313
93.2094
93.1897
93.1748
93.1667
93.3061
93.3003
93.289
93.2729
93.2531
93.2313
93.2094
93.1897
93.1748
93.1667
93.3061
93.3003
93.289
93.2729
93.2531
93.2313
93.2094
93.1897
93.1748
93.1668
93.3061
93.3003
93.289
93.2729
93.2531
93.2313
93.2094
93.1898
93.1748
93.1668
86.767
86.7587
86.7425
86.7195
86.6909
86.6589
86.6264
86.5968
86.574
86.5615
86.767
86.7587
86.7425
86.7194
86.6909
86.6589
86.6264
86.5968
86.5739
86.5615
86.7669
86.7586
86.7425
86.7194
86.6908
86.6589
86.6263
86.5967
86.5739
86.5614
86.7669
86.7586
86.7425
86.7194
86.6908
86.6589
86.6263
86.5967
86.5739
86.5614
86.7669
86.7586
86.7425
86.7194
86.6908
86.6589
86.6263
86.5967
86.5739
86.5614
86.7669
86.7586
86.7425
86.7194
86.6908
86.6589
86.6263
86.5967
86.5739
86.5614
86.7669
86.7586
86.7425
86.7194
86.6908
86.6589
86.6263
86.5967
86.5739
86.5614
86.7669
86.7586
86.7425
86.7194
86.6908
86.6589
86.6263
86.5967
86.5739
86.5614
86.7669
86.7586
86.7425
86.7194
86.6908
86.6589
86.6264
86.5968
86.5739
86.5614
86.7669
86.7587
86.7425
86.7194
86.6909
86.6589
86.6264
86.5968
86.574
86.5615
80.3643
80.3535
80.3325
80.3021
80.264
80.2207
80.1756
80.1336
80.1004
80.0819
80.3643
80.3535
80.3325
80.3021
80.264
80.2207
80.1756
80.1336
80.1004
80.0819
80.3643
80.3535
80.3325
80.3021
80.264
80.2206
80.1756
80.1336
80.1004
80.0819
80.3642
80.3535
80.3324
80.3021
80.264
80.2206
80.1756
80.1336
80.1004
80.0819
80.3642
80.3535
80.3324
80.3021
80.264
80.2206
80.1756
80.1335
80.1004
80.0819
80.3642
80.3535
80.3324
80.3021
80.264
80.2206
80.1755
80.1335
80.1004
80.0819
80.3642
80.3535
80.3324
80.3021
80.264
80.2206
80.1756
80.1335
80.1004
80.0819
80.3642
80.3535
80.3324
80.3021
80.264
80.2206
80.1756
80.1336
80.1004
80.0819
80.3643
80.3535
80.3325
80.3021
80.264
80.2206
80.1756
80.1336
80.1004
80.0819
80.3643
80.3535
80.3325
80.3021
80.264
80.2207
80.1756
80.1336
80.1004
80.0819
74.1345
74.1214
74.0957
74.058
74.01
73.9539
73.8939
73.8358
73.7881
73.7605
74.1345
74.1214
74.0956
74.058
74.0099
73.9539
73.8938
73.8358
73.7881
73.7605
74.1344
74.1214
74.0956
74.058
74.0099
73.9539
73.8938
73.8357
73.7881
73.7605
74.1344
74.1213
74.0956
74.0579
74.0099
73.9539
73.8938
73.8357
73.788
73.7605
74.1344
74.1213
74.0956
74.0579
74.0099
73.9538
73.8938
73.8357
73.788
73.7605
74.1344
74.1213
74.0956
74.0579
74.0099
73.9538
73.8938
73.8357
73.788
73.7605
74.1344
74.1213
74.0956
74.0579
74.0099
73.9538
73.8938
73.8357
73.788
73.7605
74.1344
74.1213
74.0956
74.058
74.0099
73.9539
73.8938
73.8357
73.7881
73.7605
74.1344
74.1214
74.0956
74.058
74.0099
73.9539
73.8938
73.8357
73.7881
73.7605
74.1345
74.1214
74.0956
74.058
74.0099
73.9539
73.8938
73.8358
73.7881
73.7605
68.1117
68.0967
68.067
68.0228
67.9652
67.8957
67.8179
67.7384
67.669
67.6263
68.1117
68.0967
68.067
68.0228
67.9651
67.8956
67.8178
67.7384
67.669
67.6263
68.1117
68.0967
68.0669
68.0228
67.9651
67.8956
67.8178
67.7384
67.6689
67.6262
68.1116
68.0967
68.0669
68.0228
67.9651
67.8956
67.8178
67.7384
67.6689
67.6262
68.1116
68.0967
68.0669
68.0227
67.9651
67.8956
67.8178
67.7383
67.6689
67.6262
68.1116
68.0966
68.0669
68.0227
67.9651
67.8956
67.8178
67.7383
67.6689
67.6262
68.1116
68.0967
68.0669
68.0227
67.9651
67.8956
67.8178
67.7383
67.6689
67.6262
68.1116
68.0967
68.0669
68.0228
67.9651
67.8956
67.8178
67.7384
67.6689
67.6262
68.1117
68.0967
68.0669
68.0228
67.9651
67.8956
67.8178
67.7384
67.669
67.6262
68.1117
68.0967
68.067
68.0228
67.9651
67.8956
67.8178
67.7384
67.669
67.6263
62.3273
62.3113
62.2791
62.2306
62.1652
62.0831
61.9855
61.8777
61.7735
61.7018
62.3273
62.3113
62.2791
62.2305
62.1652
62.083
61.9855
61.8776
61.7735
61.7018
62.3273
62.3112
62.2791
62.2305
62.1651
62.083
61.9854
61.8776
61.7734
61.7017
62.3272
62.3112
62.279
62.2305
62.1651
62.083
61.9854
61.8776
61.7734
61.7017
62.3272
62.3112
62.279
62.2304
62.1651
62.083
61.9854
61.8776
61.7734
61.7017
62.3272
62.3112
62.279
62.2304
62.1651
62.083
61.9854
61.8776
61.7734
61.7017
62.3272
62.3112
62.279
62.2304
62.1651
62.083
61.9854
61.8776
61.7734
61.7017
62.3272
62.3112
62.2791
62.2305
62.1651
62.083
61.9854
61.8776
61.7734
61.7017
62.3273
62.3112
62.2791
62.2305
62.1651
62.083
61.9854
61.8776
61.7734
61.7018
62.3273
62.3113
62.2791
62.2305
62.1652
62.0831
61.9855
61.8776
61.7735
61.7018
56.809
56.7933
56.7616
56.7126
56.6445
56.5542
56.4381
56.2945
56.1326
55.9964
56.809
56.7933
56.7615
56.7126
56.6445
56.5542
56.4381
56.2945
56.1326
55.9963
56.8089
56.7933
56.7615
56.7126
56.6444
56.5541
56.438
56.2944
56.1326
55.9963
56.8089
56.7932
56.7615
56.7125
56.6444
56.5541
56.438
56.2944
56.1325
55.9963
56.8089
56.7932
56.7615
56.7125
56.6444
56.5541
56.438
56.2944
56.1325
55.9962
56.8089
56.7932
56.7615
56.7125
56.6444
56.5541
56.438
56.2944
56.1325
55.9962
56.8089
56.7932
56.7615
56.7125
56.6444
56.5541
56.438
56.2944
56.1325
55.9963
56.8089
56.7933
56.7615
56.7125
56.6444
56.5541
56.438
56.2944
56.1326
55.9963
56.8089
56.7933
56.7615
56.7126
56.6445
56.5542
56.4381
56.2945
56.1326
55.9963
56.809
56.7933
56.7616
56.7126
56.6445
56.5542
56.4381
56.2945
56.1326
55.9964
51.5799
51.5666
51.5395
51.4968
51.4351
51.3478
51.2237
51.0447
50.7904
50.4855
51.5798
51.5666
51.5395
51.4968
51.435
51.3478
51.2237
51.0446
50.7904
50.4855
51.5798
51.5665
51.5394
51.4967
51.435
51.3478
51.2236
51.0446
50.7904
50.4854
51.5798
51.5665
51.5394
51.4967
51.435
51.3477
51.2236
51.0446
50.7903
50.4854
51.5797
51.5665
51.5394
51.4967
51.435
51.3477
51.2236
51.0445
50.7903
50.4854
51.5797
51.5665
51.5394
51.4967
51.435
51.3477
51.2236
51.0445
50.7903
50.4854
51.5797
51.5665
51.5394
51.4967
51.435
51.3477
51.2236
51.0446
50.7903
50.4854
51.5798
51.5665
51.5394
51.4967
51.435
51.3477
51.2236
51.0446
50.7903
50.4854
51.5798
51.5665
51.5394
51.4967
51.435
51.3478
51.2237
51.0446
50.7904
50.4854
51.5798
51.5666
51.5395
51.4968
51.4351
51.3478
51.2237
51.0447
50.7904
50.4855
46.6575
46.6492
46.6322
46.6049
46.5636
46.5004
46.3979
46.2171
45.861
45.0455
46.6575
46.6492
46.6321
46.6048
46.5635
46.5003
46.3978
46.2171
45.861
45.0454
46.6574
46.6492
46.6321
46.6048
46.5635
46.5003
46.3978
46.217
45.8609
45.0454
46.6574
46.6491
46.6321
46.6047
46.5635
46.5003
46.3978
46.217
45.8609
45.0453
46.6574
46.6491
46.6321
46.6047
46.5635
46.5002
46.3977
46.217
45.8609
45.0453
46.6574
46.6491
46.6321
46.6047
46.5634
46.5002
46.3977
46.217
45.8609
45.0453
46.6574
46.6491
46.6321
46.6047
46.5635
46.5002
46.3978
46.217
45.8609
45.0453
46.6574
46.6491
46.6321
46.6048
46.5635
46.5003
46.3978
46.217
45.8609
45.0454
46.6574
46.6492
46.6321
46.6048
46.5635
46.5003
46.3978
46.2171
45.861
45.0454
46.6575
46.6492
46.6322
46.6048
46.5636
46.5004
46.3979
46.2171
45.861
45.0455
42.0534
42.0528
42.0517
42.0499
42.046
42.0357
42.0083
41.941
41.7903
41.4947
42.0533
42.0527
42.0516
42.0498
42.046
42.0357
42.0082
41.9409
41.7903
41.4946
42.0533
42.0527
42.0516
42.0498
42.0459
42.0356
42.0082
41.9409
41.7902
41.4945
42.0533
42.0527
42.0515
42.0498
42.0459
42.0356
42.0082
41.9408
41.7902
41.4945
42.0533
42.0526
42.0515
42.0497
42.0459
42.0356
42.0081
41.9408
41.7902
41.4945
42.0533
42.0526
42.0515
42.0497
42.0459
42.0356
42.0081
41.9408
41.7902
41.4945
42.0533
42.0526
42.0515
42.0498
42.0459
42.0356
42.0082
41.9408
41.7902
41.4945
42.0533
42.0527
42.0516
42.0498
42.0459
42.0356
42.0082
41.9408
41.7902
41.4945
42.0533
42.0527
42.0516
42.0498
42.046
42.0356
42.0082
41.9409
41.7902
41.4946
42.0534
42.0527
42.0516
42.0499
42.046
42.0357
42.0083
41.9409
41.7903
41.4946
37.7724
37.7817
37.8015
37.8341
37.8822
37.9486
38.0357
38.1461
38.2892
38.5076
37.7723
37.7816
37.8015
37.8341
37.8822
37.9486
38.0356
38.146
38.2891
38.5076
37.7723
37.7816
37.8015
37.834
37.8821
37.9485
38.0356
38.1459
38.289
38.5075
37.7723
37.7816
37.8014
37.834
37.8821
37.9485
38.0356
38.1459
38.289
38.5075
37.7722
37.7815
37.8014
37.834
37.8821
37.9485
38.0356
38.1459
38.289
38.5074
37.7722
37.7815
37.8014
37.834
37.8821
37.9485
38.0356
38.1459
38.289
38.5074
37.7722
37.7816
37.8014
37.834
37.8821
37.9485
38.0356
38.1459
38.289
38.5075
37.7723
37.7816
37.8014
37.834
37.8821
37.9485
38.0356
38.1459
38.289
38.5075
37.7723
37.7816
37.8015
37.8341
37.8822
37.9486
38.0356
38.146
38.2891
38.5075
37.7723
37.7816
37.8015
37.8341
37.8822
37.9486
38.0357
38.146
38.2891
38.5076
33.8131
33.8338
33.8777
33.9499
34.0581
34.2133
34.4302
34.7311
35.1526
35.7632
33.813
33.8337
33.8776
33.9498
34.0581
34.2132
34.4302
34.731
35.1526
35.7631
33.813
33.8337
33.8776
33.9498
34.058
34.2132
34.4301
34.731
35.1525
35.763
33.813
33.8336
33.8776
33.9498
34.058
34.2131
34.4301
34.731
35.1525
35.763
33.8129
33.8336
33.8775
33.9497
34.058
34.2131
34.4301
34.7309
35.1525
35.763
33.8129
33.8336
33.8775
33.9497
34.058
34.2131
34.4301
34.7309
35.1525
35.763
33.813
33.8336
33.8775
33.9498
34.058
34.2131
34.4301
34.731
35.1525
35.763
33.813
33.8336
33.8776
33.9498
34.058
34.2131
34.4301
34.731
35.1525
35.763
33.813
33.8337
33.8776
33.9498
34.0581
34.2132
34.4301
34.731
35.1526
35.7631
33.813
33.8337
33.8776
33.9499
34.0581
34.2132
34.4302
34.7311
35.1526
35.7631
30.1689
30.2011
30.2696
30.3822
30.5514
30.7952
31.1388
31.6164
32.2755
33.1818
30.1688
30.2011
30.2695
30.3821
30.5513
30.7952
31.1388
31.6164
32.2754
33.1818
30.1688
30.2011
30.2695
30.3821
30.5513
30.7951
31.1387
31.6163
32.2754
33.1817
30.1688
30.201
30.2695
30.382
30.5512
30.7951
31.1387
31.6163
32.2753
33.1817
30.1687
30.201
30.2695
30.382
30.5512
30.7951
31.1387
31.6163
32.2753
33.1817
30.1687
30.201
30.2695
30.382
30.5512
30.7951
31.1387
31.6163
32.2753
33.1817
30.1687
30.201
30.2695
30.382
30.5512
30.7951
31.1387
31.6163
32.2753
33.1817
30.1688
30.201
30.2695
30.3821
30.5512
30.7951
31.1387
31.6163
32.2754
33.1817
30.1688
30.2011
30.2695
30.3821
30.5513
30.7952
31.1388
31.6164
32.2754
33.1818
30.1688
30.2011
30.2696
30.3821
30.5513
30.7952
31.1388
31.6164
32.2755
33.1818
26.8291
26.8719
26.9627
27.1117
27.3357
27.6588
28.1138
28.7438
29.6018
30.7463
26.829
26.8719
26.9626
27.1117
27.3357
27.6587
28.1137
28.7437
29.6017
30.7462
26.829
26.8718
26.9626
27.1116
27.3356
27.6587
28.1136
28.7437
29.6017
30.7462
26.829
26.8718
26.9626
27.1116
27.3356
27.6586
28.1136
28.7437
29.6017
30.7462
26.829
26.8718
26.9625
27.1116
27.3356
27.6586
28.1136
28.7437
29.6016
30.7461
26.829
26.8718
26.9625
27.1116
27.3356
27.6586
28.1136
28.7436
29.6016
30.7461
26.829
26.8718
26.9626
27.1116
27.3356
27.6586
28.1136
28.7437
29.6017
30.7462
26.829
26.8718
26.9626
27.1116
27.3356
27.6587
28.1136
28.7437
29.6017
30.7462
26.829
26.8719
26.9626
27.1117
27.3357
27.6587
28.1137
28.7437
29.6017
30.7462
26.8291
26.8719
26.9627
27.1117
27.3357
27.6588
28.1137
28.7438
29.6018
30.7463
23.7806
23.8318
23.9401
24.1178
24.3844
24.769
25.3115
26.0642
27.0899
28.4487
23.7805
23.8317
23.9401
24.1177
24.3844
24.7689
25.3114
26.0642
27.0898
28.4487
23.7805
23.8317
23.94
24.1177
24.3843
24.7689
25.3114
26.0641
27.0897
28.4486
23.7805
23.8317
23.94
24.1176
24.3843
24.7689
25.3113
26.0641
27.0897
28.4486
23.7805
23.8317
23.94
24.1176
24.3843
24.7689
25.3113
26.0641
27.0897
28.4486
23.7804
23.8317
23.94
24.1176
24.3843
24.7689
25.3113
26.0641
27.0897
28.4486
23.7805
23.8317
23.94
24.1176
24.3843
24.7689
25.3113
26.0641
27.0897
28.4486
23.7805
23.8317
23.94
24.1177
24.3843
24.7689
25.3113
26.0641
27.0897
28.4486
23.7805
23.8317
23.9401
24.1177
24.3844
24.7689
25.3114
26.0642
27.0898
28.4487
23.7805
23.8318
23.9401
24.1178
24.3844
24.769
25.3114
26.0642
27.0898
28.4487
21.0091
21.0656
21.1849
21.38
21.6721
22.0933
22.6896
23.5255
24.6856
26.2615
21.0091
21.0656
21.1848
21.3799
21.6721
22.0932
22.6895
23.5254
24.6856
26.2614
21.0091
21.0656
21.1848
21.3799
21.672
22.0932
22.6895
23.5254
24.6855
26.2614
21.009
21.0655
21.1848
21.3798
21.672
22.0932
22.6895
23.5253
24.6855
26.2613
21.009
21.0655
21.1848
21.3798
21.672
22.0932
22.6895
23.5253
24.6855
26.2613
21.009
21.0655
21.1848
21.3798
21.672
22.0932
22.6895
23.5253
24.6855
26.2613
21.009
21.0655
21.1848
21.3798
21.672
22.0932
22.6895
23.5253
24.6855
26.2613
21.009
21.0655
21.1848
21.3799
21.672
22.0932
22.6895
23.5254
24.6855
26.2614
21.0091
21.0656
21.1848
21.3799
21.6721
22.0932
22.6895
23.5254
24.6856
26.2614
21.0091
21.0656
21.1849
21.3799
21.6721
22.0933
22.6896
23.5255
24.6856
26.2615
18.5009
18.5591
18.6816
18.8808
19.1777
19.6038
20.2075
21.0641
22.2945
24.0887
18.5008
18.559
18.6815
18.8808
19.1776
19.6037
20.2075
21.064
22.2945
24.0886
18.5008
18.559
18.6815
18.8807
19.1776
19.6037
20.2074
21.064
22.2944
24.0886
18.5008
18.559
18.6814
18.8807
19.1775
19.6037
20.2074
21.064
22.2944
24.0885
18.5008
18.559
18.6814
18.8807
19.1775
19.6037
20.2074
21.0639
22.2944
24.0885
18.5007
18.559
18.6814
18.8807
19.1775
19.6037
20.2074
21.0639
22.2944
24.0885
18.5008
18.559
18.6814
18.8807
19.1775
19.6037
20.2074
21.064
22.2944
24.0886
18.5008
18.559
18.6815
18.8807
19.1776
19.6037
20.2074
21.064
22.2944
24.0886
18.5008
18.559
18.6815
18.8808
19.1776
19.6037
20.2075
21.064
22.2945
24.0886
18.5008
18.5591
18.6815
18.8808
19.1777
19.6038
20.2075
21.0641
22.2945
24.0887
16.2431
16.2995
16.4175
16.6078
16.8878
17.2838
17.8365
18.6135
19.7508
21.606
16.2431
16.2995
16.4175
16.6078
16.8877
17.2838
17.8365
18.6135
19.7507
21.606
16.243
16.2995
16.4175
16.6077
16.8877
17.2838
17.8364
18.6134
19.7507
21.6059
16.243
16.2994
16.4174
16.6077
16.8877
17.2837
17.8364
18.6134
19.7506
21.6059
16.243
16.2994
16.4174
16.6077
16.8877
17.2837
17.8364
18.6134
19.7506
21.6059
16.243
16.2994
16.4174
16.6077
16.8877
17.2837
17.8364
18.6134
19.7506
21.6059
16.243
16.2994
16.4174
16.6077
16.8877
17.2837
17.8364
18.6134
19.7506
21.6059
16.243
16.2994
16.4174
16.6077
16.8877
17.2838
17.8365
18.6134
19.7507
21.6059
16.2431
16.2995
16.4175
16.6078
16.8877
17.2838
17.8365
18.6135
19.7507
21.606
16.2431
16.2995
16.4175
16.6078
16.8878
17.2839
17.8365
18.6135
19.7508
21.606
42.7733
42.6745
44.1391
46.9749
51.1788
56.8753
64.3233
73.9818
86.6854
104.11
42.7732
42.6745
44.139
46.9748
51.1786
56.8751
64.3232
73.9817
86.6853
104.11
42.7732
42.6744
44.139
46.9747
51.1786
56.8751
64.3231
73.9816
86.6852
104.11
42.7731
42.6744
44.1389
46.9747
51.1785
56.875
64.323
73.9816
86.6851
104.11
42.7731
42.6743
44.1389
46.9746
51.1785
56.875
64.323
73.9816
86.6851
104.11
42.7731
42.6743
44.1389
46.9746
51.1785
56.875
64.323
73.9815
86.6851
104.11
42.7731
42.6743
44.1389
46.9746
51.1785
56.875
64.323
73.9816
86.6851
104.11
42.7731
42.6744
44.1389
46.9747
51.1785
56.875
64.323
73.9816
86.6852
104.11
42.7732
42.6744
44.139
46.9747
51.1786
56.8751
64.3231
73.9817
86.6852
104.11
42.7732
42.6745
44.1391
46.9748
51.1787
56.8752
64.3232
73.9817
86.6853
104.11
41.0942
41.6558
43.357
46.2362
50.3529
55.8245
62.8438
71.6939
82.7413
96.283
41.0941
41.6557
43.3569
46.2361
50.3528
55.8244
62.8437
71.6937
82.7411
96.2829
41.094
41.6556
43.3568
46.2361
50.3527
55.8243
62.8436
71.6937
82.7411
96.2828
41.094
41.6556
43.3568
46.236
50.3526
55.8242
62.8435
71.6936
82.741
96.2828
41.094
41.6556
43.3567
46.236
50.3526
55.8242
62.8435
71.6936
82.741
96.2827
41.0939
41.6556
43.3567
46.236
50.3526
55.8242
62.8435
71.6936
82.741
96.2827
41.094
41.6556
43.3567
46.236
50.3526
55.8242
62.8435
71.6936
82.741
96.2828
41.094
41.6556
43.3568
46.236
50.3527
55.8242
62.8435
71.6936
82.741
96.2828
41.094
41.6557
43.3568
46.2361
50.3527
55.8243
62.8436
71.6937
82.7411
96.2829
41.0941
41.6557
43.3569
46.2362
50.3528
55.8244
62.8437
71.6938
82.7412
96.283
38.9566
40.0456
41.9869
44.8899
48.8385
53.9261
60.264
67.9654
77.0811
87.4167
38.9566
40.0455
41.9868
44.8898
48.8384
53.926
60.2639
67.9653
77.081
87.4166
38.9565
40.0454
41.9867
44.8897
48.8383
53.9259
60.2638
67.9652
77.0809
87.4165
38.9565
40.0454
41.9867
44.8896
48.8383
53.9259
60.2637
67.9651
77.0809
87.4165
38.9564
40.0454
41.9867
44.8896
48.8382
53.9259
60.2637
67.9651
77.0808
87.4164
38.9564
40.0454
41.9867
44.8896
48.8382
53.9259
60.2637
67.9651
77.0808
87.4164
38.9565
40.0454
41.9867
44.8896
48.8383
53.9259
60.2637
67.9651
77.0809
87.4164
38.9565
40.0454
41.9867
44.8897
48.8383
53.9259
60.2638
67.9652
77.0809
87.4165
38.9565
40.0455
41.9868
44.8897
48.8384
53.926
60.2638
67.9652
77.081
87.4166
38.9566
40.0455
41.9868
44.8898
48.8385
53.9261
60.2639
67.9653
77.0811
87.4167
36.6908
38.1346
40.2464
43.1271
46.8504
51.4762
57.0495
63.5781
70.9794
78.9824
36.6907
38.1345
40.2463
43.127
46.8503
51.4761
57.0494
63.578
70.9793
78.9823
36.6906
38.1345
40.2462
43.1269
46.8502
51.4761
57.0493
63.5779
70.9792
78.9822
36.6906
38.1344
40.2461
43.1269
46.8502
51.476
57.0493
63.5779
70.9792
78.9822
36.6906
38.1344
40.2461
43.1268
46.8501
51.476
57.0493
63.5779
70.9791
78.9821
36.6906
38.1344
40.2461
43.1268
46.8501
51.476
57.0493
63.5779
70.9791
78.9821
36.6906
38.1344
40.2461
43.1269
46.8501
51.476
57.0493
63.5779
70.9791
78.9822
36.6906
38.1345
40.2462
43.1269
46.8502
51.476
57.0493
63.5779
70.9792
78.9822
36.6907
38.1345
40.2462
43.127
46.8503
51.4761
57.0494
63.578
70.9793
78.9823
36.6907
38.1346
40.2463
43.1271
46.8504
51.4762
57.0495
63.5781
70.9794
78.9824
34.4244
36.1091
38.3279
41.1498
44.623
48.775
53.606
59.0712
65.0521
71.3196
34.4243
36.1091
38.3278
41.1497
44.6229
48.7749
53.6059
59.0711
65.052
71.3195
34.4243
36.109
38.3277
41.1496
44.6228
48.7749
53.6058
59.071
65.0519
71.3194
34.4242
36.109
38.3277
41.1496
44.6228
48.7748
53.6057
59.0709
65.0519
71.3193
34.4242
36.1089
38.3277
41.1495
44.6227
48.7748
53.6057
59.0709
65.0518
71.3193
34.4242
36.1089
38.3277
41.1495
44.6227
48.7748
53.6057
59.0709
65.0518
71.3193
34.4242
36.1089
38.3277
41.1496
44.6228
48.7748
53.6057
59.0709
65.0518
71.3193
34.4243
36.109
38.3277
41.1496
44.6228
48.7749
53.6058
59.071
65.0519
71.3194
34.4243
36.109
38.3278
41.1497
44.6229
48.7749
53.6059
59.0711
65.052
71.3195
34.4244
36.1091
38.3279
41.1498
44.623
48.775
53.606
59.0712
65.0521
71.3196
32.2323
34.1024
36.3958
39.1468
42.377
46.0877
50.2505
54.7974
59.6102
64.5176
32.2322
34.1023
36.3957
39.1467
42.3769
46.0876
50.2504
54.7973
59.6101
64.5175
32.2322
34.1022
36.3957
39.1466
42.3768
46.0875
50.2503
54.7972
59.61
64.5174
32.2321
34.1022
36.3956
39.1466
42.3768
46.0874
50.2503
54.7971
59.6099
64.5174
32.2321
34.1022
36.3956
39.1466
42.3768
46.0874
50.2502
54.7971
59.6099
64.5174
32.2321
34.1022
36.3956
39.1466
42.3768
46.0874
50.2502
54.7971
59.6099
64.5174
32.2321
34.1022
36.3956
39.1466
42.3768
46.0874
50.2503
54.7971
59.6099
64.5174
32.2322
34.1022
36.3957
39.1466
42.3768
46.0875
50.2503
54.7972
59.61
64.5174
32.2322
34.1023
36.3957
39.1467
42.3769
46.0876
50.2504
54.7973
59.6101
64.5175
32.2323
34.1024
36.3958
39.1468
42.377
46.0877
50.2505
54.7974
59.6102
64.5177
30.1699
32.222
34.5927
37.2869
40.3071
43.6366
47.2286
51.0011
54.8395
58.615
30.1698
32.2219
34.5926
37.2868
40.307
43.6365
47.2285
51.001
54.8394
58.6148
30.1698
32.2219
34.5925
37.2867
40.3069
43.6364
47.2284
51.0009
54.8393
58.6148
30.1697
32.2218
34.5925
37.2867
40.3069
43.6364
47.2284
51.0009
54.8393
58.6147
30.1697
32.2218
34.5924
37.2866
40.3069
43.6363
47.2283
51.0008
54.8392
58.6147
30.1697
32.2218
34.5924
37.2866
40.3069
43.6363
47.2283
51.0008
54.8392
58.6147
30.1697
32.2218
34.5925
37.2867
40.3069
43.6364
47.2284
51.0009
54.8393
58.6147
30.1698
32.2219
34.5925
37.2867
40.3069
43.6364
47.2284
51.0009
54.8393
58.6148
30.1698
32.2219
34.5926
37.2868
40.307
43.6365
47.2285
51.001
54.8394
58.6148
30.1699
32.222
34.5927
37.2869
40.3071
43.6366
47.2286
51.0011
54.8395
58.615
28.2844
30.5681
33.048
35.7191
38.5803
41.6069
44.7386
47.8762
50.8904
53.6568
28.2844
30.568
33.0479
35.719
38.5802
41.6068
44.7385
47.8761
50.8903
53.6567
28.2843
30.568
33.0478
35.719
38.5801
41.6067
44.7384
47.876
50.8902
53.6566
28.2843
30.5679
33.0478
35.7189
38.5801
41.6067
44.7384
47.876
50.8902
53.6565
28.2843
30.5679
33.0478
35.7189
38.5801
41.6066
44.7384
47.876
50.8902
53.6565
28.2843
30.5679
33.0478
35.7189
38.5801
41.6066
44.7384
47.876
50.8902
53.6565
28.2843
30.5679
33.0478
35.7189
38.5801
41.6067
44.7384
47.876
50.8902
53.6565
28.2843
30.568
33.0479
35.719
38.5801
41.6067
44.7384
47.8761
50.8903
53.6566
28.2844
30.568
33.0479
35.719
38.5802
41.6068
44.7385
47.8761
50.8903
53.6567
28.2844
30.5681
33.048
35.7191
38.5803
41.6069
44.7386
47.8762
50.8904
53.6568
26.6376
29.2566
31.8893
34.5753
37.3363
40.1516
42.9501
45.606
47.94
49.7461
26.6376
29.2565
31.8892
34.5752
37.3362
40.1515
42.95
45.6059
47.9399
49.746
26.6375
29.2564
31.8891
34.5751
37.3362
40.1515
42.9499
45.6058
47.9398
49.7459
26.6375
29.2564
31.8891
34.5751
37.3361
40.1514
42.9499
45.6058
47.9397
49.7459
26.6375
29.2564
31.8891
34.5751
37.3361
40.1514
42.9498
45.6058
47.9397
49.7459
26.6375
29.2564
31.8891
34.5751
37.3361
40.1514
42.9499
45.6058
47.9397
49.7459
26.6375
29.2564
31.8891
34.5751
37.3361
40.1514
42.9499
45.6058
47.9398
49.7459
26.6375
29.2564
31.8891
34.5751
37.3362
40.1515
42.9499
45.6059
47.9398
49.746
26.6376
29.2565
31.8892
34.5752
37.3363
40.1516
42.95
45.6059
47.9399
49.746
26.6377
29.2566
31.8893
34.5753
37.3363
40.1517
42.9501
45.606
47.94
49.7462
25.4096
28.4631
31.2498
33.9667
36.6831
39.3893
42.0074
44.3838
46.261
47.1982
25.4095
28.463
31.2498
33.9666
36.683
39.3893
42.0074
44.3838
46.2609
47.1981
25.4095
28.463
31.2497
33.9666
36.683
39.3892
42.0073
44.3837
46.2609
47.198
25.4095
28.463
31.2497
33.9665
36.6829
39.3892
42.0073
44.3837
46.2608
47.198
25.4094
28.4629
31.2497
33.9665
36.6829
39.3891
42.0072
44.3836
46.2608
47.1979
25.4094
28.4629
31.2497
33.9665
36.6829
39.3892
42.0072
44.3836
46.2608
47.1979
25.4095
28.463
31.2497
33.9665
36.6829
39.3892
42.0073
44.3837
46.2608
47.198
25.4095
28.463
31.2497
33.9666
36.683
39.3892
42.0073
44.3837
46.2609
47.198
25.4095
28.4631
31.2498
33.9667
36.6831
39.3893
42.0074
44.3838
46.261
47.1981
25.4096
28.4631
31.2499
33.9667
36.6832
39.3894
42.0075
44.3839
46.2611
47.1982
130.153
142.631
150.346
155.793
159.853
162.922
165.209
166.839
167.889
168.403
130.153
142.631
150.346
155.793
159.853
162.922
165.208
166.839
167.889
168.403
130.153
142.63
150.346
155.793
159.853
162.921
165.208
166.839
167.889
168.403
130.153
142.63
150.346
155.793
159.853
162.921
165.208
166.839
167.889
168.403
130.153
142.63
150.346
155.793
159.853
162.921
165.208
166.839
167.889
168.403
130.153
142.63
150.346
155.793
159.853
162.921
165.208
166.839
167.889
168.403
130.153
142.63
150.346
155.793
159.853
162.921
165.208
166.839
167.889
168.403
130.153
142.63
150.346
155.793
159.853
162.921
165.208
166.839
167.889
168.403
130.153
142.631
150.346
155.793
159.853
162.922
165.209
166.839
167.889
168.403
130.153
142.631
150.346
155.793
159.853
162.922
165.209
166.839
167.889
168.403
111.658
122.884
130.869
136.703
141.061
144.338
146.766
148.489
149.595
150.135
111.658
122.884
130.869
136.702
141.061
144.338
146.766
148.488
149.594
150.135
111.658
122.884
130.869
136.702
141.061
144.338
146.766
148.488
149.594
150.135
111.658
122.884
130.869
136.702
141.061
144.338
146.766
148.488
149.594
150.135
111.658
122.884
130.869
136.702
141.061
144.338
146.766
148.488
149.594
150.135
111.658
122.884
130.869
136.702
141.061
144.338
146.766
148.488
149.594
150.135
111.658
122.884
130.869
136.702
141.061
144.338
146.766
148.488
149.594
150.135
111.658
122.884
130.869
136.702
141.061
144.338
146.766
148.488
149.594
150.135
111.658
122.884
130.869
136.702
141.061
144.338
146.766
148.489
149.594
150.135
111.658
122.884
130.869
136.703
141.061
144.338
146.766
148.489
149.595
150.136
98.1169
107.194
114.366
119.919
124.191
127.449
129.88
131.611
132.723
133.268
98.1168
107.194
114.366
119.918
124.191
127.449
129.88
131.61
132.723
133.268
98.1167
107.194
114.366
119.918
124.191
127.449
129.88
131.61
132.723
133.268
98.1167
107.194
114.366
119.918
124.191
127.449
129.88
131.61
132.723
133.268
98.1166
107.194
114.366
119.918
124.191
127.449
129.88
131.61
132.723
133.268
98.1166
107.194
114.366
119.918
124.191
127.449
129.88
131.61
132.723
133.268
98.1167
107.194
114.366
119.918
124.191
127.449
129.88
131.61
132.723
133.268
98.1167
107.194
114.366
119.918
124.191
127.449
129.88
131.61
132.723
133.268
98.1168
107.194
114.366
119.918
124.191
127.449
129.88
131.61
132.723
133.268
98.1169
107.194
114.366
119.919
124.191
127.449
129.88
131.611
132.723
133.268
87.0097
94.2337
100.317
105.259
109.187
112.247
114.56
116.22
117.294
117.82
87.0096
94.2336
100.316
105.259
109.187
112.246
114.56
116.22
117.293
117.82
87.0095
94.2335
100.316
105.258
109.187
112.246
114.56
116.22
117.293
117.82
87.0095
94.2335
100.316
105.258
109.187
112.246
114.56
116.22
117.293
117.82
87.0094
94.2334
100.316
105.258
109.187
112.246
114.56
116.22
117.293
117.82
87.0094
94.2334
100.316
105.258
109.187
112.246
114.56
116.22
117.293
117.82
87.0095
94.2335
100.316
105.258
109.187
112.246
114.56
116.22
117.293
117.82
87.0095
94.2335
100.316
105.259
109.187
112.246
114.56
116.22
117.293
117.82
87.0096
94.2336
100.316
105.259
109.187
112.247
114.56
116.22
117.293
117.82
87.0097
94.2337
100.317
105.259
109.187
112.247
114.56
116.22
117.294
117.82
77.518
83.2404
88.2457
92.461
95.9102
98.6553
100.764
102.293
103.289
103.779
77.5179
83.2403
88.2456
92.4608
95.9101
98.6551
100.763
102.293
103.289
103.779
77.5178
83.2402
88.2455
92.4608
95.91
98.6551
100.763
102.293
103.289
103.779
77.5177
83.2401
88.2454
92.4607
95.9099
98.655
100.763
102.293
103.289
103.779
77.5177
83.2401
88.2454
92.4607
95.9099
98.655
100.763
102.293
103.289
103.779
77.5177
83.2401
88.2454
92.4607
95.9099
98.655
100.763
102.293
103.289
103.779
77.5177
83.2401
88.2454
92.4607
95.9099
98.655
100.763
102.293
103.289
103.779
77.5178
83.2402
88.2455
92.4608
95.91
98.6551
100.763
102.293
103.289
103.779
77.5179
83.2403
88.2456
92.4609
95.9101
98.6552
100.763
102.293
103.289
103.779
77.518
83.2404
88.2457
92.461
95.9102
98.6553
100.764
102.293
103.289
103.779
69.3109
73.7869
77.7999
81.2748
84.1918
86.5628
88.4139
89.7731
90.6649
91.1063
69.3107
73.7868
77.7998
81.2747
84.1917
86.5627
88.4137
89.773
90.6647
91.1063
69.3107
73.7867
77.7997
81.2746
84.1916
86.5626
88.4136
89.7729
90.6647
91.1062
69.3106
73.7866
77.7996
81.2746
84.1915
86.5626
88.4136
89.7728
90.6646
91.1061
69.3106
73.7866
77.7996
81.2745
84.1915
86.5625
88.4136
89.7728
90.6646
91.1061
69.3106
73.7866
77.7996
81.2745
84.1915
86.5625
88.4136
89.7728
90.6646
91.1061
69.3106
73.7866
77.7996
81.2746
84.1915
86.5626
88.4136
89.7729
90.6646
91.1062
69.3107
73.7867
77.7997
81.2746
84.1916
86.5626
88.4137
89.7729
90.6647
91.1062
69.3108
73.7868
77.7998
81.2747
84.1917
86.5627
88.4138
89.773
90.6648
91.1063
69.3109
73.7869
77.7999
81.2749
84.1918
86.5629
88.4139
89.7732
90.6649
91.1065
62.222
65.6112
68.7185
71.4832
73.8644
75.8427
77.4141
78.583
79.3568
79.7418
62.2219
65.6111
68.7184
71.4831
73.8643
75.8426
77.414
78.5829
79.3566
79.7417
62.2218
65.611
68.7183
71.483
73.8642
75.8425
77.4139
78.5828
79.3566
79.7416
62.2218
65.6109
68.7182
71.4829
73.8641
75.8424
77.4139
78.5828
79.3565
79.7416
62.2217
65.6109
68.7182
71.4829
73.8641
75.8424
77.4138
78.5828
79.3565
79.7416
62.2217
65.6109
68.7182
71.4829
73.8641
75.8424
77.4138
78.5828
79.3565
79.7416
62.2218
65.6109
68.7183
71.4829
73.8641
75.8425
77.4139
78.5828
79.3565
79.7416
62.2218
65.611
68.7183
71.483
73.8642
75.8425
77.4139
78.5829
79.3566
79.7417
62.2219
65.6111
68.7184
71.4831
73.8643
75.8426
77.414
78.583
79.3567
79.7418
62.222
65.6112
68.7185
71.4832
73.8644
75.8427
77.4142
78.5831
79.3568
79.7419
56.1416
58.52
60.7929
62.8972
64.7698
66.366
67.6588
68.6343
69.2862
69.6124
56.1415
58.5199
60.7927
62.897
64.7697
66.3659
67.6587
68.6341