/*--------------------------------*- C++ -*----------------------------------*\
  =========                 |
  \\      /  F ield         | OpenFOAM: The Open Source CFD Toolbox
   \\    /   O peration     | Website:  https://openfoam.org
    \\  /    A nd           | Version:  6
     \\/     M anipulation  |
\*---------------------------------------------------------------------------*/
FoamFile
{
    version     2.0;
    format      ascii;
    class       volScalarField;
    location    "0.095";
    object      T;
}
// * * * * * * * * * * * * * * * * * * * * * * * * * * * * * * * * * * * * * //

dimensions      [0 0 0 1 0 0 0];

internalField   nonuniform List<scalar> 
7000
(
99.8602
99.8601
99.86
99.8599
99.8599
99.8599
99.8599
99.86
99.86
99.86
99.8601
99.86
99.8599
99.8598
99.8598
99.8598
99.8598
99.8599
99.8599
99.8599
99.86
99.8599
99.8598
99.8598
99.8598
99.8598
99.8598
99.8598
99.8598
99.8599
99.86
99.8598
99.8598
99.8597
99.8597
99.8597
99.8597
99.8598
99.8598
99.8599
99.8599
99.8598
99.8598
99.8597
99.8597
99.8597
99.8597
99.8597
99.8598
99.8598
99.8599
99.8598
99.8598
99.8597
99.8597
99.8597
99.8597
99.8597
99.8598
99.8598
99.8599
99.8598
99.8598
99.8597
99.8597
99.8597
99.8597
99.8598
99.8598
99.8599
99.86
99.8599
99.8598
99.8598
99.8598
99.8598
99.8598
99.8598
99.8598
99.8599
99.86
99.8599
99.8599
99.8598
99.8598
99.8598
99.8598
99.8599
99.8599
99.86
99.86
99.86
99.8599
99.8599
99.8599
99.8599
99.8599
99.8599
99.86
99.86
80.1224
80.1222
80.122
80.1219
80.1218
80.1218
80.1218
80.1219
80.1219
80.122
80.1222
80.1219
80.1217
80.1216
80.1215
80.1215
80.1216
80.1216
80.1217
80.1219
80.122
80.1217
80.1215
80.1214
80.1214
80.1214
80.1214
80.1215
80.1216
80.1217
80.1219
80.1216
80.1214
80.1213
80.1213
80.1213
80.1213
80.1214
80.1215
80.1216
80.1218
80.1216
80.1214
80.1213
80.1212
80.1212
80.1212
80.1213
80.1214
80.1216
80.1218
80.1216
80.1214
80.1213
80.1212
80.1212
80.1213
80.1213
80.1215
80.1216
80.1219
80.1216
80.1214
80.1213
80.1213
80.1213
80.1213
80.1214
80.1215
80.1217
80.1219
80.1217
80.1215
80.1214
80.1214
80.1214
80.1214
80.1215
80.1216
80.1218
80.122
80.1218
80.1217
80.1216
80.1215
80.1215
80.1216
80.1216
80.1218
80.1219
80.1222
80.122
80.1218
80.1217
80.1217
80.1217
80.1217
80.1218
80.122
80.1221
61.9234
61.923
61.9228
61.9226
61.9225
61.9225
61.9225
61.9226
61.9227
61.9228
61.9231
61.9227
61.9224
61.9223
61.9222
61.9221
61.9222
61.9222
61.9224
61.9226
61.9228
61.9224
61.9222
61.922
61.9219
61.9219
61.9219
61.922
61.9221
61.9224
61.9226
61.9223
61.922
61.9219
61.9218
61.9217
61.9218
61.9219
61.922
61.9223
61.9226
61.9222
61.922
61.9218
61.9217
61.9217
61.9217
61.9218
61.922
61.9222
61.9226
61.9222
61.922
61.9218
61.9217
61.9217
61.9217
61.9218
61.922
61.9223
61.9226
61.9223
61.922
61.9219
61.9218
61.9218
61.9218
61.9219
61.9221
61.9223
61.9228
61.9224
61.9222
61.922
61.922
61.922
61.922
61.9221
61.9223
61.9225
61.9229
61.9226
61.9224
61.9223
61.9222
61.9222
61.9222
61.9223
61.9225
61.9228
61.9231
61.9229
61.9227
61.9226
61.9225
61.9225
61.9225
61.9226
61.9228
61.9231
46.0223
46.0219
46.0216
46.0214
46.0213
46.0212
46.0211
46.0211
46.0211
46.0213
46.0219
46.0215
46.0212
46.021
46.0209
46.0208
46.0207
46.0207
46.0208
46.021
46.0216
46.0212
46.0209
46.0207
46.0206
46.0205
46.0205
46.0205
46.0206
46.0208
46.0215
46.0211
46.0208
46.0206
46.0204
46.0203
46.0203
46.0203
46.0204
46.0207
46.0214
46.021
46.0207
46.0205
46.0204
46.0203
46.0202
46.0203
46.0204
46.0206
46.0214
46.021
46.0207
46.0205
46.0204
46.0203
46.0203
46.0203
46.0204
46.0207
46.0215
46.0211
46.0208
46.0206
46.0205
46.0204
46.0204
46.0204
46.0205
46.0208
46.0216
46.0212
46.021
46.0208
46.0207
46.0206
46.0206
46.0206
46.0207
46.021
46.0219
46.0215
46.0212
46.0211
46.021
46.0209
46.0209
46.0209
46.021
46.0213
46.0221
46.0218
46.0216
46.0214
46.0213
46.0213
46.0213
46.0213
46.0214
46.0217
32.851
32.8506
32.8503
32.8501
32.8499
32.8497
32.8494
32.8491
32.8489
32.8488
32.8507
32.8502
32.8499
32.8497
32.8495
32.8493
32.849
32.8488
32.8485
32.8486
32.8504
32.85
32.8497
32.8494
32.8492
32.849
32.8488
32.8485
32.8483
32.8484
32.8502
32.8498
32.8495
32.8492
32.849
32.8488
32.8486
32.8484
32.8482
32.8482
32.8501
32.8497
32.8494
32.8492
32.849
32.8488
32.8486
32.8483
32.8481
32.8482
32.8501
32.8497
32.8494
32.8492
32.849
32.8488
32.8486
32.8483
32.8482
32.8482
32.8502
32.8498
32.8495
32.8493
32.8491
32.8489
32.8487
32.8485
32.8483
32.8484
32.8504
32.85
32.8497
32.8495
32.8493
32.8492
32.8489
32.8487
32.8485
32.8486
32.8506
32.8503
32.85
32.8498
32.8497
32.8495
32.8493
32.849
32.8488
32.8489
32.8509
32.8507
32.8504
32.8502
32.8501
32.8499
32.8497
32.8494
32.8492
32.8493
22.5017
22.5014
22.501
22.5007
22.5004
22.4999
22.4992
22.4982
22.4971
22.4964
22.5014
22.501
22.5007
22.5004
22.5001
22.4996
22.4989
22.4979
22.4968
22.4962
22.5011
22.5008
22.5004
22.5002
22.4998
22.4993
22.4986
22.4976
22.4966
22.496
22.501
22.5006
22.5003
22.5
22.4997
22.4992
22.4985
22.4975
22.4965
22.4959
22.5009
22.5005
22.5002
22.4999
22.4996
22.4991
22.4984
22.4975
22.4964
22.4959
22.5009
22.5005
22.5002
22.5
22.4996
22.4992
22.4985
22.4975
22.4965
22.4959
22.501
22.5006
22.5004
22.5001
22.4998
22.4993
22.4986
22.4976
22.4966
22.496
22.5012
22.5008
22.5005
22.5003
22.5
22.4995
22.4988
22.4979
22.4968
22.4963
22.5014
22.5011
22.5008
22.5006
22.5003
22.4998
22.4991
22.4982
22.4971
22.4966
22.5017
22.5015
22.5012
22.501
22.5007
22.5002
22.4995
22.4986
22.4976
22.497
14.782
14.7817
14.7814
14.781
14.7804
14.7794
14.7776
14.7749
14.7717
14.7692
14.7817
14.7814
14.7811
14.7807
14.7801
14.7791
14.7773
14.7747
14.7714
14.769
14.7815
14.7812
14.7809
14.7805
14.7799
14.7789
14.7771
14.7745
14.7712
14.7688
14.7814
14.7811
14.7807
14.7804
14.7798
14.7787
14.777
14.7744
14.7711
14.7687
14.7813
14.781
14.7807
14.7803
14.7797
14.7787
14.777
14.7743
14.7711
14.7687
14.7814
14.781
14.7807
14.7803
14.7798
14.7787
14.777
14.7744
14.7712
14.7687
14.7814
14.7811
14.7808
14.7804
14.7799
14.7789
14.7771
14.7745
14.7713
14.7689
14.7816
14.7813
14.781
14.7806
14.7801
14.779
14.7773
14.7747
14.7715
14.7691
14.7818
14.7815
14.7812
14.7809
14.7803
14.7793
14.7776
14.775
14.7718
14.7693
14.7821
14.7819
14.7816
14.7813
14.7807
14.7797
14.778
14.7753
14.7721
14.7697
9.31095
9.31066
9.31031
9.30977
9.30874
9.30671
9.30294
9.29661
9.28791
9.28007
9.31073
9.31044
9.31009
9.30954
9.30852
9.3065
9.30272
9.2964
9.28772
9.27993
9.31057
9.31028
9.30993
9.30939
9.30836
9.30634
9.30257
9.29626
9.28759
9.27982
9.31047
9.31018
9.30984
9.30929
9.30827
9.30626
9.30249
9.29618
9.28752
9.27975
9.31043
9.31015
9.3098
9.30926
9.30824
9.30623
9.30246
9.29616
9.2875
9.27973
9.31045
9.31017
9.30982
9.30929
9.30827
9.30626
9.30249
9.29619
9.28754
9.27977
9.31053
9.31025
9.30991
9.30937
9.30836
9.30635
9.30259
9.29629
9.28763
9.27987
9.31066
9.31038
9.31005
9.30952
9.30851
9.30651
9.30275
9.29645
9.2878
9.28003
9.31085
9.31059
9.31027
9.30975
9.30874
9.30673
9.30298
9.29668
9.28803
9.28026
9.31107
9.31086
9.31056
9.31004
9.30904
9.30704
9.30328
9.29698
9.28833
9.28057
5.62336
5.6231
5.6227
5.62192
5.62026
5.6167
5.60942
5.59579
5.57404
5.54998
5.6232
5.62294
5.62254
5.62176
5.62011
5.61655
5.60926
5.59564
5.5739
5.54988
5.62308
5.62282
5.62242
5.62165
5.62
5.61644
5.60916
5.59554
5.57381
5.54981
5.62302
5.62276
5.62236
5.62159
5.61993
5.61638
5.6091
5.59548
5.57376
5.54976
5.62299
5.62273
5.62233
5.62156
5.61991
5.61636
5.60908
5.59547
5.57375
5.54975
5.62301
5.62275
5.62235
5.62158
5.61993
5.61638
5.60911
5.5955
5.57378
5.54979
5.62307
5.62281
5.62242
5.62165
5.62001
5.61646
5.60918
5.59558
5.57386
5.54986
5.62317
5.62292
5.62253
5.62177
5.62013
5.61658
5.60931
5.5957
5.57398
5.54998
5.62331
5.62308
5.6227
5.62194
5.6203
5.61675
5.60948
5.59587
5.57416
5.55016
5.62349
5.62329
5.62292
5.62217
5.62053
5.61698
5.60971
5.59611
5.57439
5.55039
3.25706
3.25682
3.25636
3.25535
3.25299
3.24754
3.23535
3.20942
3.15909
3.08254
3.25695
3.25671
3.25626
3.25524
3.25288
3.24743
3.23524
3.20932
3.159
3.08248
3.25688
3.25664
3.25618
3.25516
3.25281
3.24736
3.23517
3.20926
3.15894
3.08243
3.25683
3.25659
3.25613
3.25512
3.25276
3.24732
3.23513
3.20922
3.15891
3.0824
3.25681
3.25658
3.25612
3.25511
3.25275
3.24731
3.23512
3.20921
3.1589
3.0824
3.25683
3.25659
3.25614
3.25512
3.25277
3.24733
3.23515
3.20924
3.15893
3.08242
3.25687
3.25664
3.25618
3.25518
3.25282
3.24738
3.2352
3.20929
3.15898
3.08248
3.25695
3.25672
3.25627
3.25526
3.25291
3.24747
3.23529
3.20938
3.15907
3.08256
3.25705
3.25683
3.25639
3.25538
3.25303
3.24759
3.23541
3.2095
3.15919
3.08268
3.25718
3.25698
3.25655
3.25555
3.2532
3.24776
3.23558
3.20967
3.15935
3.08284
1.80986
1.80964
1.80915
1.80799
1.80516
1.79832
1.78192
1.7425
1.645
1.3856
1.80979
1.80957
1.80908
1.80792
1.80509
1.79825
1.78186
1.74244
1.64495
1.38557
1.80974
1.80952
1.80903
1.80787
1.80504
1.79821
1.78181
1.7424
1.64491
1.38554
1.80971
1.80949
1.80901
1.80784
1.80502
1.79818
1.78179
1.74238
1.64489
1.38553
1.8097
1.80948
1.809
1.80784
1.80501
1.79817
1.78178
1.74238
1.64489
1.38553
1.80971
1.8095
1.80901
1.80785
1.80502
1.79819
1.7818
1.74239
1.64491
1.38554
1.80974
1.80953
1.80904
1.80788
1.80506
1.79823
1.78183
1.74243
1.64494
1.38557
1.80979
1.80958
1.8091
1.80794
1.80512
1.79829
1.78189
1.74249
1.645
1.38562
1.80987
1.80966
1.80918
1.80803
1.80521
1.79837
1.78198
1.74257
1.64507
1.38568
1.80995
1.80976
1.80929
1.80814
1.80532
1.79848
1.78209
1.74268
1.64518
1.38577
0.965314
0.965127
0.964669
0.963548
0.960815
0.95427
0.938945
0.903942
0.826417
0.664177
0.965272
0.965085
0.964627
0.963507
0.960774
0.95423
0.938907
0.903907
0.826388
0.664156
0.965243
0.965056
0.964598
0.963478
0.960746
0.954202
0.938881
0.903883
0.826368
0.664142
0.965225
0.965039
0.964582
0.963462
0.96073
0.954187
0.938867
0.903871
0.826357
0.664134
0.965221
0.965034
0.964577
0.963458
0.960727
0.954184
0.938865
0.903869
0.826356
0.664134
0.965228
0.965042
0.964586
0.963467
0.960736
0.954194
0.938875
0.903879
0.826366
0.664142
0.965249
0.965063
0.964608
0.963489
0.960759
0.954218
0.938898
0.903902
0.826387
0.664159
0.965282
0.965098
0.964644
0.963527
0.960798
0.954256
0.938936
0.903939
0.826421
0.664187
0.965329
0.965148
0.964697
0.963581
0.960852
0.954311
0.93899
0.903991
0.826469
0.664227
0.965385
0.965216
0.964767
0.963653
0.960925
0.954383
0.939061
0.90406
0.826533
0.66428
0.494496
0.494349
0.493973
0.493055
0.490862
0.485793
0.47453
0.45073
0.403829
0.321273
0.494472
0.494325
0.493949
0.493031
0.490839
0.48577
0.474508
0.450711
0.403812
0.321261
0.494455
0.494308
0.493932
0.493014
0.490823
0.485755
0.474494
0.450698
0.403801
0.321253
0.494445
0.494299
0.493923
0.493005
0.490814
0.485747
0.474486
0.450691
0.403796
0.321249
0.494443
0.494296
0.493921
0.493003
0.490813
0.485745
0.474485
0.45069
0.403796
0.321249
0.494448
0.494301
0.493926
0.493009
0.490819
0.485752
0.474491
0.450697
0.403802
0.321254
0.494461
0.494315
0.49394
0.493023
0.490833
0.485766
0.474506
0.45071
0.403814
0.321264
0.494481
0.494336
0.493962
0.493046
0.490856
0.485789
0.474528
0.450732
0.403834
0.321281
0.49451
0.494367
0.493994
0.493079
0.490889
0.485822
0.474561
0.450763
0.403862
0.321304
0.494545
0.494408
0.494037
0.493123
0.490933
0.485866
0.474604
0.450804
0.403899
0.321335
0.24346
0.243355
0.243082
0.242426
0.240909
0.237547
0.230486
0.216625
0.191789
0.1529
0.243446
0.243341
0.243069
0.242413
0.240896
0.237535
0.230474
0.216615
0.19178
0.152893
0.243437
0.243332
0.24306
0.242404
0.240887
0.237526
0.230466
0.216608
0.191775
0.152889
0.243432
0.243327
0.243055
0.242399
0.240883
0.237522
0.230462
0.216604
0.191772
0.152887
0.243431
0.243326
0.243054
0.242399
0.240882
0.237521
0.230462
0.216604
0.191772
0.152887
0.243434
0.243329
0.243057
0.242402
0.240886
0.237525
0.230466
0.216608
0.191775
0.15289
0.243441
0.243337
0.243065
0.24241
0.240894
0.237533
0.230474
0.216616
0.191782
0.152896
0.243454
0.24335
0.243078
0.242424
0.240908
0.237547
0.230487
0.216628
0.191793
0.152905
0.24347
0.243367
0.243097
0.242443
0.240927
0.237566
0.230506
0.216646
0.191809
0.152918
0.24349
0.243391
0.243121
0.242468
0.240952
0.237591
0.23053
0.216669
0.19183
0.152935
0.115289
0.115221
0.115043
0.114625
0.113691
0.111708
0.107754
0.10047
0.0883504
0.07083
0.115282
0.115214
0.115036
0.114619
0.113685
0.111701
0.107748
0.100465
0.088346
0.0708266
0.115277
0.115209
0.115031
0.114614
0.11368
0.111697
0.107744
0.100461
0.088343
0.0708244
0.115275
0.115206
0.115029
0.114612
0.113678
0.111695
0.107742
0.100459
0.0883416
0.0708233
0.115274
0.115206
0.115029
0.114611
0.113678
0.111695
0.107742
0.10046
0.0883418
0.0708235
0.115276
0.115208
0.115031
0.114613
0.11368
0.111697
0.107745
0.100462
0.0883437
0.0708251
0.11528
0.115212
0.115035
0.114618
0.113684
0.111701
0.107749
0.100466
0.0883475
0.0708283
0.115287
0.115219
0.115042
0.114625
0.113692
0.111709
0.107756
0.100473
0.0883535
0.0708332
0.115296
0.115229
0.115052
0.114636
0.113702
0.111719
0.107766
0.100482
0.088362
0.0708403
0.115307
0.115242
0.115066
0.11465
0.113716
0.111733
0.10778
0.100495
0.0883732
0.0708496
0.0525523
0.0525115
0.0524061
0.0521645
0.0516414
0.0505741
0.0485432
0.0449937
0.039418
0.0317963
0.0525488
0.0525081
0.0524027
0.0521611
0.0516381
0.0505709
0.0485403
0.0449911
0.0394159
0.0317946
0.0525464
0.0525058
0.0524004
0.0521589
0.0516359
0.0505688
0.0485384
0.0449894
0.0394145
0.0317936
0.0525452
0.0525045
0.0523992
0.0521577
0.0516348
0.0505678
0.0485374
0.0449886
0.0394138
0.0317931
0.052545
0.0525044
0.0523991
0.0521576
0.0516347
0.0505678
0.0485375
0.0449887
0.0394139
0.0317932
0.052546
0.0525054
0.0524002
0.0521587
0.0516359
0.0505689
0.0485386
0.0449898
0.0394149
0.031794
0.0525482
0.0525077
0.0524025
0.0521611
0.0516383
0.0505714
0.048541
0.044992
0.0394169
0.0317957
0.0525518
0.0525113
0.0524063
0.052165
0.0516422
0.0505752
0.0485447
0.0449955
0.03942
0.0317983
0.0525566
0.0525165
0.0524117
0.0521705
0.0516477
0.0505806
0.04855
0.0450004
0.0394244
0.0318019
0.0525626
0.0525234
0.0524189
0.0521777
0.0516549
0.0505878
0.0485568
0.0450068
0.0394301
0.0318067
0.0230779
0.0230555
0.0229978
0.0228689
0.0225983
0.0220658
0.0210925
0.0194643
0.0170193
0.0138099
0.0230763
0.0230538
0.0229962
0.0228673
0.0225968
0.0220643
0.0210911
0.0194631
0.0170183
0.0138091
0.0230752
0.0230527
0.0229951
0.0228662
0.0225958
0.0220633
0.0210902
0.0194623
0.0170176
0.0138086
0.0230746
0.0230521
0.0229946
0.0228657
0.0225952
0.0220628
0.0210898
0.0194619
0.0170173
0.0138084
0.0230745
0.0230521
0.0229945
0.0228657
0.0225952
0.0220629
0.0210898
0.019462
0.0170174
0.0138084
0.0230751
0.0230526
0.0229951
0.0228663
0.0225958
0.0220635
0.0210904
0.0194625
0.0170179
0.0138089
0.0230762
0.0230538
0.0229963
0.0228675
0.0225971
0.0220647
0.0210916
0.0194637
0.0170189
0.0138097
0.023078
0.0230556
0.0229982
0.0228694
0.022599
0.0220666
0.0210935
0.0194654
0.0170205
0.013811
0.0230804
0.0230582
0.0230009
0.0228722
0.0226018
0.0220693
0.0210961
0.0194678
0.0170226
0.0138128
0.0230834
0.0230617
0.0230045
0.0228758
0.0226054
0.0220729
0.0210995
0.019471
0.0170255
0.0138152
0.00977171
0.00976014
0.00973083
0.00966673
0.00953601
0.00928684
0.0088471
0.00813806
0.00711147
0.00580583
0.00977096
0.00975939
0.00973009
0.00966601
0.0095353
0.00928616
0.00884648
0.00813751
0.007111
0.00580547
0.00977045
0.00975889
0.0097296
0.00966552
0.00953483
0.00928572
0.00884608
0.00813716
0.00711071
0.00580523
0.00977019
0.00975863
0.00972935
0.00966528
0.0095346
0.00928551
0.00884588
0.00813699
0.00711057
0.00580514
0.00977018
0.00975863
0.00972935
0.00966529
0.00953462
0.00928554
0.00884592
0.00813704
0.00711062
0.00580518
0.00977044
0.0097589
0.00972963
0.00966558
0.00953491
0.00928583
0.00884621
0.00813731
0.00711087
0.00580539
0.009771
0.00975946
0.00973021
0.00966617
0.00953551
0.00928642
0.00884678
0.00813784
0.00711134
0.00580579
0.00977186
0.00976036
0.00973113
0.0096671
0.00953645
0.00928734
0.00884766
0.00813867
0.00711208
0.00580641
0.00977304
0.00976161
0.00973243
0.00966842
0.00953776
0.00928863
0.0088489
0.00813982
0.0071131
0.00580727
0.00977449
0.00976327
0.00973415
0.00967016
0.00953949
0.00929033
0.00885053
0.00814133
0.00711444
0.0058084
0.00399284
0.00398725
0.00397327
0.00394333
0.00388386
0.00377373
0.00358536
0.00329153
0.0028807
0.00237736
0.00399251
0.00398692
0.00397294
0.00394301
0.00388355
0.00377344
0.00358509
0.00329129
0.0028805
0.0023772
0.00399229
0.0039867
0.00397273
0.0039428
0.00388335
0.00377325
0.00358492
0.00329114
0.00288037
0.0023771
0.00399217
0.00398659
0.00397262
0.0039427
0.00388325
0.00377316
0.00358484
0.00329107
0.00288031
0.00237705
0.00399218
0.0039866
0.00397263
0.00394271
0.00388326
0.00377318
0.00358486
0.0032911
0.00288034
0.00237708
0.0039923
0.00398673
0.00397276
0.00394285
0.0038834
0.00377332
0.003585
0.00329123
0.00288045
0.00237718
0.00399256
0.00398699
0.00397303
0.00394312
0.00388368
0.00377359
0.00358526
0.00329147
0.00288067
0.00237737
0.00399296
0.0039874
0.00397345
0.00394355
0.00388411
0.00377401
0.00358566
0.00329185
0.00288101
0.00237765
0.00399351
0.00398798
0.00397405
0.00394416
0.00388471
0.0037746
0.00358623
0.00329237
0.00288148
0.00237805
0.00399418
0.00398874
0.00397484
0.00394496
0.00388551
0.00377538
0.00358697
0.00329306
0.00288209
0.00237856
0.00157579
0.00157325
0.00156695
0.00155374
0.00152812
0.00148196
0.00140537
0.00129024
0.00113808
0.000975341
0.00157565
0.00157311
0.00156681
0.00155361
0.00152799
0.00148184
0.00140525
0.00129013
0.00113799
0.000975268
0.00157556
0.00157302
0.00156672
0.00155352
0.00152791
0.00148176
0.00140518
0.00129007
0.00113794
0.000975224
0.00157552
0.00157297
0.00156668
0.00155348
0.00152787
0.00148172
0.00140515
0.00129004
0.00113791
0.000975207
0.00157552
0.00157298
0.00156668
0.00155348
0.00152788
0.00148173
0.00140516
0.00129006
0.00113793
0.00097522
0.00157558
0.00157304
0.00156675
0.00155355
0.00152794
0.00148179
0.00140522
0.00129011
0.00113798
0.000975267
0.00157569
0.00157315
0.00156687
0.00155367
0.00152806
0.00148191
0.00140534
0.00129022
0.00113808
0.000975353
0.00157587
0.00157334
0.00156705
0.00155386
0.00152825
0.0014821
0.00140551
0.00129039
0.00113823
0.000975485
0.00157611
0.00157359
0.00156732
0.00155413
0.00152852
0.00148236
0.00140576
0.00129062
0.00113843
0.000975667
0.00157641
0.00157393
0.00156767
0.00155448
0.00152887
0.0014827
0.00140609
0.00129092
0.0011387
0.000975901
0.60016
0.265093
0.120231
0.0628012
0.0538558
0.0885631
0.192854
0.440757
1.00521
2.2889
0.600141
0.265084
0.120225
0.0627968
0.05385
0.0885526
0.192833
0.440717
1.00513
2.28875
0.600129
0.265077
0.120222
0.062794
0.0538463
0.0885459
0.19282
0.440691
1.00508
2.28866
0.600122
0.265074
0.12022
0.0627926
0.0538442
0.088542
0.192812
0.440677
1.00506
2.28861
0.600122
0.265075
0.12022
0.0627924
0.0538436
0.0885406
0.192809
0.440672
1.00505
2.2886
0.60013
0.265079
0.120222
0.0627936
0.0538443
0.0885412
0.192811
0.440674
1.00505
2.28861
0.600145
0.265087
0.120227
0.0627961
0.0538462
0.0885437
0.192815
0.440684
1.00507
2.28865
0.60017
0.2651
0.120234
0.0627999
0.0538492
0.0885477
0.192823
0.4407
1.00511
2.28872
0.600204
0.265117
0.120243
0.062805
0.0538531
0.0885527
0.192832
0.440719
1.00515
2.28881
0.600247
0.265139
0.120254
0.062811
0.0538573
0.0885578
0.192841
0.440738
1.00519
2.2889
0.37575
0.190187
0.0934683
0.0516111
0.0455673
0.0741152
0.156389
0.340807
0.719959
1.43225
0.375737
0.19018
0.0934638
0.0516075
0.0455625
0.0741066
0.156373
0.340776
0.719903
1.43215
0.375728
0.190175
0.0934609
0.0516051
0.0455593
0.0741009
0.156362
0.340756
0.719867
1.43209
0.375724
0.190173
0.0934595
0.0516039
0.0455575
0.0740976
0.156356
0.340744
0.719846
1.43206
0.375724
0.190173
0.0934597
0.0516038
0.045557
0.0740964
0.156353
0.34074
0.719839
1.43205
0.37573
0.190177
0.0934615
0.0516048
0.0455576
0.074097
0.156354
0.340742
0.719844
1.43206
0.375741
0.190183
0.0934652
0.0516069
0.0455593
0.0740992
0.156359
0.34075
0.71986
1.43209
0.375758
0.190193
0.0934709
0.0516103
0.045562
0.0741028
0.156365
0.340764
0.719886
1.43213
0.375783
0.190208
0.0934788
0.051615
0.0455657
0.0741077
0.156374
0.340781
0.719921
1.4322
0.375817
0.190227
0.0934893
0.0516211
0.0455704
0.0741137
0.156385
0.340803
0.719964
1.43228
0.205105
0.115201
0.0614918
0.036403
0.0334145
0.0534582
0.108047
0.222308
0.434947
0.78118
0.205098
0.115196
0.0614887
0.0364003
0.033411
0.053452
0.108036
0.222287
0.434913
0.781127
0.205092
0.115193
0.0614867
0.0363985
0.0334086
0.0534478
0.108028
0.222273
0.434889
0.781091
0.20509
0.115191
0.0614857
0.0363976
0.0334072
0.0534454
0.108023
0.222265
0.434876
0.78107
0.20509
0.115192
0.0614859
0.0363975
0.0334068
0.0534445
0.108022
0.222263
0.434871
0.781063
0.205094
0.115194
0.0614872
0.0363983
0.0334073
0.053445
0.108023
0.222264
0.434874
0.781069
0.205101
0.115198
0.0614899
0.0364
0.0334087
0.0534468
0.108026
0.22227
0.434885
0.781088
0.205112
0.115205
0.0614941
0.0364026
0.0334109
0.0534497
0.108031
0.22228
0.434904
0.781119
0.205128
0.115215
0.0615
0.0364063
0.0334139
0.0534537
0.108038
0.222294
0.434929
0.781163
0.20515
0.115229
0.0615079
0.0364111
0.0334179
0.0534589
0.108047
0.222312
0.434962
0.781221
0.104132
0.0629669
0.0360763
0.0228468
0.0217865
0.0342255
0.0662005
0.12906
0.236932
0.396196
0.104128
0.062964
0.0360744
0.022845
0.0217841
0.0342214
0.0661933
0.129047
0.236913
0.396167
0.104125
0.0629621
0.0360731
0.0228438
0.0217825
0.0342186
0.0661883
0.129039
0.236899
0.396147
0.104123
0.0629613
0.0360725
0.0228432
0.0217816
0.034217
0.0661855
0.129034
0.236891
0.396135
0.104124
0.0629615
0.0360726
0.0228432
0.0217813
0.0342165
0.0661844
0.129032
0.236888
0.396131
0.104126
0.0629629
0.0360735
0.0228437
0.0217817
0.0342169
0.066185
0.129033
0.236891
0.396135
0.10413
0.0629657
0.0360753
0.0228449
0.0217827
0.0342181
0.0661872
0.129037
0.236897
0.396146
0.104137
0.0629701
0.036078
0.0228467
0.0217843
0.0342202
0.0661909
0.129044
0.236909
0.396165
0.104146
0.0629764
0.0360819
0.0228493
0.0217865
0.0342232
0.066196
0.129053
0.236926
0.396192
0.104159
0.0629847
0.0360871
0.0228527
0.0217894
0.0342271
0.0662027
0.129065
0.236947
0.396228
0.0501793
0.0320029
0.01944
0.0130751
0.0128935
0.0198944
0.0369488
0.0687311
0.119941
0.190677
0.050177
0.0320013
0.0194388
0.013074
0.012892
0.019892
0.0369446
0.0687242
0.11993
0.190663
0.0501754
0.0320002
0.019438
0.0130733
0.012891
0.0198903
0.0369418
0.0687194
0.119923
0.190652
0.0501747
0.0319998
0.0194377
0.013073
0.0128905
0.0198894
0.0369401
0.0687166
0.119918
0.190646
0.0501749
0.0319999
0.0194378
0.0130729
0.0128903
0.0198891
0.0369395
0.0687157
0.119917
0.190644
0.0501761
0.0320008
0.0194383
0.0130733
0.0128906
0.0198893
0.0369399
0.0687165
0.119918
0.190646
0.0501785
0.0320024
0.0194394
0.013074
0.0128912
0.0198901
0.0369413
0.0687189
0.119922
0.190653
0.0501822
0.032005
0.0194411
0.0130752
0.0128922
0.0198915
0.0369436
0.068723
0.119929
0.190663
0.0501875
0.0320086
0.0194435
0.0130768
0.0128937
0.0198935
0.0369469
0.0687288
0.119939
0.190679
0.0501945
0.0320134
0.0194466
0.013079
0.0128957
0.0198961
0.0369513
0.0687365
0.119952
0.190699
0.0231359
0.0153557
0.00978888
0.00693622
0.0070349
0.0106737
0.0191214
0.0341799
0.0572928
0.0877845
0.0231347
0.0153549
0.00978824
0.00693561
0.00703407
0.0106724
0.0191191
0.0341763
0.0572874
0.0877771
0.0231339
0.0153543
0.00978784
0.00693521
0.00703351
0.0106715
0.0191176
0.0341738
0.0572837
0.0877719
0.0231336
0.0153541
0.00978765
0.006935
0.0070332
0.0106709
0.0191166
0.0341724
0.0572815
0.0877689
0.0231337
0.0153542
0.0097877
0.006935
0.00703312
0.0106707
0.0191163
0.0341719
0.0572808
0.087768
0.0231344
0.0153546
0.00978802
0.00693521
0.00703328
0.0106709
0.0191166
0.0341723
0.0572816
0.0877693
0.0231357
0.0153555
0.00978863
0.00693564
0.00703367
0.0106714
0.0191174
0.0341737
0.0572838
0.0877727
0.0231376
0.0153569
0.00978958
0.00693633
0.00703431
0.0106723
0.0191188
0.0341761
0.0572876
0.0877784
0.0231404
0.0153589
0.00979092
0.00693729
0.0070352
0.0106735
0.0191208
0.0341794
0.0572931
0.0877866
0.0231441
0.0153615
0.00979268
0.00693856
0.00703638
0.010675
0.0191233
0.0341838
0.0573003
0.0877976
0.0102491
0.00701804
0.00465833
0.00345205
0.00358326
0.00535346
0.00929176
0.0160577
0.0260571
0.0388226
0.0102485
0.00701761
0.00465801
0.00345173
0.00358282
0.00535275
0.00929061
0.0160559
0.0260545
0.0388191
0.0102481
0.00701735
0.0046578
0.00345151
0.00358253
0.00535227
0.00928982
0.0160547
0.0260526
0.0388166
0.0102479
0.00701723
0.0046577
0.0034514
0.00358236
0.00535199
0.00928936
0.016054
0.0260516
0.0388152
0.010248
0.00701729
0.00465774
0.00345141
0.00358232
0.00535191
0.00928921
0.0160538
0.0260513
0.0388148
0.0102484
0.00701754
0.00465791
0.00345152
0.00358242
0.00535201
0.00928937
0.016054
0.0260517
0.0388155
0.010249
0.00701801
0.00465823
0.00345176
0.00358264
0.00535229
0.00928982
0.0160548
0.0260529
0.0388172
0.01025
0.00701873
0.00465874
0.00345214
0.003583
0.00535277
0.00929058
0.016056
0.0260549
0.0388201
0.0102514
0.00701975
0.00465945
0.00345267
0.00358351
0.00535345
0.00929167
0.0160578
0.0260577
0.0388243
0.0102532
0.00702108
0.00466039
0.00345337
0.00358418
0.00535434
0.0092931
0.0160602
0.0260615
0.0388299
0.00438339
0.00308281
0.00212017
0.00163425
0.00172956
0.00254729
0.00429814
0.00721203
0.0113853
0.0165722
0.00438312
0.00308261
0.00212001
0.00163409
0.00172933
0.00254694
0.00429758
0.00721118
0.011384
0.0165705
0.00438294
0.00308248
0.00211991
0.00163398
0.00172918
0.0025467
0.0042972
0.00721059
0.0113832
0.0165694
0.00438287
0.00308243
0.00211986
0.00163393
0.0017291
0.00254656
0.00429697
0.00721025
0.0113827
0.0165688
0.00438291
0.00308246
0.00211988
0.00163393
0.00172908
0.00254652
0.00429691
0.00721015
0.0113826
0.0165686
0.00438308
0.00308258
0.00211997
0.00163399
0.00172913
0.00254658
0.00429699
0.00721029
0.0113828
0.016569
0.0043834
0.00308282
0.00212014
0.00163412
0.00172925
0.00254674
0.00429723
0.00721068
0.0113834
0.0165698
0.00438388
0.00308318
0.0021204
0.00163432
0.00172945
0.00254699
0.00429763
0.00721132
0.0113844
0.0165712
0.00438456
0.00308367
0.00212076
0.0016346
0.00172972
0.00254735
0.0042982
0.00721224
0.0113858
0.0165733
0.00438544
0.00308433
0.00212123
0.00163496
0.00173008
0.00254783
0.00429895
0.00721345
0.0113877
0.016576
0.00184941
0.00134331
0.000958364
0.0007673
0.000826316
0.00120005
0.00197065
0.00321285
0.00493012
0.00697533
0.00184928
0.00134321
0.000958283
0.000767216
0.000826203
0.00119988
0.00197038
0.00321244
0.00492956
0.0069746
0.0018492
0.00134315
0.000958233
0.000767162
0.000826128
0.00119976
0.00197019
0.00321217
0.00492917
0.00697409
0.00184917
0.00134313
0.000958212
0.000767135
0.000826087
0.00119969
0.00197009
0.00321201
0.00492895
0.00697381
0.00184919
0.00134315
0.000958222
0.000767138
0.00082608
0.00119968
0.00197006
0.00321197
0.0049289
0.00697375
0.00184928
0.00134321
0.000958268
0.000767171
0.000826108
0.00119971
0.0019701
0.00321204
0.00492901
0.00697392
0.00184943
0.00134333
0.000958353
0.000767237
0.000826172
0.00119979
0.00197023
0.00321224
0.00492931
0.00697433
0.00184966
0.0013435
0.000958483
0.000767341
0.000826276
0.00119993
0.00197044
0.00321257
0.0049298
0.00697502
0.00184998
0.00134374
0.000958664
0.000767486
0.00082642
0.00120012
0.00197073
0.00321303
0.0049305
0.006976
0.00185039
0.00134406
0.000958898
0.000767672
0.000826608
0.00120037
0.00197112
0.00321364
0.00493142
0.0069773
0.000891863
0.0006913
0.000515411
0.000428106
0.000468137
0.000671262
0.00107489
0.00170207
0.00251898
0.0033531
0.000891803
0.000691253
0.00051537
0.000428062
0.000468076
0.000671169
0.00107475
0.00170186
0.00251871
0.00335276
0.000891764
0.000691221
0.000515342
0.000428031
0.000468033
0.000671102
0.00107465
0.00170171
0.0025185
0.00335251
0.00089175
0.00069121
0.000515331
0.000428016
0.00046801
0.000671064
0.00107459
0.00170163
0.00251839
0.00335237
0.000891763
0.00069122
0.000515338
0.000428018
0.000468007
0.000671055
0.00107457
0.00170161
0.00251836
0.00335234
0.000891808
0.000691257
0.000515365
0.000428039
0.000468025
0.000671076
0.0010746
0.00170165
0.00251843
0.00335244
0.000891891
0.000691324
0.000515416
0.00042808
0.000468065
0.000671128
0.00107468
0.00170177
0.0025186
0.00335267
0.000892015
0.000691424
0.000515494
0.000428143
0.00046813
0.000671212
0.00107481
0.00170196
0.00251889
0.00335304
0.000892186
0.000691562
0.000515599
0.00042823
0.000468218
0.000671329
0.00107498
0.00170224
0.00251928
0.00335357
0.0008924
0.000691734
0.000515732
0.00042834
0.00046833
0.000671476
0.00107521
0.00170258
0.00251979
0.00335425
5.2895
6.2804
6.65286
6.80347
6.86616
6.89235
6.90323
6.90775
6.90967
6.91048
5.28922
6.28008
6.65253
6.80313
6.86582
6.89201
6.90289
6.90741
6.90935
6.91023
5.28905
6.27989
6.65233
6.80292
6.86561
6.8918
6.90269
6.90722
6.90918
6.91008
5.28896
6.27978
6.65221
6.80281
6.8655
6.89169
6.90258
6.90712
6.90909
6.91
5.28893
6.27974
6.65218
6.80277
6.86547
6.89167
6.90256
6.9071
6.90908
6.90999
5.28896
6.27978
6.65222
6.80282
6.86551
6.89172
6.90261
6.90716
6.90914
6.91005
5.28904
6.27988
6.65233
6.80294
6.86564
6.89185
6.90275
6.9073
6.90928
6.91019
5.28918
6.28006
6.65253
6.80315
6.86586
6.89207
6.90297
6.90752
6.9095
6.91042
5.28937
6.2803
6.6528
6.80343
6.86615
6.89237
6.90327
6.90783
6.90981
6.91073
5.28958
6.28058
6.65311
6.80376
6.86649
6.89271
6.90362
6.90818
6.91016
6.91108
2.53484
3.15478
3.45096
3.58469
3.64326
3.6683
3.67879
3.68312
3.68492
3.68566
2.5347
3.15461
3.45078
3.58451
3.64308
3.66812
3.67861
3.68294
3.68475
3.68553
2.53461
3.1545
3.45066
3.58439
3.64295
3.668
3.67849
3.68283
3.68465
3.68544
2.53456
3.15444
3.4506
3.58432
3.64288
3.66793
3.67842
3.68277
3.68459
3.68539
2.53454
3.15442
3.45058
3.5843
3.64286
3.66791
3.67841
3.68276
3.68458
3.68538
2.53455
3.15444
3.4506
3.58433
3.6429
3.66795
3.67844
3.68279
3.68462
3.68543
2.5346
3.1545
3.45067
3.5844
3.64298
3.66803
3.67853
3.68288
3.68471
3.68552
2.53468
3.15461
3.45079
3.58453
3.64311
3.66817
3.67867
3.68302
3.68486
3.68566
2.5348
3.15475
3.45096
3.58471
3.6433
3.66836
3.67886
3.68322
3.68505
3.68586
2.53494
3.15495
3.45118
3.58495
3.64354
3.66861
3.67911
3.68347
3.6853
3.68611
1.22582
1.54144
1.72067
1.81161
1.85465
1.87404
1.88245
1.88599
1.88746
1.88805
1.22575
1.54135
1.72058
1.81151
1.85455
1.87394
1.88235
1.88589
1.88737
1.88799
1.2257
1.54129
1.72051