/*--------------------------------*- C++ -*----------------------------------*\
  =========                 |
  \\      /  F ield         | OpenFOAM: The Open Source CFD Toolbox
   \\    /   O peration     | Website:  https://openfoam.org
    \\  /    A nd           | Version:  6
     \\/     M anipulation  |
\*---------------------------------------------------------------------------*/
FoamFile
{
    version     2.0;
    format      ascii;
    class       volScalarField;
    location    "2000";
    object      p;
}
// * * * * * * * * * * * * * * * * * * * * * * * * * * * * * * * * * * * * * //

dimensions      [0 2 -2 0 0 0 0];

internalField   nonuniform List<scalar> 
7000
(
0.0415773
0.0393587
0.0388544
0.0386491
0.0385666
0.0386138
0.0387858
0.0390658
0.0396245
0.0419078
0.0393458
0.0371287
0.0366282
0.036427
0.0363495
0.0364026
0.036581
0.0368669
0.0374297
0.0397224
0.0388298
0.0366161
0.0361174
0.0359189
0.035845
0.0359023
0.0360852
0.0363753
0.0369421
0.0392392
0.038607
0.0363961
0.0358997
0.0357045
0.0356348
0.035697
0.035885
0.03618
0.0367511
0.0390545
0.0385021
0.036294
0.0358
0.0356083
0.0355431
0.0356104
0.0358038
0.0361038
0.0366794
0.0389894
0.038524
0.0363184
0.0358266
0.0356381
0.0355769
0.0356488
0.0358471
0.0361515
0.0367309
0.0390464
0.0386702
0.0364667
0.0359768
0.0357907
0.0357326
0.0358081
0.0360101
0.036318
0.0369001
0.0392194
0.0389273
0.0367251
0.0362364
0.0360519
0.0359959
0.0360738
0.0362782
0.0365882
0.037172
0.0394937
0.0394684
0.037266
0.0367781
0.0365945
0.0365397
0.0366188
0.0368244
0.0371353
0.0377196
0.0400437
0.0417285
0.0395282
0.0390397
0.0388568
0.038803
0.038883
0.0390892
0.0394008
0.0399868
0.0423098
0.0386034
0.0372165
0.0372528
0.0370519
0.0369685
0.0370169
0.0371931
0.037472
0.0374815
0.0389476
0.0372009
0.0358171
0.0358596
0.035663
0.0355857
0.0356416
0.0358263
0.0361139
0.0361267
0.037605
0.0372278
0.0358495
0.0358928
0.0356991
0.0356255
0.0356859
0.0358755
0.036168
0.0361856
0.0376678
0.037009
0.0356333
0.035679
0.0354894
0.0354209
0.0354873
0.0356835
0.0359822
0.0360049
0.0374967
0.0369027
0.0355302
0.0355783
0.0353928
0.0353295
0.035402
0.0356049
0.0359101
0.035938
0.0374388
0.0369252
0.0355557
0.0356061
0.035424
0.0353653
0.0354432
0.0356518
0.0359625
0.0359946
0.0375025
0.0370746
0.0357075
0.0357597
0.0355804
0.0355253
0.0356071
0.0358199
0.0361345
0.0361694
0.0376819
0.0373295
0.0359647
0.036018
0.0358403
0.0357874
0.0358718
0.0360872
0.0364042
0.0364405
0.0379546
0.0373254
0.0359582
0.0360129
0.0358361
0.0357842
0.0358696
0.0360858
0.0364035
0.0364391
0.0379573
0.0387614
0.037396
0.0374481
0.0372727
0.0372219
0.0373081
0.0375247
0.0378419
0.0378808
0.0393987
0.0360887
0.0353007
0.0356593
0.0354766
0.0354515
0.0355027
0.0356265
0.0358948
0.035575
0.036457
0.0352831
0.0345034
0.0348713
0.0346938
0.0346777
0.03474
0.0348761
0.0351588
0.034844
0.0357423
0.0356342
0.0348627
0.0352306
0.0350569
0.0350454
0.0351134
0.0352563
0.0355456
0.0352382
0.0361427
0.0354324
0.0346635
0.0350346
0.0348664
0.0348617
0.034938
0.0350905
0.0353894
0.0350895
0.0360109
0.0353833
0.0346189
0.0349928
0.0348298
0.0348319
0.0349165
0.0350784
0.0353871
0.0350948
0.0360307
0.0354074
0.0346467
0.0350232
0.0348646
0.0348725
0.0349641
0.0351337
0.0354501
0.0351637
0.0361107
0.0355026
0.0347447
0.0351232
0.0349679
0.0349801
0.0350764
0.0352512
0.0355726
0.0352895
0.0362431
0.0357441
0.0349899
0.0353691
0.0352157
0.0352304
0.0353296
0.035507
0.035831
0.0355493
0.0365035
0.0354143
0.0346557
0.0350372
0.0348842
0.0348998
0.0349996
0.0351774
0.0355017
0.0352172
0.0361762
0.0362597
0.0354991
0.0358757
0.0357252
0.0357414
0.0358416
0.0360193
0.036341
0.0360604
0.0370219
0.0347279
0.0341719
0.0345512
0.0343577
0.0344043
0.0344594
0.0345177
0.0348056
0.0344597
0.0351206
0.0341533
0.0336105
0.0340013
0.0338152
0.033876
0.0339478
0.0340249
0.0343365
0.0340014
0.0346916
0.0345268
0.033994
0.0343845
0.034204
0.0342713
0.0343517
0.0344393
0.0347616
0.0344387
0.035144
0.0343131
0.0337834
0.0341788
0.0340059
0.0340832
0.0341761
0.0342789
0.0346176
0.0343078
0.0350441
0.0343353
0.0338123
0.0342113
0.0340456
0.0341325
0.0342378
0.0343551
0.0347097
0.0344133
0.0351748
0.034362
0.0338439
0.0342462
0.0340865
0.0341813
0.0342964
0.034425
0.0347917
0.0345049
0.0352852
0.0343908
0.0338756
0.0342803
0.0341249
0.0342251
0.0343463
0.0344816
0.0348551
0.0345726
0.0353629
0.0346496
0.0341394
0.0345446
0.0343914
0.0344945
0.0346187
0.0347566
0.0351322
0.0348506
0.0356386
0.0342981
0.0337827
0.0341909
0.0340376
0.0341412
0.0342654
0.0344024
0.034777
0.0344892
0.0352804
0.0349194
0.0343996
0.034802
0.0346519
0.0347547
0.0348779
0.0350134
0.0353813
0.0350959
0.0358861
0.0337247
0.0332797
0.0336028
0.0333959
0.0334905
0.0335491
0.033564
0.0338732
0.033573
0.0341265
0.0332613
0.0328346
0.0331714
0.0329754
0.0330915
0.0331757
0.0332197
0.0335667
0.0332896
0.0338961
0.0335812
0.0331655
0.0335023
0.0333146
0.0334401
0.0335374
0.0335985
0.0339636
0.0337073
0.0343478
0.0333538
0.0329427
0.0332864
0.0331095
0.03325
0.033367
0.0334527
0.0338465
0.0336148
0.0343133
0.0334248
0.0330231
0.0333718
0.0332051
0.0333597
0.0334954
0.0336045
0.0340254
0.0338187
0.0345649
0.0334552
0.03306
0.033413
0.0332546
0.0334203
0.0335702
0.0336966
0.0341371
0.0339473
0.0347258
0.0334418
0.0330495
0.0334057
0.0332528
0.0334253
0.0335834
0.0337186
0.0341682
0.0339839
0.0347756
0.0337214
0.0333354
0.0336918
0.0335416
0.0337173
0.033878
0.0340148
0.0344646
0.0342785
0.0350613
0.0334255
0.0330348
0.0333948
0.0332437
0.0334193
0.0335785
0.0337116
0.0341573
0.0339587
0.0347344
0.0339438
0.0335459
0.0338999
0.033752
0.0339242
0.0340796
0.0342075
0.034639
0.0344335
0.0352003
0.032597
0.0322624
0.0325575
0.032359
0.0324808
0.0325408
0.0325274
0.0328284
0.0325375
0.0329595
0.032246
0.0319359
0.0322473
0.0320655
0.0322185
0.0323168
0.0323488
0.0327089
0.032458
0.0329765
0.0325413
0.0322437
0.0325559
0.0323857
0.0325526
0.032671
0.0327301
0.0331215
0.0329059
0.0334962
0.0323241
0.0320334
0.0323554
0.0322004
0.0323895
0.0325386
0.0326382
0.0330803
0.0329133
0.0336169
0.0324257
0.0321476
0.0324764
0.032336
0.0325456
0.0327233
0.0328607
0.0333502
0.0332316
0.0340301
0.0324605
0.0321908
0.0325254
0.0323963
0.0326216
0.0328201
0.0329841
0.0335059
0.0334173
0.0342747
0.0324244
0.0321579
0.0324966
0.0323744
0.0326084
0.0328172
0.0329924
0.0335256
0.0334429
0.0343143
0.0327018
0.0324426
0.0327811
0.0326622
0.0328988
0.033109
0.0332828
0.0338102
0.033717
0.0345601
0.0324336
0.0321696
0.0325119
0.0323908
0.0326261
0.0328318
0.0329962
0.0335111
0.0333924
0.0342085
0.0328473
0.0325735
0.0329095
0.0327905
0.0330186
0.033215
0.0333656
0.0338521
0.0337132
0.034488
0.0313615
0.031128
0.031407
0.0312291
0.0313644
0.0314205
0.03138
0.0316496
0.0313339
0.0315909
0.0311157
0.0309143
0.0312131
0.0310597
0.0312387
0.0313506
0.0313786
0.0317362
0.0314843
0.0318959
0.0314001
0.0312128
0.031514
0.0313765
0.0315753
0.031717
0.0317876
0.0321987
0.0320083
0.0325642
0.0312083
0.0310314
0.0313457
0.0312295
0.031461
0.0316497
0.0317863
0.0322875
0.0321943
0.0329822
0.0313313
0.0311705
0.0314941
0.0313982
0.0316594
0.0318913
0.0320891
0.0326736
0.032676
0.033664
0.031371
0.0312208
0.031552
0.0314714
0.0317541
0.0320161
0.0322543
0.0328918
0.0329514
0.0340497
0.0313219
0.0311757
0.031512
0.0314395
0.0317328
0.0320071
0.0322581
0.032908
0.0329712
0.0340739
0.0315832
0.0314444
0.03178
0.0317108
0.0320052
0.0322775
0.0325198
0.0331501
0.0331799
0.0342048
0.0313292
0.031186
0.0315251
0.031452
0.0317425
0.0320049
0.0322274
0.0328288
0.0328064
0.0337422
0.0316464
0.0314893
0.031821
0.0317475
0.032025
0.0322686
0.0324624
0.0330113
0.0329283
0.033767
0.0301186
0.0299576
0.0302092
0.0300483
0.0301827
0.0302255
0.0301531
0.030372
0.0300178
0.0300338
0.0299517
0.0298305
0.0301058
0.0299793
0.0301725
0.0302927
0.0303179
0.0306611
0.030382
0.0306024
0.0302159
0.0301104
0.0303901
0.0302842
0.0305047
0.0306678
0.0307574
0.0311899
0.0310184
0.0315384
0.03005
0.0299594
0.0302561
0.0301796
0.0304468
0.0306807
0.0308766
0.0314674
0.0314965
0.0325182
0.0301865
0.0301158
0.0304248
0.0303758
0.030685
0.0309833
0.0312765
0.0320136
0.03224
0.0337004
0.0302311
0.0301734
0.0304922
0.030463
0.0308013
0.0311419
0.0314955
0.0323203
0.0326577
0.0343459
0.0301769
0.0301238
0.0304484
0.0304287
0.0307789
0.0311328
0.0314985
0.0323325
0.0326608
0.034317
0.030421
0.0303752
0.0306983
0.030681
0.031029
0.031374
0.031716
0.0324989
0.032736
0.0341624
0.0301909
0.0301405
0.0304662
0.0304426
0.0307824
0.0311083
0.0314124
0.0321323
0.0322525
0.033448
0.0304363
0.0303687
0.0306858
0.0306573
0.0309758
0.0312684
0.031518
0.0321406
0.0321487
0.0331008
0.028873
0.0287591
0.0289738
0.0288226
0.0289401
0.0289554
0.0288361
0.0289875
0.0285643
0.0282422
0.028762
0.0286956
0.028938
0.028832
0.0290244
0.0291404
0.0291484
0.0294523
0.0290708
0.0288409
0.0289984
0.0289492
0.0291981
0.0291178
0.0293461
0.0295208
0.0296217
0.0300683
0.0298815
0.0302605
0.028856
0.0288267
0.0290972
0.0290559
0.0293489
0.029627
0.0298935
0.0306123
0.0308236
0.0323004
0.0289988
0.0289932
0.0292793
0.0292742
0.0296244
0.0299951
0.0304116
0.0313796
0.0319823
0.0344286
0.0290478
0.0290576
0.0293556
0.0293753
0.0297632
0.0301914
0.0306946
0.0318011
0.0326226
0.0355476
0.0289947
0.0290097
0.029314
0.0293437
0.0297437
0.0301839
0.0306932
0.0317941
0.0325789
0.035353
0.0292239
0.0292452
0.0295467
0.0295766
0.0299686
0.0303872
0.0308451
0.031836
0.0323942
0.0345548
0.0290246
0.0290415
0.0293441
0.0293645
0.0297417
0.0301274
0.0305184
0.0313883
0.0317033
0.0332541
0.0292213
0.0292166
0.0295088
0.029518
0.0298628
0.030195
0.0304963
0.0312108
0.0313016
0.0324032
0.0275947
0.0275134
0.0276908
0.0275446
0.0276318
0.0276039
0.0274167
0.0274783
0.0270144
0.0260593
0.0275262
0.0274994
0.0277077
0.0276169
0.0277929
0.0278842
0.0278408
0.02805
0.0274492
0.0258881
0.0277355
0.0277268
0.0279433
0.0278825
0.0281022
0.0282684
0.0283517
0.0287762
0.0285262
0.0282419
0.0276158
0.0276322
0.0278748
0.0278636
0.0281685
0.0284786
0.0288089
0.0296683
0.0301983
0.0323467
0.0277596
0.027803
0.0280647
0.0280983
0.0284772
0.0289145
0.0294644
0.0307169
0.0320155
0.0363457
0.0278119
0.0278728
0.0281481
0.0282113
0.0286364
0.0291482
0.0298161
0.0312743
0.0329914
0.0384276
0.0277632
0.0278295
0.0281108
0.0281834
0.028619
0.0291378
0.0297968
0.031215
0.0328144
0.0378178
0.027976
0.0280469
0.0283237
0.0283928
0.0288116
0.0292896
0.0298526
0.0310588
0.0321352
0.0354682
0.027806
0.0278719
0.0281477
0.0282033
0.0285988
0.0290254
0.0294813
0.0304771
0.0310485
0.032806
0.027964
0.0280045
0.0282678
0.0283048
0.0286552
0.0290055
0.0293295
0.0300911
0.0303338
0.0314095
0.0262685
0.0262114
0.0263551
0.0262126
0.0262613
0.0261774
0.025892
0.0258051
0.0253777
0.0239698
0.0262333
0.0262363
0.0264127
0.0263325
0.026477
0.0265159
0.0263572
0.0263329
0.0253701
0.0217995
0.0264182
0.0264394
0.0266248
0.0265768
0.0267698
0.0268952
0.0268983
0.0271685
0.0266291
0.0253497
0.0263206
0.0263717
0.026587
0.0265986
0.0268969
0.0272085
0.0275537
0.0284428
0.0290152
0.032438
0.0264615
0.0265421
0.0267791
0.0268433
0.027231
0.0277047
0.0283477
0.0297809
0.0314885
0.0388993
0.0265157
0.0266151
0.0268668
0.0269639
0.0274045
0.0279684
0.0287608
0.030456
0.0327981
0.042068
0.0264722
0.0265764
0.0268332
0.0269375
0.0273841
0.0279454
0.0287014
0.0302973
0.0324207
0.0407068
0.0266672
0.0267734
0.0270232
0.0271188
0.027537
0.028032
0.0286299
0.0298799
0.0311427
0.0360994
0.0265221
0.0266231
0.0268696
0.026947
0.0273325
0.0277555
0.0281962
0.0291267
0.0296075
0.0314897
0.026649
0.0267198
0.0269514
0.0270027
0.027331
0.0276574
0.0279341
0.0285879
0.0287302
0.0300173
0.0249054
0.024868
0.0249832
0.024847
0.0248613
0.0247281
0.0243595
0.0241234
0.0238955
0.0240118
0.0248949
0.0249206
0.0250675
0.0249952
0.0251015
0.0250734
0.024771
0.0244781
0.0234768
0.0207402
0.0250564
0.0250992
0.0252543
0.0252133
0.0253669
0.0254225
0.0252878
0.0253399
0.0244018
0.0230252
0.0249783
0.0250542
0.0252416
0.0252673
0.0255393
0.025806
0.0260681
0.0268332
0.0266533
0.0298522
0.0251127
0.0252192
0.0254294
0.0255115
0.0258806
0.0263272
0.0269285
0.0282641
0.0289932
0.0358963
0.0251669
0.0252922
0.0255171
0.0256328
0.0260559
0.0265983
0.0273586
0.0289097
0.0301012
0.0380778
0.0251283
0.0252572
0.0254853
0.0256045
0.0260262
0.0265536
0.0272463
0.0286152
0.0295001
0.0358454
0.0253042
0.0254322
0.0256506
0.0257553
0.026137
0.0265768
0.0270647
0.0280194
0.0281431
0.0313163
0.0251812
0.025303
0.025516
0.025599
0.0259408
0.0262957
0.0266032
0.0272294
0.0268006
0.0277892
0.025281
0.025369
0.0255655
0.0256163
0.0258938
0.026145
0.026296
0.0266861
0.0261252
0.0270917
0.0235136
0.0234952
0.0235898
0.0234704
0.023472
0.0233239
0.0229119
0.022518
0.0217875
0.0202935
0.0235193
0.0235639
0.0236864
0.0236265
0.0237065
0.0236324
0.0232057
0.0226588
0.0212966
0.0171206
0.0236578
0.0237167
0.0238453
0.0238121
0.0239315
0.0239246
0.023624
0.0234342
0.0219151
0.0178505
0.0235951
0.0236888
0.0238498
0.0238853
0.0241254
0.0243263
0.0244089
0.0249638
0.0238839
0.0238276
0.0237199
0.0238431
0.0240258
0.0241168
0.0244506
0.0248235
0.0252438
0.0263564
0.0259812
0.0299131
0.0237721
0.0239131
0.024109
0.0242312
0.0246136
0.025074
0.0256518
0.026914
0.026841
0.0317748
0.0237377
0.0238804
0.0240773
0.0241984
0.0245698
0.0250017
0.02549
0.0264896
0.0259701
0.0286926
0.0238954
0.0240338
0.0242186
0.0243197
0.0246415
0.0249741
0.0252395
0.0258083
0.0246422
0.0243056
0.0237925
0.0239246
0.0241029
0.02418
0.024459
0.024706
0.0248016
0.0251004
0.0236023
0.021824
0.0238715
0.0239661
0.0241273
0.0241691
0.0243831
0.0245312
0.0245029
0.0246577
0.0231339
0.0215286
0.0221043
0.0221077
0.022192
0.022105
0.022125
0.0220121
0.0215976
0.0210466
0.0199869
0.0168292
0.0221188
0.0221821
0.0222885
0.0222524
0.0223336
0.0222721
0.0217957
0.0210784
0.0197524
0.0151866
0.0222343
0.0223079
0.0224175
0.0224018
0.0225132
0.0225086
0.022127
0.0217989
0.0204901
0.0158022
0.0221829
0.0222908
0.0224307
0.0224811
0.0227082
0.0228973
0.0228604
0.0233334
0.0224231
0.0209626
0.0222952
0.0224296
0.0225883
0.0226892
0.0230007
0.023343
0.0236344
0.0247279
0.0245843
0.0277221
0.0223436
0.0224936
0.0226632
0.0227916
0.0231432
0.023558
0.0240103
0.0252609
0.0253258
0.0294688
0.0223125
0.0224622
0.0226306
0.0227531
0.0230832
0.0234521
0.0237963
0.0247074
0.0240341
0.0251751
0.0224523
0.0225945
0.0227494
0.0228474
0.0231195
0.023379
0.0234842
0.0239054
0.0224757
0.020127
0.0223681
0.0225041
0.0226522
0.0227257
0.0229543
0.0231291
0.0230632
0.0232313
0.0215037
0.0175801
0.02243
0.0225265
0.0226586
0.0226959
0.0228635
0.0229457
0.0227747
0.02288
0.0212148
0.0176733
0.0206785
0.0207079
0.0207921
0.0207542
0.0208273
0.0208251
0.020544
0.0200164
0.0192602
0.0161379
0.0206961
0.0207797
0.0208794
0.0208834
0.0210024
0.0210434
0.020703
0.0200349
0.0192418
0.0160582
0.0207896
0.0208789
0.0209792
0.0209985
0.0211418
0.0212426
0.0209936
0.0207597
0.0203398
0.0180045
0.0207457
0.020867
0.0209945
0.0210747
0.0213256
0.0216075
0.0216593
0.0222613
0.0224395
0.023235
0.0208435
0.0209872
0.0211296
0.0212534
0.0215789
0.0219984
0.0223709
0.0237021
0.0249327
0.0309346
0.0208869
0.0210434
0.0211944
0.0213417
0.0217
0.0221763
0.0227139
0.0242779
0.0257658
0.0327477
0.0208585
0.0210127
0.0211611
0.0212985
0.0216252
0.0220326
0.0224336
0.0235989
0.0239348
0.0266939
0.0209816
0.0211257
0.0212602
0.0213698
0.0216309
0.0219137
0.0220466
0.022633
0.0218841
0.0199382
0.0209149
0.0210539
0.0211824
0.0212682
0.0214858
0.0216839
0.0216266
0.0219119
0.0207959
0.0164784
0.0209647
0.0210635
0.0211787
0.0212294
0.0213931
0.0215082
0.0213443
0.0216174
0.0207075
0.0168175
0.0192424
0.0192986
0.0193894
0.0194144
0.0195687
0.0197491
0.0197879
0.0195212
0.0193453
0.0171451
0.0192583
0.0193615
0.0194605
0.0195172
0.0197002
0.0199115
0.0198937
0.0194867
0.019131
0.0175561
0.0193306
0.0194348
0.0195321
0.0195986
0.0197991
0.0200674
0.0201239
0.0201163
0.0202324
0.0207948
0.0192906
0.019423
0.0195431
0.019662
0.0199558
0.0203855
0.0206742
0.0214185
0.0223363
0.0268862
0.0193728
0.0195223
0.0196531
0.0198079
0.0201659
0.0207186
0.0213094
0.022847
0.0252088
0.0354098
0.01941
0.0195697
0.0197075
0.0198826
0.020269
0.0208668
0.021625
0.0235228
0.0264151
0.037788
0.0193838
0.0195399
0.0196748
0.0198378
0.0201869
0.0206946
0.021286
0.0228109
0.0242741
0.0304019
0.0194915
0.0196361
0.0197581
0.0198926
0.0201728
0.0205438
0.0208402
0.0217433
0.0218311
0.0214053
0.0194409
0.0195828
0.0197008
0.0198149
0.0200554
0.0203489
0.0204449
0.0209899
0.0207589
0.0171264
0.019483
0.0195858
0.0196957
0.0197794
0.0199789
0.0202145
0.0202182
0.0207874
0.0209882
0.0177371
0.0177953
0.0178726
0.0179679
0.018055
0.0182909
0.0186645
0.0191274
0.0193591
0.0199835
0.0189674
0.0178061
0.017921
0.0180156
0.0181195
0.018357
0.0187225
0.0190827
0.0190795
0.0190139
0.0185663
0.0178579
0.0179689
0.0180581
0.0181628
0.0184021
0.0187959
0.0191471
0.0193391
0.0192334
0.0210208
0.0178185
0.0179523
0.0180579
0.0182019
0.0185087
0.0190212
0.0194921
0.0201717
0.0204744
0.0263677
0.0178841
0.0180294
0.0181417
0.0183125
0.0186697
0.0192842
0.0200115
0.021415
0.0233393
0.0347709
0.0179146
0.0180679
0.0181867
0.0183764
0.0187625
0.0194193
0.0203195
0.0222422
0.025206
0.038779
0.0178905
0.0180405
0.0181579
0.0183373
0.0186911
0.019258
0.0199914
0.0217086
0.0234513
0.0319617
0.0179843
0.0181234
0.0182312
0.0183866
0.0186807
0.0191221
0.0195713
0.0207521
0.0213124
0.021853
0.0179492
0.0180893
0.0181973
0.01834
0.0186063
0.0189979
0.0192853
0.0201215
0.0207704
0.0179942
0.0179876
0.0180933
0.0182014
0.0183249
0.0185738
0.0189604
0.019222
0.0201328
0.0215929
0.0195636
0.0163426
0.0164262
0.0165166
0.0166503
0.0169446
0.0174812
0.0184283
0.0194479
0.0219038
0.025091
0.0163447
0.0164552
0.0165332
0.0166614
0.0169161
0.0173712
0.0180982
0.0187052
0.0195711
0.0221417
0.0163761
0.016477
0.0165437
0.0166573
0.0168837
0.0173028
0.0178458
0.0182403
0.0177642
0.0197309
0.0163338
0.0164507
0.0165244
0.0166575
0.0169094
0.0173665
0.0178364
0.0182253
0.0168746
0.0202624
0.0163822
0.0165049
0.0165803
0.0167287
0.0170103
0.0175258
0.0181446
0.0190033
0.0189432
0.0270401
0.0164051
0.0165346
0.0166169
0.0167839
0.0170992
0.0176607
0.0184495
0.0199899
0.0216989
0.0339504
0.0163828
0.016511
0.0165955
0.0167595
0.0170621
0.0175682
0.0182415
0.0198801
0.0211159
0.0298796
0.0164645
0.0165845
0.0166655
0.0168169
0.0170863
0.0175201
0.0179956
0.0193435
0.0203284
0.0214844
0.0164428
0.0165696
0.0166568
0.0168083
0.0170729
0.0175118
0.0179419
0.0190666
0.020954
0.0203859
0.0164827
0.0165817
0.0166804
0.0168314
0.017113
0.0176232
0.0181612
0.0194259
0.0224951
0.0236111
0.0148934
0.0149636
0.0150367
0.0151919
0.0155038
0.0161224
0.0175396
0.019411
0.0240725
0.0404619
0.014884
0.0149688
0.0150155
0.0151356
0.0153551
0.0157983
0.0168144
0.0180624
0.020196
0.0331758
0.0148941
0.0149632
0.0149899
0.0150742
0.0152236
0.0155461
0.0161461
0.016701
0.0161416
0.0223488
0.0148453
0.0149222
0.0149437
0.0150215
0.0151424
0.0153974
0.0156763
0.015689
0.0130191
0.0159752
0.0148755
0.0149525
0.0149699
0.0150483
0.0151725
0.0154248
0.0156841
0.015786
0.0136329
0.0192809
0.0148896
0.014973
0.0149974
0.0150944
0.0152595
0.0155643
0.0159663
0.0168151
0.0168132
0.0280174
0.0148683
0.0149542
0.014986
0.0150913
0.0152743
0.0155862
0.0159594
0.0172263
0.0177119
0.0277679
0.0149382
0.0150211
0.0150577
0.0151677
0.0153575
0.0156866
0.0160285
0.0173314
0.0190524
0.0247362
0.0149281
0.0150235
0.0150723
0.015198
0.0154109
0.0158129
0.0162957
0.0175565
0.0210334
0.0288189
0.0149709
0.0150486
0.0151215
0.0152694
0.0155366
0.016083
0.0168406
0.0182839
0.0229097
0.0334531
0.0134609
0.0134969
0.0135418
0.0136866
0.0139607
0.0144984
0.0162035
0.0189594
0.0226033
0.0516662
0.0134375
0.0134763
0.0134809
0.0135611
0.0136922
0.0139831
0.0151444
0.0172533
0.0188732
0.0444477
0.0134259
0.0134431
0.013419
0.0134423
0.0134626
0.0135692
0.0141351
0.0151926
0.0140368
0.028936
0.0133677
0.0133842
0.0133422
0.013332
0.0132711
0.0132195
0.0132506
0.0132404
0.00918384
0.015546
0.013379
0.0133906
0.0133376
0.0133112
0.0132263
0.0131137
0.0129182
0.0124293
0.007689
0.0132484
0.0133824
0.0134003
0.013353
0.0133421
0.0133018
0.0132415
0.0130793
0.0130897
0.00969546
0.0185456
0.0133603
0.0133852
0.0133495
0.0133575
0.0133646
0.0133754
0.0132536
0.0139029
0.0120537
0.0226287
0.0134189
0.0134463
0.0134235
0.0134545
0.0135101
0.0136366
0.0137093
0.0148109
0.0160399
0.0298304
0.0134157
0.0134612
0.0134542
0.0135139
0.0136156
0.0138659
0.0142872
0.0156094
0.0188818
0.0388112
0.013464
0.0135005
0.0135271
0.0136283
0.0138101
0.0142311
0.0150337
0.0164957
0.0197817
0.040533
0.022749
0.0268956
0.0264894
0.0251428
0.0240286
0.0231334
0.022679
0.0225915
0.0231436
0.022431
0.0193057
0.023948
0.023597
0.0227654
0.0222062
0.0217261
0.0217516
0.0221034
0.0230683
0.0230363
0.0243577
0.0267932
0.02467
0.023433
0.0222736
0.0212207
0.0211411
0.021716
0.0229564
0.0230074
0.0327725
0.0317399
0.0276858
0.0251819
0.0229124
0.0210085
0.0204942
0.0210841
0.0225624
0.022879
0.0399214
0.0360855
0.0307386
0.0268105
0.0234477
0.0208811
0.019928
0.0204238
0.0220931
0.0228654
0.0431939
0.0383367
0.0329846
0.0282791
0.0240976
0.0211929
0.0199455
0.0201075
0.0217265
0.022886
0.0420149
0.0378531
0.0331597
0.0287063
0.0246302
0.0217255
0.020277
0.0201061
0.0215911
0.0228945
0.0368242
0.0343984
0.0302178
0.0264353
0.0231545
0.0208901
0.0198837
0.0200156
0.0216618
0.0228305
0.0313325
0.031593
0.0274217
0.0233683
0.0207438
0.0196147
0.0196839
0.0204009
0.0219606
0.0223394
0.0297543
0.0312793
0.0281756
0.0242313
0.0219848
0.02118
0.0212154
0.0215082
0.022328
0.0217453
0.0237733
0.0223714
0.0206119
0.019535
0.0190814
0.0191631
0.0199952
0.0212014
0.022885
0.0243596
0.0189263
0.0184888
0.0171698
0.0167093
0.0162195
0.0159433
0.0169537
0.0191831
0.022102
0.0242512
0.0215903
0.0209775
0.0192647
0.0188857
0.0178239
0.0166321
0.0167272
0.0184535
0.0214022
0.0234733
0.0291816
0.0252144
0.0226523
0.0211757
0.0190282
0.0172307
0.0168751
0.0180176
0.0206249
0.0224475
0.0349871
0.0288085
0.0258441
0.0231606
0.020177
0.0180341
0.0173342
0.0179662
0.0201335
0.0217307
0.0364011
0.0306901
0.027595
0.0242035
0.0210238
0.019027
0.0182415
0.0185697
0.020212
0.0215807
0.0343356
0.0302
0.02766
0.024464
0.0213958
0.0194945
0.0187783
0.0190172
0.0205337
0.0220116
0.0299645
0.0271461
0.0249975
0.0224651
0.0199496
0.018528
0.0181975
0.0188873
0.0209896
0.0228392
0.0275304
0.0245992
0.0216185
0.0191136
0.0172635
0.0167059
0.0172841
0.0189157
0.0217785
0.0241049
0.0281586
0.0258447
0.02235
0.0196977
0.0185193
0.0186774
0.0197799
0.021261
0.0230108
0.0248965
0.0206108
0.0179009
0.0168813
0.0166898
0.0163444
0.0161745
0.0169334
0.0185768
0.0207358
0.0220484
0.0134799
0.0138204
0.0137574
0.0142315
0.013847
0.013264
0.0138067
0.015906
0.0191538
0.021185
0.0134167
0.0154272
0.0160023
0.016331
0.0154061
0.0142907
0.0143053
0.0155919
0.018401
0.0202579
0.0198609
0.0202402
0.0195523
0.0185233
0.0165076
0.0149771
0.0148407
0.0156779
0.0177687
0.0189509
0.0255471
0.0238166
0.0225373
0.0201715
0.0172244
0.0152152
0.0148519
0.0155615
0.0174163
0.0182511
0.0269776
0.0255462
0.0236666
0.0204947
0.0177382
0.0161313
0.0156175
0.0162413
0.0179316
0.0184717
0.0247223
0.0245796
0.0229807
0.0198892
0.0175728
0.0165957
0.0164913
0.0172132
0.0188857
0.0194528
0.0214337
0.0215401
0.0204143
0.0183555
0.0168088
0.0164728
0.0167911
0.0177646
0.0198561
0.0208156
0.0209235
0.0189654
0.0175062
0.0161812
0.0155014
0.0158073
0.0165699
0.0179991
0.02077
0.0223945
0.0227782
0.0203103
0.0185339
0.0177328
0.0176859
0.0182175
0.0190497
0.0204977
0.0226121
0.0240984
0.0170532
0.0156121
0.0157752
0.0164695
0.0161694
0.01529
0.0152037
0.016114
0.0177144
0.0180036
0.0104886
0.011387
0.0120082
0.0134212
0.0133437
0.0124719
0.0124161
0.0135982
0.0159555
0.0169079
0.00993718
0.0120968
0.0135981
0.0145288
0.0134939
0.0122854
0.0124281
0.0134259
0.0154967
0.0162828
0.014854
0.0170165
0.0169653
0.0162225
0.014253
0.0130095
0.0132372
0.0139909
0.0154064
0.0155011
0.0206802
0.0208826
0.0194354
0.0170757
0.0143499
0.0128411
0.0128034
0.0135211
0.0150546
0.0151919
0.0227277
0.0222782
0.0201434
0.0170419
0.0146386
0.0133149
0.0128541
0.013506
0.0152814
0.0154788
0.0197043
0.0204538
0.0189513
0.0161311
0.0144375
0.0137627
0.0136038
0.0143071
0.0162672
0.0165567
0.016253
0.0174679
0.0170611
0.0155579
0.0147782
0.0147743
0.014924
0.0157184
0.0176852
0.0181066
0.0161947
0.0155937
0.0153348
0.0153337
0.0156257
0.0163629
0.0165631
0.0169648
0.0187209
0.0191592
0.0186445
0.0175098
0.0173498
0.0178208
0.0184183
0.0187047
0.0185385
0.0186974
0.0199733
0.020214
0.0160494
0.0154898
0.0157699
0.0166855
0.0161709
0.0146561
0.0140902
0.014509
0.0156343
0.0155491
0.0109835
0.0113957
0.0121894
0.0138412
0.0136216
0.0120536
0.0117191
0.0123622
0.0139456
0.0142161
0.0113985
0.0116615
0.0126568
0.0138804
0.0122048
0.0105028
0.0108733
0.0118615
0.0135218
0.0136551
0.0153259
0.0158812
0.0155443
0.0148141
0.0124661
0.0111992
0.0116884
0.0125424
0.0138989
0.0135557
0.0216117
0.0202061
0.0177297
0.0150285
0.0125018
0.0114606
0.0116459
0.0123142
0.0136872
0.0135358
0.0243258
0.0218322
0.0183328
0.0149521
0.0126089
0.0115241
0.0112825
0.0117206
0.0133273
0.0133722
0.0201092
0.0194571
0.0170809
0.014249
0.0125191
0.0118079
0.0115162
0.0118504
0.0136045
0.0140143
0.0153945
0.0161389
0.0160179
0.0145421
0.0134976
0.012952
0.0126789
0.013058
0.0149025
0.0154908
0.0144383
0.0147218
0.0153799
0.0157567
0.0160073
0.0160981
0.0154499
0.0151705
0.0163313
0.0164334
0.0171141
0.0169155
0.0174469
0.0181943
0.0186618
0.0184067
0.0175311
0.0167025
0.0170903
0.0167231
0.0163768
0.0157921
0.0158128
0.0166219
0.0157022
0.0134763
0.0129006
0.013653
0.014779
0.0144203
0.0126028
0.012177
0.0128524
0.0146478
0.0135532
0.0107171
0.0106037
0.0118077
0.0132358
0.0128217
0.0143731
0.012787
0.0127242
0.0137491
0.0106441
0.00820802
0.00932797
0.011019
0.0126356
0.0119895
0.018012
0.0165195
0.0151027
0.0136276
0.0105182
0.00912918
0.0101843
0.011559
0.0130578
0.0122575
0.0244744
0.0210379
0.0171049
0.0136755
0.0109996
0.0101579
0.0108544
0.0118166
0.0131459
0.0124278
0.0273387
0.0225997
0.0177536
0.0138595
0.0113391
0.0104586
0.0108731
0.0113098
0.0125565
0.0118412
0.0226844
0.0201152
0.0168315
0.0137198
0.0117051
0.0109639
0.0109465
0.0109738
0.0121762
0.0118236
0.0164747
0.0163129
0.0163655
0.0145605
0.0129781
0.01202
0.011572
0.0114031
0.0126407
0.0128236
0.0142051
0.0150067
0.0161977
0.0163603
0.0157382
0.0146572
0.0134506
0.0128956
0.0139691
0.013804
0.0171659
0.0171318
0.0179011
0.018436
0.0183433
0.0172981
0.0158446
0.0147647
0.0149136
0.0141638
0.0164384
0.0159158
0.0160902
0.0170882
0.0149645
0.0117606
0.0112219
0.0129243
0.0146575
0.0137975
0.012514
0.0125914
0.013421
0.0157916
0.0126423
0.00797971
0.00843126
0.0111541
0.0132379
0.0120372
0.0142363
0.0130627
0.0130165
0.0140242
0.00931789
0.00633459
0.00776162
0.0106954
0.0126407
0.0110522
0.0174894
0.0159952
0.0149585
0.0131915
0.00940379
0.00805597
0.00920112
0.0112853
0.0128558
0.0112906
0.0237828
0.0205962
0.0169178
0.0132047
0.0102606
0.00942884
0.0104069
0.0118129
0.0129075
0.0113751
0.027414
0.0223836
0.0177615
0.0137693
0.0110334
0.0102945
0.0111486
0.0117488
0.0123244
0.0104894
0.0232597
0.0203831
0.0173409
0.0141882
0.0121152
0.0113962
0.0117375
0.0115696
0.0118339
0.01005
0.0163863
0.0165964
0.0174881
0.0154956
0.0136724
0.0125856
0.012155
0.0113908
0.01166
0.0104316
0.0137204
0.0154199
0.0174231
0.0173537
0.0159479
0.014449
0.0130257
0.0119014
0.0120874
0.011043
0.0176778
0.0174835
0.0184414
0.0190107
0.018184
0.0163417
0.0144405
0.0131777
0.0130642
0.0120018
0.0211404
0.0185237
0.0182979
0.0202504
0.0169921
0.0112127
0.00999729
0.0128815
0.0159736
0.0148652
0.0137368
0.0135941
0.0149551
0.0192928
0.0150013
0.00770378
0.00804174
0.0120168
0.0151724
0.013458
0.0110996
0.0120526
0.0142046
0.0174157
0.011847
0.00776762
0.00913257
0.0125737
0.014651
0.0121034
0.0122761
0.0129155
0.0160671
0.016203
0.0113388
0.00958594
0.0108268
0.0129983
0.0143296
0.0117657
0.0175545
0.017407
0.0181009
0.0151871
0.0113895
0.010618
0.0118418
0.0131204
0.0137427
0.0112685
0.0237787
0.0207662
0.0189489
0.0156072
0.0123607
0.0115242
0.0123951
0.0128066
0.0126748
0.00984834
0.0213294
0.0200299
0.0190449
0.0162323
0.0138712
0.0128121
0.0128645
0.0122996
0.0117769
0.00890595
0.0152019
0.0169432
0.0197879
0.0183164
0.0155613
0.0138296
0.0130109
0.0119533
0.0115578
0.00883824
0.014164
0.0163624
0.0197954
0.0201917
0.017419
0.0149019
0.0131557
0.0120057
0.011786
0.00951274
0.0200632
0.0187826
0.019533
0.0209276
0.0198129
0.0164295
0.0141071
0.0128606
0.0129285
0.0115799
0.0440841
0.0305845
0.0269264
0.0305279
0.0274372
0.0168904
0.0102667
0.00975143
0.0161852
0.0247743
0.0302844
0.0217648
0.0230713
0.0302942
0.0264088
0.0142368
0.00991474
0.0108471
0.0160232
0.0214846
0.015604
0.0154811
0.0218843
0.0291938
0.022753
0.0135253
0.0109444
0.0114459
0.0150243
0.0198079
0.0118453
0.013484
0.0232988
0.0268067
0.0191386
0.0130541
0.0112134
0.0105385
0.0137536
0.0203119
0.0139685
0.0173195
0.0251047
0.0233215
0.0161117
0.0123775
0.0110721
0.00958539
0.0126799
0.0205134
0.0217516
0.0224279
0.0249102
0.022127
0.0166682
0.0128978
0.0108794
0.00869105
0.0112167
0.0181541
0.0215303
0.0229649
0.0248823
0.0227718
0.0186923
0.0146931
0.0112679
0.00798987
0.00992421
0.0148614
0.0187193
0.0205065
0.0250593
0.025573
0.0211142
0.0159159
0.0113599
0.00787003
0.00921591
0.0125922
0.0233198
0.0209299
0.0248586
0.0272469
0.0228019
0.0164643
0.0111507
0.00818022
0.00959757
0.0122266
0.0316732
0.0239256
0.0231392
0.0264167
0.0250401
0.018955
0.0131594
0.0105879
0.0123931
0.0163522
0.0921246
0.0581962
0.0429623
0.0427959
0.0406323
0.0316315
0.0158142
0.00249628
0.027254
0.0981012
0.0835737
0.0516378
0.0423579
0.044537
0.0418582
0.0324873
0.0186608
0.00751902
0.029756
0.0936511
0.0531445
0.0375951
0.0396553
0.0434986
0.0406559
0.0329314
0.0202735
0.0089959
0.030691
0.0972691
0.0291927
0.0304211
0.0373766
0.0402893
0.0372054
0.0307252
0.0191814
0.00758894
0.0308892
0.106893
0.0247412
0.029961
0.0356526
0.0365311
0.0335834
0.0286122
0.0182755
0.00703255
0.031834
0.112242
0.0280692
0.0313587
0.0333452
0.0329658
0.0310199
0.0272573
0.0178576
0.00795976
0.0320631
0.107613