/*--------------------------------*- C++ -*----------------------------------*\
  =========                 |
  \\      /  F ield         | OpenFOAM: The Open Source CFD Toolbox
   \\    /   O peration     | Website:  https://openfoam.org
    \\  /    A nd           | Version:  6
     \\/     M anipulation  |
\*---------------------------------------------------------------------------*/
FoamFile
{
    version     2.0;
    format      ascii;
    class       volVectorField;
    location    "2000";
    object      U;
}
// * * * * * * * * * * * * * * * * * * * * * * * * * * * * * * * * * * * * * //

dimensions      [0 1 -1 0 0 0 0];

internalField   nonuniform List<vector> 
7000
(
(0.00059464 0.00059783 0.997869)
(0.000749988 0.000598147 0.999403)
(0.000208589 0.000597107 0.998943)
(7.6079e-05 0.00059621 0.998944)
(1.36576e-05 0.000595047 0.998947)
(-4.82866e-05 0.000593655 0.998948)
(-0.000106715 0.000592144 0.998946)
(-0.000232834 0.000590717 0.998946)
(-0.000777376 0.000589837 0.999422)
(-0.000611585 0.000587012 0.997863)
(0.000594967 0.000754505 0.999409)
(0.000749041 0.000753618 1.00094)
(0.000206909 0.000752407 1.00048)
(7.40526e-05 0.000750684 1.00048)
(1.12362e-05 0.000748545 1.00048)
(-5.10183e-05 0.000746041 1.00048)
(-0.000109402 0.000743375 1.00048)
(-0.00023517 0.000740936 1.00048)
(-0.000780759 0.000738684 1.00095)
(-0.000614409 0.000735221 0.99939)
(0.000594037 0.000211925 0.998945)
(0.000747946 0.000210539 1.00048)
(0.000205694 0.000209439 1.00002)
(7.23894e-05 0.000207851 1.00002)
(9.18797e-06 0.000205809 1.00002)
(-5.33035e-05 0.000203446 1.00002)
(-0.000111692 0.000200958 1.00002)
(-0.000237324 0.000198637 1.00002)
(-0.000783068 0.000196472 1.00049)
(-0.000615355 0.000193944 0.998929)
(0.000593429 8.08231e-05 0.998946)
(0.00074664 7.94648e-05 1.00048)
(0.000204236 7.82198e-05 1.00002)
(7.04626e-05 7.64798e-05 1.00002)
(6.85777e-06 7.42507e-05 1.00002)
(-5.58626e-05 7.16812e-05 1.00002)
(-0.000114221 6.89904e-05 1.00002)
(-0.000239654 6.64967e-05 1.00002)
(-0.000785553 6.42304e-05 1.00049)
(-0.000616815 6.14146e-05 0.998928)
(0.000592782 1.95925e-05 0.998949)
(0.000745326 1.83019e-05 1.00048)
(0.000202693 1.70588e-05 1.00002)
(6.8425e-05 1.53526e-05 1.00002)
(4.39495e-06 1.31676e-05 1.00002)
(-5.85595e-05 1.06565e-05 1.00002)
(-0.000116872 8.0449e-06 1.00002)
(-0.000242066 5.64714e-06 1.00002)
(-0.000788154 3.53106e-06 1.0005)
(-0.000618298 8.60146e-07 0.998929)
(0.000592161 -4.18122e-05 0.998949)
(0.00074411 -4.296e-05 1.00048)
(0.000201284 -4.40496e-05 1.00002)
(6.65725e-05 -4.55061e-05 1.00002)
(2.16321e-06 -4.7367e-05 1.00002)
(-6.09845e-05 -4.94899e-05 1.00002)
(-0.00011923 -5.16695e-05 1.00002)
(-0.000244169 -5.36391e-05 1.00002)
(-0.000790362 -5.52913e-05 1.0005)
(-0.000619532 -5.73687e-05 0.998927)
(0.000591629 -0.000100657 0.998947)
(0.000743118 -0.000101486 1.00048)
(0.00020016 -0.000102323 1.00002)
(6.51055e-05 -0.000103403 1.00002)
(4.08028e-07 -0.000104776 1.00002)
(-6.28657e-05 -0.000106323 1.00002)
(-0.000121026 -0.000107878 1.00002)
(-0.000245711 -0.000109233 1.00002)
(-0.000791928 -0.000110306 1.00049)
(-0.000620386 -0.000111694 0.998924)
(0.000591246 -0.000227885 0.998946)
(0.000742492 -0.000228276 1.00048)
(0.000199393 -0.00022886 1.00002)
(6.41154e-05 -0.000229553 1.00002)
(-7.61649e-07 -0.000230417 1.00002)
(-6.40912e-05 -0.000231355 1.00002)
(-0.000122145 -0.000232245 1.00002)
(-0.000246634 -0.000232987 1.00001)
(-0.000792879 -0.000233471 1.00049)
(-0.00062084 -0.000234494 0.998923)
(0.000591412 -0.000769228 0.999416)
(0.000742088 -0.000770022 1.00095)
(0.000198877 -0.000770369 1.00049)
(6.3512e-05 -0.000770775 1.00049)
(-1.41724e-06 -0.000771343 1.00049)
(-6.4697e-05 -0.000771894 1.00049)
(-0.000122645 -0.000772347 1.00049)
(-0.000246952 -0.000772735 1.00048)
(-0.000793377 -0.000773113 1.00096)
(-0.000621574 -0.000773234 0.999392)
(0.000590198 -0.000605606 0.997867)
(0.000741341 -0.000606823 0.999396)
(0.000198623 -0.000606608 0.998937)
(6.29904e-05 -0.000606841 0.998937)
(-2.03135e-06 -0.000607117 0.998939)
(-6.52276e-05 -0.000607346 0.998939)
(-0.000123099 -0.000607499 0.998935)
(-0.000247605 -0.000607566 0.998933)
(-0.000793451 -0.000608189 0.999411)
(-0.000620692 -0.000607283 0.997842)
(0.00144133 0.00145719 0.994413)
(0.00167262 0.00146062 0.999224)
(0.000365962 0.00145582 0.997377)
(0.000180261 0.00145351 0.997367)
(-1.70116e-05 0.00144993 0.997358)
(-0.00021893 0.0014457 0.997358)
(-0.000393147 0.00144107 0.997367)
(-0.000533709 0.0014361 0.997376)
(-0.001808 0.00143527 0.999272)
(-0.00150669 0.00142285 0.994377)
(0.00144469 0.00170863 0.999242)
(0.00167035 0.00170703 1.00405)
(0.000360254 0.00170303 1.0022)
(0.00017334 0.00169859 1.00219)
(-2.56036e-05 0.001693 1.00217)
(-0.000228743 0.00168648 1.00216)
(-0.000403282 0.00167943 1.00216)
(-0.000542246 0.00167269 1.00215)
(-0.00182111 0.00166792 1.00405)
(-0.00151911 0.00165487 0.999122)
(0.00144021 0.000416019 0.997384)
(0.00166666 0.000412061 1.00219)
(0.000357679 0.000409746 1.00034)
(0.000169658 0.000405945 1.00033)
(-3.00342e-05 0.000401274 1.00032)
(-0.000233673 0.000395978 1.00031)
(-0.000408261 0.000390395 1.00031)
(-0.000546939 0.000385166 1.00031)
(-0.00182634 0.000380338 1.00222)
(-0.0015204 0.000371395 0.997287)
(0.00143878 0.000248036 0.997375)
(0.00166328 0.000244204 1.00218)
(0.000354055 0.00024127 1.00033)
(0.000164825 0.000236773 1.00032)
(-3.56913e-05 0.000231191 1.0003)
(-0.000239822 0.000224857 1.0003)
(-0.000414341 0.000218193 1.0003)
(-0.000552446 0.000211983 1.0003)
(-0.00183406 0.000206532 1.0022)
(-0.00152606 0.000195747 0.997261)
(0.00143675 6.35491e-05 0.997365)
(0.00165968 5.95456e-05 1.00217)
(0.000350167 5.65197e-05 1.00032)
(0.00015956 5.20122e-05 1.00031)
(-4.1973e-05 4.6307e-05 1.00029)
(-0.000246696 3.97991e-05 1.00028)
(-0.00042116 3.2962e-05 1.00028)
(-0.000558546 2.66003e-05 1.00028)
(-0.00184222 2.1253e-05 1.00219)
(-0.00153143 1.1192e-05 0.997234)
(0.00143478 -0.000132521 0.997366)
(0.00165624 -0.000136298 1.00216)
(0.000346507 -0.00013909 1.00032)
(0.000154607 -0.000143072 1.0003)
(-4.79112e-05 -0.000148162 1.00029)
(-0.000253174 -0.000153952 1.00028)
(-0.000427546 -0.000159989 1.00027)
(-0.000564146 -0.00016557 1.00027)
(-0.00184935 -0.000170064 1.00219)
(-0.00153604 -0.000177858 0.99722)
(0.00143308 -0.000309949 0.997375)
(0.0016533 -0.000313089 1.00217)
(0.000343459 -0.000315334 1.00032)
(0.000150501 -0.000318387 1.00031)
(-5.28406e-05 -0.000322367 1.00029)
(-0.000258511 -0.000326887 1.00028)
(-0.000432766 -0.000331567 1.00028)
(-0.00056867 -0.000335937 1.00027)
(-0.00185465 -0.000339194 1.00219)
(-0.00153929 -0.000344237 0.997221)
(0.00143137 -0.000464328 0.997384)
(0.00165123 -0.000465816 1.00217)
(0.000341337 -0.000467508 1.00033)
(0.000147596 -0.000469548 1.00032)
(-5.63881e-05 -0.000472213 1.0003)
(-0.00026235 -0.000475188 1.00029)
(-0.000436573 -0.000478256 1.00029)
(-0.000571871 -0.000481067 1.00028)
(-0.00185803 -0.000482913 1.0022)
(-0.00154081 -0.00048587 0.997226)
(0.00143364 -0.00175032 0.999261)
(0.00165107 -0.00175393 1.00405)
(0.00033985 -0.00175398 1.00221)
(0.000145844 -0.00175546 1.0022)
(-5.83582e-05 -0.00175733 1.00218)
(-0.000264354 -0.00175926 1.00217)
(-0.000438396 -0.00176103 1.00217)
(-0.000573213 -0.00176258 1.00216)
(-0.00186028 -0.00176438 1.00408)
(-0.00154429 -0.00176243 0.999107)
(0.00142731 -0.00147893 0.994396)
(0.001648 -0.00148529 0.999176)
(0.00033963 -0.00148289 0.997338)
(0.000144747 -0.00148409 0.997321)
(-5.93675e-05 -0.00148497 0.997303)
(-0.000264981 -0.00148582 0.997293)
(-0.000438667 -0.00148647 0.997291)
(-0.000573605 -0.00148654 0.997288)
(-0.00185738 -0.00148956 0.999207)
(-0.00153814 -0.00148348 0.994239)
(0.00195462 0.00197581 0.990324)
(0.00207627 0.00198324 0.998896)
(0.000342245 0.00197227 0.995667)
(0.000293188 0.00196817 0.995645)
(-2.33035e-05 0.00196066 0.995584)
(-0.000325699 0.00195189 0.995582)
(-0.000609638 0.00194232 0.995638)
(-0.000587893 0.00193122 0.995653)
(-0.00227551 0.00193113 0.998981)
(-0.00205467 0.0019043 0.990223)
(0.00196203 0.00212406 0.998934)
(0.00207287 0.00212172 1.0075)
(0.000332039 0.00211231 1.00426)
(0.000280386 0.0021039 1.00422)
(-4.02336e-05 0.00209264 1.00414)
(-0.00034552 0.00207935 1.00412)
(-0.000631003 0.00206473 1.00414)
(-0.000605653 0.00205017 1.00413)
(-0.00230312 0.00204288 1.00746)
(-0.00208102 0.00201425 0.998611)
(0.00195178 0.000410485 0.995685)
(0.00206414 0.000403573 1.00424)
(0.000327172 0.000399198 1.00101)
(0.000273171 0.000391473 1.00098)
(-4.88813e-05 0.000382057 1.0009)
(-0.000355283 0.000371141 1.00089)
(-0.000640921 0.0003593 1.00092)
(-0.000614662 0.000348161 1.00092)
(-0.00231195 0.00033882 1.00426)
(-0.00208265 0.000318686 0.995414)
(0.00194959 0.00038741 0.995664)
(0.00205799 0.000380676 1.00421)
(0.0003198 0.000375023 1.00098)
(0.000263113 0.000365867 1.00095)
(-6.08128e-05 0.000354436 1.00087)
(-0.000368574 0.000341176 1.00085)
(-0.000654338 0.000326847 1.00089)
(-0.00062642 0.000313214 1.00088)
(-0.0023291 0.000302264 1.00423)
(-0.00209567 0.000278108 0.995345)
(0.00194545 8.93737e-05 0.995605)
(0.00205111 8.17738e-05 1.00414)
(0.000312284 7.62216e-05 1.00092)
(0.000252549 6.73384e-05 1.00088)
(-7.3629e-05 5.60003e-05 1.0008)
(-0.000382931 4.28325e-05 1.00078)
(-0.00066894 2.86866e-05 1.00081)
(-0.000639265 1.51704e-05 1.00079)
(-0.00234628 4.58054e-06 1.00416)
(-0.00210705 -1.66384e-05 0.995237)
(0.00194169 -0.00020348 0.995605)
(0.00204469 -0.000210712 1.00413)
(0.000305382 -0.000215647 1.00091)
(0.000242895 -0.000223279 1.00087)
(-8.53324e-05 -0.000233075 1.00079)
(-0.000395907 -0.000244321 1.00077)
(-0.000682015 -0.000256204 1.00079)
(-0.000650579 -0.000267493 1.00077)
(-0.00236066 -0.000275941 1.00415)
(-0.00211651 -0.000291406 0.995198)
(0.00193868 -0.000490029 0.995665)
(0.00203936 -0.000496647 1.00419)
(0.000299791 -0.000500359 1.00097)
(0.000235155 -0.000505947 1.00093)
(-9.46395e-05 -0.000513289 1.00085)
(-0.000406032 -0.000521607 1.00082)
(-0.000692074 -0.000530235 1.00084)
(-0.000659032 -0.000538406 1.00082)
(-0.00237058 -0.000544184 1.0042)
(-0.00212301 -0.000552294 0.995233)
(0.00193479 -0.000488436 0.995685)
(0.00203524 -0.000491682 1.0042)
(0.000296233 -0.000494309 1.00098)
(0.000230014 -0.000497645 1.00094)
(-0.000100943 -0.00050218 1.00086)
(-0.000412813 -0.000507159 1.00083)
(-0.000698765 -0.000512155 1.00085)
(-0.000664604 -0.000516963 1.00083)
(-0.00237547 -0.00051945 1.00421)
(-0.00212444 -0.000523531 0.995243)
(0.00194111 -0.00219421 0.998978)
(0.00203732 -0.00220169 1.0075)
(0.000294047 -0.00219944 1.00428)
(0.00022744 -0.00220226 1.00424)
(-0.000103902 -0.00220509 1.00416)
(-0.000415719 -0.00220777 1.00413)
(-0.000701524 -0.00220998 1.00416)
(-0.000666107 -0.00221102 1.00414)
(-0.00238085 -0.00221564 1.00752)
(-0.00213285 -0.0022094 0.998546)
(0.00192772 -0.00201518 0.990281)
(0.00203045 -0.00202834 0.998776)
(0.000292958 -0.00202182 0.995568)
(0.000224674 -0.00202461 0.995527)
(-0.000105494 -0.00202578 0.995442)
(-0.000416096 -0.00202684 0.995413)
(-0.000699976 -0.00202762 0.995437)
(-0.000665372 -0.00202596 0.995421)
(-0.00237332 -0.0020336 0.998802)
(-0.00211877 -0.00201929 0.989849)
(0.00228585 0.00231236 0.985265)
(0.00224117 0.00232366 0.998045)
(0.000262767 0.00230481 0.993565)
(0.000378392 0.00229833 0.993544)
(-6.01947e-05 0.00228489 0.993427)
(-0.000400262 0.00226959 0.993426)
(-0.000799287 0.00225331 0.99354)
(-0.000583527 0.00223285 0.993551)
(-0.00250847 0.00223282 0.998191)
(-0.00242933 0.00218649 0.985119)
(0.00229724 0.00229747 0.9981)
(0.00223552 0.00229341 1.01087)
(0.000246799 0.00227672 1.00636)
(0.000357764 0.00226296 1.00631)
(-8.87264e-05 0.00224355 1.00615)
(-0.000434 0.00222072 1.0061)
(-0.000836979 0.00219577 1.00615)
(-0.000615123 0.00216939 1.0061)
(-0.00255645 0.00215803 1.01075)
(-0.00247416 0.00210679 0.99749)
(0.00227974 0.000343517 0.99359)
(0.0022201 0.000332966 1.00633)
(0.000238959 0.000325907 1.00184)
(0.000345563 0.000312656 1.00181)
(-0.000103185 0.000296698 1.00166)
(-0.000450284 0.000277805 1.00163)
(-0.000853619 0.00025699 1.0017)
(-0.000630516 0.000236979 1.00167)
(-0.00257122 0.000220604 1.00634)
(-0.00247765 0.00018218 0.993078)
(0.0022767 0.000493745 0.993571)
(0.00221036 0.000483397 1.0063)
(0.000226277 0.000473848 1.00182)
(0.000328191 0.000458261 1.00177)
(-0.000124119 0.000438647 1.00162)
(-0.000474072 0.000415402 1.00158)
(-0.000878234 0.000389763 1.00165)
(-0.00065205 0.000364548 1.00161)
(-0.00260389 0.000345024 1.0063)
(-0.00250285 0.00029856 0.992952)
(0.00226941 7.95902e-05 0.993456)
(0.00219887 6.7271e-05 1.00616)
(0.000213863 5.83099e-05 1.00168)
(0.000310314 4.34368e-05 1.00164)
(-0.000146167 2.43105e-05 1.00148)
(-0.000499291 1.69448e-06 1.00143)
(-0.000904574 -2.30971e-05 1.00149)
(-0.000675545 -4.75958e-05 1.00144)
(-0.00263562 -6.63618e-05 1.00615)
(-0.00252395 -0.000106021 0.992727)
(0.00226334 -0.000245387 0.993457)
(0.0021886 -0.000257006 1.00614)
(0.00020261 -0.000264601 1.00167)
(0.000294223 -0.000277167 1.00162)
(-0.000165888 -0.000293326 1.00146)
(-0.000521526 -0.000312056 1.00141)
(-0.000927544 -0.00033215 1.00146)
(-0.000695583 -0.000351715 1.0014)
(-0.00266164 -0.000366201 1.00613)
(-0.0025414 -0.000393623 0.992642)
(0.00225904 -0.000643801 0.993575)
(0.00218054 -0.000655054 1.00625)
(0.000193678 -0.000660328 1.00178)
(0.000281645 -0.000669286 1.00173)
(-0.000181012 -0.000681007 1.00157)
(-0.000538083 -0.000694222 1.00151)
(-0.000944153 -0.000707882 1.00155)
(-0.000709521 -0.000720969 1.00149)
(-0.00267838 -0.000730112 1.00623)
(-0.00255267 -0.000741655 0.99271)
(0.00225218 -0.000455464 0.993594)
(0.00217373 -0.000461196 1.00625)
(0.000188441 -0.00046502 1.00179)
(0.000273614 -0.000469827 1.00174)
(-0.000190759 -0.000476593 1.00157)
(-0.000548375 -0.000483781 1.00151)
(-0.000954227 -0.000490738 1.00156)
(-0.000717767 -0.000497435 1.00149)
(-0.00268413 -0.000499957 1.00624)
(-0.00255323 -0.000501978 0.992714)
(0.00226356 -0.00240215 0.998184)
(0.00217894 -0.00241384 1.01086)
(0.000185398 -0.00240822 1.00639)
(0.000270497 -0.00241261 1.00635)
(-0.00019443 -0.00241581 1.00618)
(-0.000551916 -0.00241857 1.00613)
(-0.000957399 -0.00242023 1.00617)
(-0.000718356 -0.00241897 1.00611)
(-0.00269066 -0.00242434 1.01086)
(-0.00256507 -0.0024097 0.997322)
(0.00224227 -0.00237467 0.985188)
(0.00216801 -0.00239524 0.997819)
(0.000183166 -0.00238346 0.993377)
(0.000265717 -0.0023883 0.993319)
(-0.000196006 -0.00238902 0.993154)
(-0.000550639 -0.00238976 0.993096)
(-0.00095168 -0.00239 0.993146)
(-0.00071256 -0.00238507 0.993094)
(-0.00267466 -0.00239575 0.997836)
(-0.00254149 -0.00237107 0.984355)
(0.002529 0.00256172 0.979751)
(0.00232957 0.00257608 0.996971)
(0.00019906 0.00254811 0.991279)
(0.000439766 0.00253795 0.991258)
(-0.000131495 0.0025158 0.991107)
(-0.000458762 0.00249102 0.991113)
(-0.000985136 0.00246473 0.991275)
(-0.000609815 0.00243107 0.991296)
(-0.00267469 0.00242879 0.99723)
(-0.00272278 0.00235229 0.979604)
(0.00254356 0.00239444 0.997044)
(0.00231963 0.00238694 1.01424)
(0.000174946 0.00236165 1.00849)
(0.000407804 0.00234031 1.00842)
(-0.000176751 0.00230909 1.00819)
(-0.000512829 0.00227253 1.00811)
(-0.00104632 0.00223221 1.00817)
(-0.000661243 0.00218876 1.00807)
(-0.00275503 0.00216971 1.01403)
(-0.00279563 0.002079 0.996041)
(0.00251789 0.000292416 0.991311)
(0.00229653 0.00027691 1.00846)
(0.000163264 0.00026641 1.00275)
(0.000388524 0.000245404 1.0027)
(-0.000199476 0.000220109 1.0025)
(-0.000538648 0.000189541 1.00244)
(-0.00107295 0.000154877 1.00253)
(-0.000686319 0.000120814 1.00247)
(-0.00278352 9.28028e-05 1.00847)
(-0.00280742 1.94768e-05 0.990476)
(0.00251352 0.000578451 0.991288)
(0.00228182 0.00056313 1.00841)
(0.000143112 0.000548115 1.00271)
(0.000360734 0.000523574 1.00265)
(-0.000233693 0.000492162 1.00244)
(-0.000578535 0.000454063 1.00237)
(-0.0011156 0.000410783 1.00245)
(-0.000724384 0.000366408 1.00237)
(-0.00284456 0.00033201 1.00841)
(-0.00285456 0.000243918 0.99024)
(0.00250177 3.95459e-05 0.991134)
(0.00226392 2.09601e-05 1.00822)
(0.000123968 7.37159e-06 1.00253)
(0.000332497 -1.57978e-05 1.00247)
(-0.000269228 -4.59505e-05 1.00224)
(-0.000620282 -8.24516e-05 1.00216)
(-0.0011608 -0.000123612 1.00222)
(-0.000765965 -0.000165988 1.00212)
(-0.00290286 -0.000199024 1.00819)
(-0.0028939 -0.000272044 0.989865)
(0.00249269 -0.000264638 0.991137)
(0.0022486 -0.00028171 1.00819)
(0.000106818 -0.000292745 1.00251)
(0.000307503 -0.000311925 1.00244)
(-0.000300383 -0.00033672 1.00221)
(-0.000656276 -0.000366008 1.00212)
(-0.00119912 -0.00039806 1.00216)
(-0.000800531 -0.000430356 1.00204)
(-0.00294883 -0.000454624 1.00814)
(-0.00292485 -0.000501329 0.989699)
(0.00248712 -0.000783331 0.991298)
(0.00223739 -0.000800264 1.00832)
(9.35353e-05 -0.000807292 1.00266)
(0.000288623 -0.000820575 1.00258)
(-0.000323235 -0.000837748 1.00235)
(-0.00068158 -0.000857149 1.00225)
(-0.00122497 -0.000877104 1.00228)
(-0.000822271 -0.000896358 1.00216)
(-0.00297509 -0.000909357 1.00828)
(-0.00294302 -0.000923358 0.989772)
(0.00247656 -0.000443683 0.991324)
(0.00222729 -0.000452086 1.00832)
(8.64013e-05 -0.000457414 1.00267)
(0.000277154 -0.000463659 1.00259)
(-0.000336855 -0.000472718 1.00235)
(-0.00069562 -0.0004819 1.00225)
(-0.00123822 -0.00048995 1.00229)
(-0.000832457 -0.000497509 1.00216)
(-0.00297874 -0.000497376 1.00828)
(-0.00294022 -0.000493257 0.98979)
(0.00249362 -0.00253953 0.997192)
(0.00223612 -0.00255538 1.01423)
(8.25595e-05 -0.00254612 1.00855)
(0.000274286 -0.00255186 1.00849)
(-0.00034033 -0.00255412 1.00825)
(-0.000698372 -0.00255524 1.00815)
(-0.00123996 -0.00255403 1.00819)
(-0.000828828 -0.00254605 1.00806)
(-0.00298281 -0.00254948 1.01421)
(-0.00295389 -0.00251505 0.995685)
(0.0024636 -0.0026514 0.979632)
(0.00222078 -0.00267989 0.996596)
(7.9288e-05 -0.00266239 0.990967)
(0.000267792 -0.00266941 0.990882)
(-0.000340244 -0.00266853 0.990648)
(-0.000692841 -0.00266762 0.990554)
(-0.00122526 -0.00266598 0.990603)
(-0.000813871 -0.0026541 0.990513)
(-0.00294858 -0.00266711 0.996635)
(-0.00291174 -0.00262199 0.978254)
(0.00270721 0.00274605 0.974176)
(0.00236966 0.00276187 0.995919)
(0.00014891 0.00272329 0.989008)
(0.000479881 0.00270723 0.988971)
(-0.000226746 0.00267255 0.988812)
(-0.000511957 0.00263371 0.988839)
(-0.00117196 0.00259312 0.989045)
(-0.000666865 0.00253964 0.989109)
(-0.00280285 0.00253217 0.996357)
(-0.00295709 0.00241464 0.974106)
(0.00272334 0.0024416 0.996009)
(0.00235239 0.00242812 1.01771)
(0.000113192 0.00239244 1.0107)
(0.000431235 0.00236003 1.01059)
(-0.000296458 0.00231186 1.0103)
(-0.000595135 0.00225494 1.01017)
(-0.00126738 0.0021926 1.0102)
(-0.000747349 0.0021229 1.01007)
(-0.00292775 0.0020906 1.01737)
(-0.00306779 0.00194151 0.994485)
(0.00268853 0.000253536 0.989043)
(0.00232032 0.000231262 1.01066)
(9.6104e-05 0.000215913 1.00373)
(0.000401926 0.000183989 1.00365)
(-0.000331235 0.00014509 1.0034)
(-0.00063514 9.67099e-05 1.00332)
(-0.00130923 4.07229e-05 1.00341)
(-0.000787901 -1.66895e-05 1.00333)
(-0.00298092 -6.54146e-05 1.0107)
(-0.00309658 -0.000199631 0.987789)
(0.0026818 0.000642322 0.988998)
(0.00229846 0.000619988 1.01058)
(6.54381e-05 0.000597345 1.00366)
(0.000359042 0.000560141 1.00356)
(-0.000385594 0.000511331 1.0033)
(-0.000700237 0.000450376 1.00319)
(-0.00138161 0.000378978 1.00325)
(-0.00085533 0.000301932 1.00314)
(-0.00309337 0.000239007 1.01059)
(-0.00318292 7.35418e-05 0.98733)
(0.00266406 -2.20127e-05 0.988823)
(0.00227184 -4.89085e-05 1.01034)
(3.68501e-05 -6.88176e-05 1.00344)
(0.000315785 -0.000103649 1.00333)
(-0.000441418 -0.000149795 1.00305)
(-0.000767981 -0.000207312 1.00292)
(-0.00145793 -0.000274394 1.00295)
(-0.000929712 -0.000347026 1.0028)
(-0.00320286 -0.000407266 1.0103)
(-0.00325714 -0.000544956 0.986727)
(0.00265105 -0.000271269 0.988831)
(0.00224983 -0.000295106 1.01029)
(1.15917e-05 -0.000310775 1.00341)
(0.000278246 -0.000338861 1.00329)
(-0.000489268 -0.000375601 1.003)
(-0.000824967 -0.000420027 1.00286)
(-0.00152125 -0.000470052 1.00286)
(-0.000989721 -0.000522664 1.00268)
(-0.00328698 -0.000563495 1.01022)
(-0.00331409 -0.000645508 0.986423)
(0.00264405 -0.000910703 0.989019)
(0.00223478 -0.00093424 1.01045)
(-7.36407e-06 -0.000943372 1.00358)
(0.000251136 -0.000962167 1.00346)
(-0.000522444 -0.000986118 1.00315)
(-0.000862371 -0.00101322 1.003)
(-0.00156024 -0.00104107 1.00299)
(-0.00102271 -0.00106738 1.0028)
(-0.00332715 -0.00108458 1.01037)
(-0.00334202 -0.00109717 0.986476)
(0.00262935 -0.000450012 0.989076)
(0.002221 -0.000461638 1.01046)
(-1.6682e-05 -0.000468822 1.00361)
(0.000235665 -0.000476575 1.00349)
(-0.00054016 -0.000487836 1.00318)
(-0.000879909 -0.000498227 1.00303)
(-0.00157521 -0.000505541 1.00302)
(-0.00103252 -0.000511122 1.00283)
(-0.00332108 -0.000503 1.01041)
(-0.0033296 -0.000475093 0.98656)
(0.00265213 -0.00263331 0.99625)
(0.00223323 -0.00265266 1.0177)
(-2.1298e-05 -0.00263943 1.01081)
(0.000233979 -0.00264574 1.0107)
(-0.000541953 -0.00264494 1.0104)
(-0.000879229 -0.00264115 1.01025)
(-0.00157194 -0.00263189 1.01023)
(-0.0010184 -0.00260983 1.01004)
(-0.00330734 -0.00259765 1.01765)
(-0.00333409 -0.00252161 0.993779)
(0.00261367 -0.00286808 0.974008)
(0.00221442 -0.00290371 0.995348)
(-2.48554e-05 -0.00287991 0.988537)
(0.00022717 -0.00288861 0.988401)
(-0.000536918 -0.00288424 0.98811)
(-0.000863931 -0.00287922 0.987976)
(-0.0015396 -0.00287206 0.988001)
(-0.000979482 -0.00284749 0.987888)
(-0.00323647 -0.00285323 0.995471)
(-0.00326463 -0.00277639 0.971912)
(0.00282747 0.00287122 0.968625)
(0.00236263 0.00288648 0.994916)
(9.86312e-05 0.00283551 0.986804)
(0.000498659 0.00281032 0.986747)
(-0.000337318 0.00275819 0.986609)
(-0.000561855 0.00269953 0.986675)
(-0.00135609 0.0026373 0.986936)
(-0.000748074 0.0025591 0.987072)
(-0.00289287 0.00254696 0.995597)
(-0.00313028 0.00237256 0.968775)
(0.00284311 0.00243854 0.995022)
(0.00233439 0.00241616 1.02125)
(4.6864e-05 0.00236772 1.01298)
(0.000426001 0.00231947 1.01281)
(-0.000441498 0.00224738 1.01246)
(-0.000686872 0.00216159 1.01228)
(-0.00149759 0.00206592 1.01226)
(-0.000861554 0.00196091 1.01209)
(-0.00307645 0.00191379 1.02072)
(-0.0032929 0.00167103 0.992871)
(0.00279811 0.000211503 0.986838)
(0.00229168 0.0001803 1.01293)
(2.20766e-05 0.000157994 1.0048)
(0.00038263 0.000110885 1.00466)
(-0.000493528 5.20053e-05 1.00438)
(-0.000748272 -2.31713e-05 1.00428)
(-0.00156324 -0.000113581 1.00435)
(-0.000924612 -0.000211052 1.00428)
(-0.00317676 -0.000295667 1.01305)
(-0.00336065 -0.00055397 0.985109)
(0.00278742 0.000682269 0.986757)
(0.00225966 0.000650238 1.01279)
(-2.32294e-05 0.000617143 1.00467)
(0.000317797 0.000562061 1.00452)
(-0.000578411 0.000487557 1.00421)
(-0.000853684 0.000391369 1.00407)
(-0.00168667 0.000273553 1.00409)
(-0.00104696 0.00013771 1.00396)
(-0.00339547 1.8686e-05 1.01287)
(-0.00352965 -0.00030996 0.984256)
(0.00276194 -9.94504e-05 0.986578)
(0.00222144 -0.000137159 1.01251)
(-6.50363e-05 -0.000165587 1.00443)
(0.000252829 -0.00021668 1.00425)
(-0.000664864 -0.000285935 1.00392)
(-0.000963105 -0.000375397 1.00374)
(-0.00181724 -0.000484797 1.0037)
(-0.00118324 -0.000611021 1.00349)
(-0.00361081 -0.000724353 1.01251)
(-0.00368029 -0.000988759 0.983246)
(0.00274387 -0.000271781 0.986593)
(0.0021907 -0.000303924 1.01245)
(-0.00010131 -0.000325731 1.00439)
(0.000197776 -0.000365588 1.00421)
(-0.000737104 -0.000418612 1.00385)
(-0.00105284 -0.000484777 1.00364)
(-0.0019221 -0.000562224 1.00356)
(-0.00128967 -0.000647716 1.00329)
(-0.00376309 -0.000719252 1.01238)
(-0.00378602 -0.000857795 0.982649)
(0.00273512 -0.00102302 0.9868)
(0.00217091 -0.00105414 1.01261)
(-0.000127413 -0.00106572 1.00456)
(0.000160233 -0.0010911 1.00437)
(-0.000783805 -0.00112283 1.00401)
(-0.00110665 -0.00115888 1.00379)
(-0.00197959 -0.00119525 1.00369)
(-0.00133994 -0.00122886 1.0034)
(-0.00382118 -0.0012473 1.01253)
(-0.00382529 -0.0012424 0.982662)
(0.00271599 -0.000459878 0.986907)
(0.00215326 -0.000474615 1.01265)
(-0.000138934 -0.000483298 1.00464)
(0.000140899 -0.000491931 1.00444)
(-0.000804637 -0.000504121 1.00408)
(-0.00112524 -0.000513099 1.00386)
(-0.00199169 -0.000514529 1.00377)
(-0.00133996 -0.000508556 1.0035)
(-0.00378349 -0.000477997 1.01262)
(-0.00378607 -0.000390855 0.982938)
(0.00274526 -0.0026829 0.995393)
(0.00217001 -0.00270515 1.02124)
(-0.000143126 -0.0026871 1.01316)
(0.000142581 -0.00269196 1.01299)
(-0.000801365 -0.00268432 1.01262)
(-0.00111531 -0.00266927 1.0124)
(-0.00197271 -0.00264159 1.0123)
(-0.00129932 -0.00258784 1.01201)
(-0.00372463 -0.0025443 1.02115)
(-0.00375892 -0.0023722 0.991508)
(0.00269784 -0.00302945 0.968409)
(0.00214764 -0.00307215 0.994097)
(-0.000145877 -0.00304152 0.986135)
(0.000138286 -0.00305059 0.985935)
(-0.000785408 -0.00303989 0.985601)
(-0.00107994 -0.00302631 0.985427)
(-0.00190614 -0.00300654 0.985415)
(-0.00121853 -0.00295829 0.985293)
(-0.00357734 -0.00294875 0.99441)
(-0.0036283 -0.0028039 0.965457)
(0.00290365 0.00294948 0.963092)
(0.00232597 0.00296137 0.993928)
(5.23133e-05 0.00289599 0.984662)
(0.000504742 0.00285736 0.984593)
(-0.000449362 0.00278172 0.984509)
(-0.000606701 0.0026953 0.984647)
(-0.00154342 0.00260466 0.98499)
(-0.000874397 0.00249641 0.985227)
(-0.0029873 0.00249201 0.994895)
(-0.00329432 0.00227396 0.963461)
(0.00291591 0.00239952 0.994047)
(0.00228189 0.0023644 1.02477)
(-2.13607e-05 0.00230027 1.01529)
(0.000398539 0.00222995 1.01504)
(-0.000601348 0.00212523 1.01464)
(-0.000787763 0.00199854 1.0144)
(-0.00174241 0.00185798 1.01432)
(-0.00101315 0.00170682 1.01409)
(-0.00319849 0.0016578 1.024)
(-0.00349661 0.00130453 0.991102)
(0.00285965 0.000165852 0.984687)
(0.00222654 0.000122882 1.01523)
(-5.68666e-05 9.07858e-05 1.00593)
(0.000336061 2.28351e-05 1.00574)
(-0.000677864 -6.47136e-05 1.00545)
(-0.000880087 -0.000180402 1.00532)
(-0.00184289 -0.000324055 1.00538)
(-0.00110486 -0.000487136 1.00532)
(-0.00336877 -0.000632361 1.01548)
(-0.00359745 -0.00111764 0.982379)
(0.00284281 0.000700219 0.984569)
(0.00218037 0.000655059 1.01502)
(-0.000122305 0.000607921 1.00575)
(0.000239789 0.000527943 1.00553)
(-0.00080861 0.000416066 1.0052)
(-0.00104915 0.000265812 1.00502)
(-0.00205114 7.26723e-05 1.00499)
(-0.00132781 -0.000164601 1.00481)
(-0.0037845 -0.000399181 1.01525)
(-0.00390557 -0.00105041 0.980759)
(0.00280761 -0.000188241 0.984401)
(0.00212712 -0.00023969 1.01471)
(-0.000182326 -0.000279394 1.00548)
(0.000143889 -0.000352738 1.00524)
(-0.000940853 -0.000454897 1.00487)
(-0.00122483 -0.000592529 1.00463)
(-0.00227337 -0.000770061 1.0045)
(-0.00158229 -0.000990759 1.00419)
(-0.00422334 -0.00122097 1.01482)
(-0.004211 -0.00177149 0.979024)
(0.00278319 -0.000270547 0.984428)
(0.00208521 -0.000312683 1.01462)
(-0.000233238 -0.000342362 1.00543)
(6.47402e-05 -0.000397398 1.00518)
(-0.00104838 -0.000472278 1.00478)
(-0.00136492 -0.000569043 1.00449)
(-0.00244889 -0.000687572 1.00428)
(-0.00178247 -0.000828749 1.00388)
(-0.00454593 -0.000962227 1.01464)
(-0.00443013 -0.00123088 0.977992)
(0.00277227 -0.00112268 0.984646)
(0.00205975 -0.00116193 1.01478)
(-0.000267967 -0.00117616 1.00561)
(1.43846e-05 -0.00120893 1.00535)
(-0.00111211 -0.00124906 1.00493)
(-0.0014401 -0.00129417 1.00463)
(-0.00253211 -0.00133821 1.0044)
(-0.00185688 -0.00137402 1.00396)
(-0.0046221 -0.00137806 1.01477)
(-0.00447664 -0.00129798 0.977929)
(0.00274889 -0.000472403 0.984814)
(0.00203863 -0.000490669 1.01486)
(-0.000281281 -0.000500477 1.00573)
(-7.84371e-06 -0.00050904 1.00547)
(-0.00113324 -0.00051979 1.00505)
(-0.00145399 -0.000522275 1.00476)
(-0.00252811 -0.000507355 1.00455)
(-0.00182073 -0.000471827 1.00416)
(-0.00447791 -0.000380125 1.01493)
(-0.00435956 -0.000114849 0.978565)
(0.00278436 -0.00270299 0.994592)
(0.0020598 -0.00272652 1.02479)
(-0.000283899 -0.00270246 1.01557)
(4.20281e-08 -0.00270289 1.01532)
(-0.00111972 -0.00268273 1.0149)
(-0.00142423 -0.00264629 1.01459)
(-0.00247718 -0.00258248 1.01436)
(-0.00172334 -0.00247068 1.01392)
(-0.00429368 -0.00234857 1.02464)
(-0.00425945 -0.00196926 0.988547)
(0.00272937 -0.00314922 0.962834)
(0.00203632 -0.00319686 0.992807)
(-0.000283338 -0.00315842 0.983757)
(3.15385e-06 -0.0031656 0.983494)
(-0.00108316 -0.00314436 0.983135)
(-0.00135244 -0.00311506 0.982934)
(-0.00234973 -0.00307143 0.982893)
(-0.00155795 -0.00298128 0.982784)
(-0.00400368 -0.00292946 0.993507)
(-0.00403966 -0.0026653 0.958812)
(0.00294912 0.00299312 0.957596)
(0.00227745 0.00299884 0.992957)
(1.76258e-05 0.00291704 0.982591)
(0.000509885 0.00285999 0.982529)
(-0.000547499 0.0027539 0.98254)
(-0.000630803 0.00263145 0.982798)
(-0.00172413 0.0025044 0.98328)
(-0.00109727 0.00237125 0.983669)
(-0.0032442 0.00243014 0.994259)
(-0.003465 0.00228812 0.958288)
(0.00295503 0.00234046 0.993078)
(0.00221241 0.00228874 1.02826)
(-8.4752e-05 0.00220602 1.0176)
(0.000358785 0.00210655 1.01727)
(-0.000762133 0.00195878 1.01681)
(-0.000883848 0.00177768 1.01651)
(-0.00198295 0.00157615 1.01637)
(-0.0011987 0.00137698 1.01613)
(-0.00332142 0.00138368 1.02725)
(-0.00350868 0.00105089 0.990075)
(0.00288666 0.000121033 0.982596)
(0.00214266 6.31059e-05 1.01754)
(-0.000134189 1.80707e-05 1.00713)
(0.000271177 -7.75306e-05 1.00689)
(-0.000872306 -0.00020557 1.00659)
(-0.00102111 -0.000380968 1.00647)
(-0.00213393 -0.000609182 1.00652)
(-0.00132329 -0.000882873 1.00651)
(-0.00357786 -0.0011306 1.01807)
(-0.0038343 -0.00202767 0.980334)
(0.00286109 0.000700842 0.982447)
(0.00207769 0.000638591 1.01725)
(-0.000226502 0.000573279 1.00688)
(0.000130729 0.000459509 1.00661)
(-0.00107085 0.000294467 1.00626)
(-0.00129088 6.2567e-05 1.00605)
(-0.00248791 -0.00025345 1.00597)
(-0.00172851 -0.000673178 1.00575)
(-0.00443983 -0.00111989 1.01781)
(-0.0045669 -0.00246887 0.977254)
(0.00281411 -0.000284087 0.982305)
(0.00200559 -0.000352423 1.0169)
(-0.000310872 -0.000406578 1.0066)
(-8.0718e-06 -0.000509352 1.0063)
(-0.00127025 -0.000657048 1.00589)
(-0.00157093 -0.000865625 1.00559)
(-0.00286881 -0.00115197 1.00534)
(-0.00220322 -0.00153844 1.00489)
(-0.00531671 -0.00197352 1.01731)
(-0.00524604 -0.00310975 0.973686)
(0.00278196 -0.000270989 0.982349)
(0.0019499 -0.000324763 1.01679)