/*--------------------------------*- C++ -*----------------------------------*\
  =========                 |
  \\      /  F ield         | OpenFOAM: The Open Source CFD Toolbox
   \\    /   O peration     | Website:  https://openfoam.org
    \\  /    A nd           | Version:  6
     \\/     M anipulation  |
\*---------------------------------------------------------------------------*/
FoamFile
{
    version     2.0;
    format      ascii;
    class       volScalarField;
    location    "0.05";
    object      p;
}
// * * * * * * * * * * * * * * * * * * * * * * * * * * * * * * * * * * * * * //

dimensions      [0 2 -2 0 0 0 0];

internalField   nonuniform List<scalar> 
56000
(
0.00455705
0.0369756
0.0809237
0.126608
0.170163
0.214907
0.267348
0.329813
0.392856
0.43104
-0.00517917
0.0374347
0.0910835
0.137415
0.178446
0.21958
0.268257
0.329936
0.403258
0.459512
-0.0418911
0.0201547
0.0870858
0.139971
0.184602
0.228217
0.280633
0.349918
0.439737
0.520937
-0.0927601
-0.0136528
0.06855
0.133013
0.186874
0.239136
0.302171
0.386014
0.495661
0.598695
-0.145487
-0.0525537
0.043884
0.120648
0.185545
0.248869
0.324624
0.424063
0.552259
0.67284
-0.193885
-0.0907032
0.017376
0.105394
0.18118
0.255699
0.343904
0.457527
0.600886
0.734398
-0.234755
-0.124593
-0.00768247
0.0896981
0.174962
0.259332
0.358288
0.483603
0.638434
0.780754
-0.266379
-0.151763
-0.0286471
0.0757838
0.168407
0.26048
0.367731
0.501783
0.664657
0.812618
-0.287855
-0.170653
-0.0436483
0.0654314
0.163015
0.260309
0.373126
0.512908
0.680823
0.832077
-0.298704
-0.180328
-0.0514605
0.0599169
0.159986
0.259905
0.375504
0.518109
0.688439
0.841198
-0.298705
-0.180328
-0.051461
0.0599158
0.159985
0.259903
0.375503
0.518108
0.688438
0.841197
-0.287856
-0.170654
-0.0436497
0.0654283
0.163011
0.260304
0.373122
0.512904
0.68082
0.832075
-0.266379
-0.151762
-0.0286489
0.0757787
0.168399
0.260472
0.367723
0.501777
0.664653
0.812614
-0.234752
-0.124589
-0.00768324
0.0896919
0.174952
0.259322
0.358278
0.483595
0.638429
0.78075
-0.193872
-0.0906922
0.0173787
0.105388
0.18117
0.255688
0.343894
0.45752
0.600882
0.734396
-0.145454
-0.0525294
0.0438937
0.120646
0.185538
0.248861
0.324618
0.42406
0.552258
0.672841
-0.0926829
-0.0135986
0.0685743
0.133019
0.186874
0.239135
0.302172
0.386018
0.495666
0.598702
-0.0416256
0.0203076
0.0871494
0.139993
0.184612
0.228225
0.280643
0.349928
0.439748
0.520951
-0.0040926
0.0378468
0.0912335
0.137465
0.178471
0.2196
0.268276
0.329953
0.403273
0.459529
0.0110218
0.038057
0.0811762
0.126676
0.1702
0.214938
0.267376
0.329837
0.392875
0.431058
-36.2029
-36.1218
-35.9685
-35.7746
-35.5642
-35.3434
-35.1103
-34.8734
-34.671
-34.5696
-36.2302
-36.1166
-35.9452
-35.7535
-35.5555
-35.3506
-35.1304
-34.8935
-34.662
-34.5049
-36.3297
-36.1674
-35.9623
-35.7532
-35.5462
-35.3343
-35.1016
-34.8384
-34.5555
-34.3266
-36.4746
-36.2663
-36.0187
-35.7753
-35.5386
-35.2966
-35.0274
-34.7165
-34.3722
-34.0789
-36.6282
-36.3811
-36.0919
-35.8096
-35.5351
-35.2534
-34.9392
-34.5758
-34.1732
-33.8274
-36.77
-36.4935
-36.1688
-35.8492
-35.5362
-35.2139
-34.8549
-34.4427
-33.9912
-33.6064
-36.8891
-36.5924
-36.2398
-35.8883
-35.5412
-35.1823
-34.7841
-34.331
-33.8418
-33.4302
-36.9805
-36.6707
-36.2982
-35.9221
-35.5479
-35.16
-34.7311
-34.2469
-33.7309
-33.3022
-37.0419
-36.7246
-36.3393
-35.9468
-35.554
-35.1463
-34.6964
-34.1917
-33.6587
-33.22
-37.0726
-36.752
-36.3606
-35.9598
-35.5577
-35.1398
-34.6795
-34.1645
-33.6234
-33.1802
-37.0726
-36.752
-36.3606
-35.9598
-35.5577
-35.1398
-34.6795
-34.1645
-33.6234
-33.1802
-37.0419
-36.7246
-36.3393
-35.9468
-35.554
-35.1463
-34.6965
-34.1917
-33.6587
-33.22
-36.9805
-36.6707
-36.2982
-35.9221
-35.5479
-35.16
-34.7311
-34.2469
-33.7309
-33.3022
-36.8891
-36.5924
-36.2398
-35.8883
-35.5412
-35.1824
-34.7842
-34.331
-33.8418
-33.4302
-36.77
-36.4935
-36.1688
-35.8492
-35.5363
-35.2139
-34.855
-34.4427
-33.9912
-33.6064
-36.6282
-36.3811
-36.0919
-35.8096
-35.5351
-35.2535
-34.9392
-34.5759
-34.1732
-33.8274
-36.4745
-36.2662
-36.0186
-35.7753
-35.5386
-35.2966
-35.0274
-34.7165
-34.3722
-34.0789
-36.3294
-36.1673
-35.9622
-35.7531
-35.5462
-35.3343
-35.1016
-34.8384
-34.5555
-34.3266
-36.2296
-36.1162
-35.945
-35.7534
-35.5555
-35.3505
-35.1303
-34.8935
-34.6619
-34.5049
-36.2012
-36.1212
-35.9683
-35.7745
-35.5642
-35.3433
-35.1102
-34.8734
-34.671
-34.5696
-72.4294
-72.2785
-72.0042
-71.669
-71.3149
-70.9486
-70.5603
-70.154
-69.7857
-69.59
-72.4954
-72.2752
-71.9656
-71.6329
-71.3007
-70.9629
-70.5962
-70.1852
-69.7522
-69.4298
-72.6922
-72.3762
-72.0006
-71.6343
-71.2846
-70.9326
-70.5401
-70.0743
-69.5324
-69.0573
-72.969
-72.5627
-72.106
-71.6759
-71.2708
-70.8618
-70.3993
-69.84
-69.1725
-68.5621
-73.2582
-72.7766
-72.2411
-71.7388
-71.2638
-70.7813
-70.2339
-69.5734
-68.7884
-68.069
-73.523
-72.9842
-72.3815
-71.8104
-71.265
-70.7075
-70.0767
-69.323
-68.4405
-67.6401
-73.7443
-73.1655
-72.5103
-71.8806
-71.2727
-70.6485
-69.945
-69.1139
-68.1567
-67.3001
-73.9132
-73.3084
-72.6155
-71.9407
-71.2836
-70.6064
-69.8463
-68.9567
-67.9465
-67.0535
-74.0263
-73.4064
-72.6895
-71.9845
-71.2937
-70.5802
-69.7818
-68.8535
-67.8098
-66.8953
-74.0828
-73.4561
-72.7276
-72.0075
-71.2996
-70.5679
-69.7501
-68.8027
-67.7428
-66.8185
-74.0828
-73.4561
-72.7276
-72.0075
-71.2996
-70.5679
-69.7501
-68.8027
-67.7428
-66.8185
-74.0263
-73.4064
-72.6895
-71.9845
-71.2937
-70.5803
-69.7818
-68.8535
-67.8098
-66.8953
-73.9132
-73.3084
-72.6155
-71.9407
-71.2836
-70.6064
-69.8463
-68.9567
-67.9465
-67.0535
-73.7443
-73.1655
-72.5103
-71.8806
-71.2728
-70.6485
-69.9451
-69.1139
-68.1567
-67.3001
-73.523
-72.9842
-72.3815
-71.8104
-71.265
-70.7075
-70.0767
-69.323
-68.4405
-67.6401
-73.2582
-72.7765
-72.2411
-71.7388
-71.2638
-70.7813
-70.234
-69.5734
-68.7884
-68.069
-72.9689
-72.5626
-72.1059
-71.6759
-71.2708
-70.8619
-70.3994
-69.84
-69.1725
-68.5621
-72.692
-72.3761
-72.0005
-71.6342
-71.2846
-70.9326
-70.5401
-70.0743
-69.5324
-69.0573
-72.4951
-72.275
-71.9654
-71.6328
-71.3006
-70.9629
-70.5962
-70.1852
-69.7522
-69.4298
-72.4288
-72.2782
-72.0041
-71.669
-71.3149
-70.9486
-70.5603
-70.154
-69.7857
-69.59
-108.662
-108.411
-107.999
-107.541
-107.092
-106.647
-106.164
-105.615
-105.045
-104.704
-108.81
-108.422
-107.942
-107.481
-107.063
-106.658
-106.205
-105.637
-104.931
-104.325
-109.165
-108.602
-108.003
-107.484
-107.033
-106.602
-106.101
-105.431
-104.514
-103.607
-109.639
-108.916
-108.177
-107.553
-107.012
-106.488
-105.87
-105.038
-103.886
-102.718
-110.124
-109.269
-108.397
-107.656
-107.005
-106.364
-105.608
-104.605
-103.24
-101.865
-110.563
-109.607
-108.624
-107.773
-107.012
-106.254
-105.365
-104.207
-102.669
-101.14
-110.928
-109.901
-108.831
-107.888
-107.03
-106.169
-105.166
-103.882
-102.211
-100.574
-111.205
-110.132
-108.999
-107.986
-107.053
-106.11
-105.019
-103.64
-101.877
-100.169
-111.39
-110.29
-109.117
-108.057
-107.072
-106.075
-104.924
-103.483
-101.66
-99.9104
-111.483
-110.37
-109.178
-108.094
-107.084
-106.058
-104.877
-103.406
-101.555
-99.7855
-111.483
-110.37
-109.178
-108.094
-107.084
-106.058
-104.877
-103.406
-101.555
-99.7855
-111.39
-110.29
-109.117
-108.057
-107.072
-106.075
-104.924
-103.483
-101.66
-99.9104
-111.205
-110.132
-108.999
-107.986
-107.053
-106.11
-105.019
-103.64
-101.877
-100.169
-110.928
-109.901
-108.831
-107.888
-107.03
-106.169
-105.166
-103.882
-102.211
-100.574
-110.563
-109.607
-108.624
-107.773
-107.012
-106.254
-105.365
-104.207
-102.669
-101.14
-110.124
-109.269
-108.397
-107.656
-107.005
-106.364
-105.608
-104.605
-103.24
-101.865
-109.639
-108.916
-108.177
-107.553
-107.012
-106.488
-105.87
-105.038
-103.886
-102.718
-109.165
-108.602
-108.003
-107.484
-107.033
-106.602
-106.101
-105.432
-104.514
-103.607
-108.81
-108.422
-107.942
-107.481
-107.063
-106.658
-106.205
-105.637
-104.931
-104.325
-108.662
-108.411
-107.999
-107.541
-107.092
-106.647
-106.164
-105.615
-105.045
-104.704
-144.828
-144.438
-143.873
-143.336
-142.89
-142.502
-142.067
-141.468
-140.677
-140.131
-145.124
-144.483
-143.792
-143.24
-142.83
-142.493
-142.088
-141.438
-140.373
-139.294
-145.726
-144.784
-143.893
-143.242
-142.778
-142.392
-141.902
-141.073
-139.615
-137.969
-146.492
-145.28
-144.163
-143.35
-142.749
-142.222
-141.549
-140.452
-138.578
-136.452
-147.26
-145.829
-144.5
-143.512
-142.748
-142.049
-141.168
-139.8
-137.557
-135.055
-147.947
-146.349
-144.846
-143.695
-142.773
-141.905
-140.829
-139.221
-136.683
-133.902
-148.514
-146.798
-145.16
-143.873
-142.814
-141.8
-140.558
-138.757
-135.998
-133.022
-148.943
-147.15
-145.415
-144.026
-142.86
-141.732
-140.363
-138.42
-135.506
-132.399
-149.229
-147.389
-145.593
-144.136
-142.898
-141.693
-140.24
-138.204
-135.192
-132.007
-149.372
-147.511
-145.685
-144.194
-142.92
-141.676
-140.181
-138.099
-135.041
-131.818
-149.372
-147.511
-145.685
-144.194
-142.92
-141.676
-140.181
-138.099
-135.041
-131.818
-149.229
-147.389
-145.593
-144.136
-142.898
-141.693
-140.24
-138.204
-135.192
-132.007
-148.943
-147.15
-145.415
-144.026
-142.86
-141.732
-140.363
-138.42
-135.506
-132.399
-148.514
-146.798
-145.16
-143.873
-142.814
-141.8
-140.558
-138.757
-135.998
-133.022
-147.947
-146.349
-144.846
-143.695
-142.773
-141.905
-140.829
-139.221
-136.683
-133.902
-147.26
-145.829
-144.5
-143.512
-142.748
-142.049
-141.168
-139.8
-137.557
-135.055
-146.492
-145.28
-144.163
-143.35
-142.749
-142.222
-141.549
-140.452
-138.578
-136.452
-145.726
-144.784
-143.893
-143.242
-142.778
-142.392
-141.902
-141.074
-139.615
-137.969
-145.124
-144.482
-143.792
-143.24
-142.83
-142.493
-142.088
-141.438
-140.373
-139.294
-144.828
-144.438
-143.873
-143.336
-142.89
-142.502
-142.067
-141.468
-140.677
-140.131
-180.756
-180.179
-179.46
-178.932
-178.672
-178.598
-178.504
-178.107
-177.177
-176.416
-181.291
-180.284
-179.348
-178.782
-178.556
-178.536
-178.46
-177.944
-176.483
-174.705
-182.257
-180.762
-179.504
-178.782
-178.467
-178.364
-178.147
-177.328
-175.163
-172.362
-183.436
-181.513
-179.906
-178.945
-178.434
-178.127
-177.638
-176.4
-173.524
-169.879
-184.597
-182.328
-180.403
-179.19
-178.453
-177.909
-177.124
-175.476
-171.992
-167.694
-185.625
-183.095
-180.909
-179.468
-178.515
-177.743
-176.687
-174.688
-170.726
-165.949
-186.468
-183.753
-181.366
-179.737
-178.6
-177.634
-176.353
-174.078
-169.762
-164.646
-187.105
-184.266
-181.737
-179.967
-178.688
-177.572
-176.123
-173.645
-169.083
-163.74
-187.53
-184.615
-181.996
-180.133
-178.759
-177.543
-175.981
-173.373
-168.657
-163.176
-187.742
-184.791
-182.129
-180.22
-178.798
-177.532
-175.915
-173.243
-168.452
-162.906
-187.742
-184.791
-182.129
-180.22
-178.798
-177.532
-175.915
-173.243
-168.452
-162.906
-187.53
-184.615
-181.996
-180.133
-178.759
-177.543
-175.981
-173.373
-168.657
-163.176
-187.105
-184.266
-181.737
-179.967
-178.688
-177.572
-176.123
-173.645
-169.083
-163.74
-186.468
-183.753
-181.366
-179.737
-178.6
-177.634
-176.353
-174.078
-169.762
-164.646
-185.625
-183.095
-180.909
-179.468
-178.515
-177.743
-176.687
-174.688
-170.726
-165.949
-184.597
-182.328
-180.403
-179.19
-178.453
-177.909
-177.124
-175.476
-171.992
-167.694
-183.436
-181.513
-179.906
-178.945
-178.434
-178.127
-177.638
-176.4
-173.524
-169.879
-182.257
-180.762
-179.504
-178.782
-178.467
-178.364
-178.147
-177.328
-175.163
-172.362
-181.291
-180.284
-179.348
-178.782
-178.556
-178.536
-178.46
-177.944
-176.483
-174.705
-180.756
-180.179
-179.46
-178.932
-178.672
-178.598
-178.504
-178.107
-177.177
-176.416
-216.125
-215.314
-214.462
-214.1
-214.325
-215.013
-215.825
-216.212
-215.535
-214.833
-217.011
-215.513
-214.314
-213.872
-214.118
-214.847
-215.638
-215.775
-214.109
-211.586
-218.478
-216.231
-214.544
-213.869
-213.977
-214.575
-215.145
-214.799
-211.94
-207.707
-220.212
-217.319
-215.119
-214.108
-213.95
-214.273
-214.466
-213.503
-209.5
-203.887
-221.892
-218.483
-215.824
-214.47
-214.016
-214.031
-213.832
-212.292
-207.34
-200.676
-223.368
-219.569
-216.539
-214.879
-214.147
-213.875
-213.329
-211.309
-205.627
-198.196
-224.574
-220.496
-217.183
-215.274
-214.31
-213.798
-212.971
-210.58
-204.364
-196.392
-225.483
-221.218
-217.703
-215.61
-214.468
-213.775
-212.738
-210.082
-203.498
-195.161
-226.088
-221.708
-218.067
-215.852
-214.593
-213.778
-212.605
-209.778
-202.964
-194.403
-226.39
-221.956
-218.253
-215.978
-214.66
-213.785
-212.545
-209.636
-202.71
-194.044
-226.39
-221.956
-218.253
-215.978
-214.66
-213.785
-212.545
-209.636
-202.71
-194.044
-226.088
-221.708
-218.067
-215.852
-214.593
-213.778
-212.605
-209.778
-202.964
-194.403
-225.483
-221.218
-217.703
-215.61
-214.468
-213.775
-212.738
-210.082
-203.498
-195.161
-224.574
-220.496
-217.183
-215.274
-214.31
-213.798
-212.971
-210.58
-204.364
-196.392
-223.368
-219.569
-216.539
-214.879
-214.147
-213.875
-213.329
-211.309
-205.627
-198.196
-221.892
-218.483
-215.824
-214.47
-214.016
-214.031
-213.832
-212.292
-207.34
-200.676
-220.212
-217.319
-215.119
-214.108
-213.95
-214.273
-214.466
-213.503
-209.5
-203.887
-218.478
-216.231
-214.544
-213.869
-213.977
-214.575
-215.145
-214.799
-211.94
-207.707
-217.011
-215.513
-214.314
-213.872
-214.118
-214.847
-215.638
-215.775
-214.109
-211.586
-216.125
-215.314
-214.462
-214.1
-214.325
-215.013
-215.825
-216.212
-215.535
-214.833
-250.413
-249.33
-248.402
-248.436
-249.587
-251.728
-254.403
-256.718
-257.28
-257.25
-251.77
-249.66
-248.21
-248.104
-249.244
-251.387
-253.959
-255.774
-254.432
-250.897
-253.881
-250.685
-248.534
-248.098
-249.04
-250.99
-253.237
-254.315
-250.998
-244.584
-256.312
-252.193
-249.327
-248.443
-249.044
-250.652
-252.42
-252.653
-247.571
-238.927
-258.64
-253.787
-250.292
-248.962
-249.199
-250.442
-251.739
-251.222
-244.73
-234.416
-260.672
-255.266
-251.265
-249.546
-249.45
-250.362
-251.258
-250.14
-242.589
-231.066
-262.327
-256.524
-252.141
-250.108
-249.737
-250.379
-250.957
-249.388
-241.076
-228.701
-263.572
-257.5
-252.847
-250.583
-250.005
-250.445
-250.793
-248.907
-240.073
-227.123
-264.401
-258.164
-253.34
-250.925
-250.211
-250.517
-250.715
-248.629
-239.47
-226.166
-264.815
-258.499
-253.592
-251.104
-250.321
-250.562
-250.687
-248.504
-239.189
-225.716
-264.815
-258.499
-253.592
-251.104
-250.321
-250.562
-250.687
-248.504
-239.189
-225.716
-264.401
-258.164
-253.34
-250.925
-250.211
-250.517
-250.715
-248.629
-239.47
-226.166
-263.572
-257.5
-252.847
-250.583
-250.005
-250.445
-250.793
-248.907
-240.073
-227.123
-262.327
-256.524
-252.141
-250.108
-249.737
-250.379
-250.957
-249.388
-241.076
-228.701
-260.672
-255.266
-251.265
-249.546
-249.45
-250.362
-251.258
-250.14
-242.589
-231.066
-258.64
-253.787
-250.292
-248.962
-249.199
-250.442
-251.739
-251.222
-244.73
-234.416
-256.312
-252.193
-249.327
-248.443
-249.044
-250.652
-252.42
-252.653
-247.571
-238.927
-253.881
-250.685
-248.534
-248.098
-249.04
-250.99
-253.237
-254.315
-250.998
-244.584
-251.77
-249.66
-248.21
-248.104
-249.244
-251.387
-253.959
-255.774
-254.432
-250.897
-250.413
-249.33
-248.402
-248.436
-249.587
-251.728
-254.403
-256.718
-257.28
-257.25
-282.856
-281.484
-280.571
-281.285
-283.915
-288.45
-294.454
-300.782
-304.829
-304.278
-284.787
-281.978
-280.329
-280.824
-283.39
-287.85
-293.597
-299.001
-299.175
-288.84
-287.662
-283.365
-280.766
-280.818
-283.118
-287.311
-292.588
-296.878
-293.641
-276.271
-290.907
-285.361
-281.816
-281.303
-283.198
-287.003
-291.73
-294.953
-289.039
-266.746
-293.987
-287.453
-283.087
-282.027
-283.506
-286.924
-291.158
-293.515
-285.591
-259.739
-296.664
-289.385
-284.364
-282.832
-283.941
-287.024
-290.858
-292.562
-283.178
-254.769
-298.838
-291.024
-285.51
-283.603
-284.411
-287.226
-290.759
-291.991
-281.577
-251.362
-300.474
-292.294
-286.433
-284.253
-284.837
-287.455
-290.774
-291.684
-280.572
-249.127
-301.562
-293.156
-287.076
-284.718
-285.156
-287.645
-290.829
-291.539
-279.996
-247.785
-302.105
-293.591
-287.405
-284.96
-285.326
-287.752
-290.87
-291.485
-279.735
-247.157
-302.105
-293.591
-287.405
-284.96
-285.326
-287.752
-290.87
-291.485
-279.735
-247.157
-301.562
-293.156
-287.076
-284.718
-285.156
-287.645
-290.829
-291.539
-279.996
-247.785
-300.474
-292.294
-286.433
-284.253
-284.837
-287.455
-290.774
-291.684
-280.572
-249.127
-298.838
-291.024
-285.51
-283.603
-284.412
-287.226
-290.759
-291.991
-281.577
-251.362
-296.664
-289.385
-284.364
-282.832
-283.941
-287.024
-290.859
-292.562
-283.178
-254.769
-293.987
-287.453
-283.087
-282.027
-283.506
-286.924
-291.158
-293.515
-285.591
-259.739
-290.907
-285.361
-281.816
-281.303
-283.199
-287.003
-291.73
-294.953
-289.039
-266.746
-287.662
-283.365
-280.766
-280.819
-283.118
-287.311
-292.588
-296.878
-293.642
-276.271
-284.787
-281.978
-280.329
-280.824
-283.39
-287.85
-293.597
-299.001
-299.175
-288.84
-282.856
-281.484
-280.571
-281.285
-283.915
-288.45
-294.454
-300.782
-304.829
-304.278
-312.447
-310.802
-310.006
-311.675
-316.38
-324.531
-336.329
-351.697
-369.178
-376.586
-315.007
-311.477
-309.716
-311.083
-315.676
-323.704
-335.201
-349.688
-362.785
-351.968
-318.702
-313.257
-310.285
-311.106
-315.397
-323.166
-334.265
-347.881
-357.886
-334.854
-322.815
-315.775
-311.62
-311.776
-315.647
-323.1
-333.846
-346.86
-354.992
-324.451
-326.698
-318.398
-313.229
-312.752
-316.205
-323.363
-333.845
-346.48
-353.421
-317.76
-330.063
-320.814
-314.839
-313.825
-316.913
-323.825
-334.12
-346.529
-352.7
-313.434
-332.794
-322.859
-316.28
-314.844
-317.639
-324.361
-334.529
-346.808
-352.484
-310.686
-334.848
-324.443
-317.439
-315.696
-318.276
-324.86
-334.948
-347.156
-352.518
-308.995
-336.214
-325.518
-318.245
-316.303
-318.744
-325.24
-335.279
-347.451
-352.628
-308.03
-336.896
-326.06
-318.658
-316.619
-318.99
-325.444
-335.461
-347.618
-352.708
-307.594
-336.896
-326.06
-318.658
-316.619
-318.99
-325.444
-335.461
-347.618
-352.708
-307.594
-336.214
-325.518
-318.245
-316.303
-318.744
-325.24
-335.279
-347.451
-352.628
-308.03
-334.848
-324.443
-317.439
-315.696
-318.276
-324.86
-334.948
-347.156
-352.518
-308.995
-332.794
-322.859
-316.28
-314.844
-317.639
-324.361
-334.529
-346.808
-352.484
-310.686
-330.063
-320.814
-314.839
-313.825
-316.913
-323.825
-334.12
-346.529
-352.7
-313.434
-326.698
-318.398
-313.229
-312.752
-316.205
-323.363
-333.845
-346.48
-353.421
-317.76
-322.815
-315.775
-311.62
-311.776
-315.647
-323.1
-333.846
-346.86
-354.992
-324.451
-318.702
-313.257
-310.285
-311.106
-315.397
-323.166
-334.265
-347.881
-357.886
-334.855
-315.007
-311.477
-309.716
-311.083
-315.676
-323.704
-335.201
-349.689
-362.786
-351.969
-312.447
-310.802
-310.006
-311.675
-316.38
-324.531
-336.329
-351.697
-369.178
-376.586
-338.011
-336.125
-335.482
-338.164
-345.155
-357.663
-377.518
-407.891
-454.22
-528.213
-341.165
-336.975
-335.159
-337.482
-344.38
-356.912
-376.93
-407.83
-455.882
-536.086
-345.636
-339.132
-335.871
-337.585
-344.24
-356.787
-377.181
-409.275
-460.401
-546.76
-350.578
-342.153
-337.496
-338.479
-344.779
-357.294
-378.094
-411.448
-465.648
-558.198
-355.23
-345.289
-339.441
-339.735
-345.677
-358.153
-379.337
-413.835
-470.702
-568.624
-359.259
-348.172
-341.381
-341.093
-346.724
-359.165
-380.686
-416.154
-475.195
-577.428
-362.529
-350.611
-343.113
-342.37
-347.751
-360.168
-381.965
-418.204
-478.926
-584.439
-364.988
-352.499
-344.503
-343.431
-348.629
-361.029
-383.035
-419.843
-481.784
-589.641
-366.624
-353.779
-345.469
-344.184
-349.264
-361.655
-383.799
-420.981
-483.71
-593.071
-367.441
-354.425
-345.963
-344.574
-349.596
-361.983
-384.196
-421.563
-484.678
-594.772
-367.441
-354.425
-345.963
-344.574
-349.596
-361.983
-384.196
-421.563
-484.678
-594.772
-366.624
-353.779
-345.469
-344.184
-349.264
-361.655
-383.799
-420.981
-483.71
-593.071
-364.988
-352.499
-344.503
-343.431
-348.629
-361.029
-383.035
-419.843
-481.784
-589.641
-362.529
-350.611
-343.113
-342.37
-347.751
-360.168
-381.965
-418.204
-478.926
-584.439
-359.259
-348.172
-341.381
-341.093
-346.724
-359.165
-380.686
-416.154
-475.195
-577.428
-355.23
-345.289
-339.441
-339.735
-345.677
-358.153
-379.337
-413.835
-470.702
-568.624
-350.578
-342.153
-337.496
-338.479
-344.779
-357.295
-378.094
-411.448
-465.648
-558.198
-345.636
-339.133
-335.872
-337.585
-344.24
-356.787
-377.181
-409.275
-460.402
-546.76
-341.165
-336.975
-335.159
-337.482
-344.381
-356.912
-376.931
-407.831
-455.882
-536.087
-338.011
-336.125
-335.482
-338.165
-345.155
-357.663
-377.519
-407.891
-454.221
-528.214
-358.393
-356.28
-355.624
-358.783
-366.85
-381.111
-403.277
-435.742
-481.672
-546.016
-361.999
-357.255
-355.252
-357.983
-365.902
-380.101
-402.237
-434.754
-481.251
-547.792
-367.089
-359.707
-356.058
-358.086
-365.696
-379.826
-402.129
-435.197
-482.984
-551.948
-372.707
-363.134
-357.901
-359.106
-366.311
-380.373
-402.985
-436.928
-486.544
-558.795
-377.998
-366.692
-360.109
-360.543
-367.354
-381.362
-404.318
-439.172
-490.601
-566.03
-382.585
-369.965
-362.311
-362.098
-368.57
-382.541
-405.82
-441.494
-494.498
-572.613
-386.311
-372.734
-364.277
-363.558
-369.762
-383.71
-407.264
-443.614
-497.882
-578.106
-389.117
-374.879
-365.856
-364.771
-370.778
-384.714
-408.48
-445.339
-500.544
-582.306
-390.985
-376.334
-366.952
-365.632
-371.512
-385.442
-409.35
-446.549
-502.369
-585.131
-391.918
-377.068
-367.513
-366.077
-371.895
-385.823
-409.803
-447.17
-503.294
-586.547
-391.918
-377.068
-367.513
-366.077
-371.895
-385.823
-409.803
-447.17
-503.294
-586.547
-390.985
-376.334
-366.952
-365.632
-371.512
-385.442
-409.35
-446.549
-502.369
-585.131
-389.117
-374.879
-365.856
-364.771
-370.778
-384.714
-408.48
-445.339
-500.544
-582.306
-386.311
-372.734
-364.277
-363.558
-369.762
-383.71
-407.264
-443.614
-497.882
-578.106
-382.585
-369.965
-362.311
-362.098
-368.57
-382.541
-405.82
-441.494
-494.498
-572.613
-377.998
-366.692
-360.109
-360.543
-367.354
-381.362
-404.319
-439.172
-490.601
-566.03
-372.707
-363.134
-357.902
-359.106
-366.311
-380.373
-402.985
-436.929
-486.545
-558.796
-367.089
-359.707
-356.058
-358.086
-365.696
-379.826
-402.129
-435.198
-482.984
-551.948
-361.999
-357.255
-355.252
-357.983
-365.902
-380.101
-402.237
-434.754
-481.251
-547.792
-358.393
-356.28
-355.624
-358.783
-366.85
-381.111
-403.277
-435.742
-481.673
-546.016
-372.801
-370.51
-369.698
-372.835
-380.968
-395.218
-416.849
-447.284
-487.856
-539.657
-376.665
-371.548
-369.287
-371.953
-379.91
-394.061
-415.594
-445.93
-486.527
-538.612
-382.146
-374.187
-370.148
-372.045
-379.642
-393.658
-415.235
-445.829
-487.004
-540.03
-388.218
-377.889
-372.136
-373.133
-380.268
-394.145
-415.898
-447.053
-489.3
-543.992
-393.955
-381.742
-374.521
-374.677
-381.36
-395.118
-417.093
-448.88
-492.277
-548.708
-398.941
-385.292
-376.904
-376.35
-382.645
-396.308
-418.504
-450.883
-495.325
-553.296
-402.999
-388.301
-379.033
-377.924
-383.909
-397.504
-419.894
-452.774
-498.079
-557.298
-406.059
-390.634
-380.744
-379.231
-384.99
-398.538
-421.081
-454.346
-500.302
-560.451
-408.1
-392.218
-381.933
-380.16
-385.771
-399.291
-421.939
-455.461
-501.851
-562.612
-409.119
-393.017
-382.541
-380.64
-386.179
-399.685
-422.387
-456.039
-502.644
-563.708
-409.119
-393.017
-382.541
-380.64
-386.179
-399.685
-422.387
-456.039
-502.644
-563.708
-408.1
-392.218
-381.933
-380.16
-385.771
-399.291
-421.939
-455.461
-501.851
-562.612
-406.059
-390.634
-380.744
-379.231
-384.99
-398.538
-421.081
-454.346
-500.302
-560.451
-402.999
-388.301
-379.033
-377.924
-383.909
-397.504
-419.894
-452.774
-498.079
-557.298
-398.941
-385.292
-376.904
-376.35
-382.645
-396.308
-418.504
-450.883
-495.325
-553.296
-393.955
-381.742
-374.521
-374.677
-381.36
-395.118
-417.093
-448.88
-492.277
-548.708
-388.218
-377.889
-372.136
-373.133
-380.268
-394.145
-415.898
-447.053
-489.3
-543.992
-382.146
-374.187
-370.148
-372.045
-379.642
-393.658
-415.235
-445.829
-487.004
-540.03
-376.665
-371.548
-369.287
-371.953
-379.91
-394.061
-415.594
-445.93
-486.527
-538.612
-372.801
-370.51
-369.698
-372.835
-380.968
-395.218
-416.849
-447.284
-487.856
-539.657
-380.874
-378.48
-377.437
-380.19
-387.681
-400.795
-420.359
-447.062
-481.187
-522.232
-384.792
-379.519
-376.997
-379.267
-386.578
-399.591
-419.05
-445.623
-479.641
-520.649
-390.418
-382.23
-377.877
-379.347
-386.268
-399.107
-418.534
-445.214
-479.515
-520.999
-396.697
-386.061
-379.933
-380.458
-386.869
-399.501
-418.981
-445.983
-480.913
-523.32
-402.659
-390.066
-382.407
-382.042
-387.95
-400.386
-419.957
-447.346
-482.984
-526.395
-407.861
-393.767
-384.885
-383.763
-389.232
-401.503
-421.173
-448.939
-485.242
-529.569
-412.107
-396.912
-387.102
-385.385
-390.501
-402.642
-422.407
-450.498
-487.362
-532.449
-415.316
-399.353
-388.885
-386.734
-391.589
-403.636
-423.478
-451.824
-489.118
-534.78
-417.459
-401.013
-390.125
-387.693
-392.377
-404.364
-424.26
-452.778
-490.361
-536.406
-418.53
-401.851
-390.76
-388.189
-392.789
-404.747
-424.67
-453.275
-491.003
-537.238
-418.53
-401.851
-390.76
-388.189
-392.789
-404.747
-424.67
-453.275
-491.003
-537.238
-417.459
-401.013
-390.125
-387.693
-392.377
-404.364
-424.26
-452.778
-490.361
-536.405
-415.316
-399.353
-388.885
-386.734
-391.589
-403.636
-423.478
-451.824
-489.118
-534.78
-412.107
-396.912
-387.102
-385.385
-390.501
-402.642
-422.407
-450.498
-487.362
-532.449
-407.861
-393.767
-384.885
-383.763
-389.232
-401.503
-421.173
-448.939
-485.242
-529.569
-402.659
-390.066
-382.407
-382.042
-387.95
-400.386
-419.957
-447.346
-482.984
-526.394
-396.697
-386.061
-379.933
-380.457
-386.869
-399.501
-418.981
-445.983
-480.913
-523.32
-390.418
-382.23
-377.877
-379.346
-386.268
-399.107
-418.534
-445.213
-479.515
-520.998
-384.792
-379.519
-376.997
-379.267
-386.578
-399.591
-419.049
-445.622
-479.64
-520.649
-380.874
-378.48
-377.437
-380.19
-387.681
-400.795
-420.359
-447.062
-481.187
-522.232
-382.65
-380.237
-378.957
-381.129
-387.577
-398.972
-415.797
-438.266
-466.124
-498.353
-386.446
-381.226
-378.5
-380.203
-386.484
-397.797
-414.54
-436.899
-464.643
-496.796
-391.99
-383.901
-379.367
-380.271
-386.157
-397.277
-413.948
-436.326
-464.185
-496.559
-398.241
-387.724
-381.419
-381.367
-386.717
-397.58
-414.208
-436.731
-464.92
-497.779
-404.216
-391.742
-383.9
-382.939
-387.75
-398.353
-414.958
-437.675
-466.258
-499.666
-409.454
-395.471
-386.391
-384.651
-388.984
-399.358
-415.955
-438.867
-467.832
-501.759
-413.746
-398.648
-388.624
-386.266
-390.212
-400.399
-416.996
-440.083
-469.378
-503.743
-416.997
-401.12
-390.423
-387.612
-391.268
-401.316
-417.917
-441.143
-470.694
-505.397
-419.172
-402.803
-391.676
-388.569
-392.034
-401.991
-418.597
-441.917
-471.642
-506.571
-420.261
-403.654
-392.317
-389.064
-392.436
-402.347
-418.956
-442.324
-472.137
-507.179
-420.261
-403.654
-392.317
-389.064
-392.436
-402.347
-418.956
-442.324
-472.137
-507.179
-419.172
-402.803
-391.676
-388.569
-392.034
-401.991
-418.597
-441.917
-471.642
-506.571
-416.997
-401.12
-390.423
-387.612
-391.268
-401.316
-417.917
-441.143
-470.694
-505.397
-413.746
-398.648
-388.624
-386.266
-390.212
-400.399
-416.996
-440.083
-469.378
-503.743
-409.454
-395.471
-386.391
-384.651
-388.984
-399.358
-415.955
-438.867
-467.832
-501.759
-404.216
-391.742
-383.9
-382.939
-387.75
-398.353
-414.958
-437.674
-466.257
-499.666
-398.241
-387.724
-381.419
-381.367
-386.717
-397.58
-414.208
-436.731
-464.92
-497.779
-391.99
-383.901
-379.367
-380.271
-386.157
-397.277
-413.948
-436.325
-464.185
-496.559
-386.446
-381.226
-378.5
-380.203
-386.484
-397.796
-414.54
-436.899
-464.643
-496.795
-382.65
-380.237
-378.957
-381.129
-387.577
-398.972
-415.797
-438.266
-466.123
-498.353
-378.467
-376.117
-374.642
-376.177
-381.441
-390.937
-404.924
-423.353
-445.758
-471.09
-382.011
-377.018
-374.18
-375.277
-380.397
-389.838
-403.778
-422.139
-444.461
-469.725
-387.293
-379.572
-375.008
-375.337
-380.074
-389.324
-403.179
-421.519
-443.876
-469.232
-393.321
-383.269
-376.997
-376.393
-380.591
-389.556
-403.307
-421.683
-444.191
-469.783
-399.125
-387.182
-379.415
-377.911
-381.557
-390.221
-403.871
-422.308
-445.008
-470.881
-404.243
-390.83
-381.849
-379.569
-382.719
-391.109
-404.67
-423.173
-446.067
-472.212
-408.453
-393.949
-384.038
-381.137
-383.878
-392.04
-405.529
-424.094
-447.157
-473.538
-411.653
-396.382
-385.804
-382.443
-384.877
-392.865
-406.301
-424.917
-448.114
-474.678
-413.798
-398.041
-387.034
-383.373
-385.604
-393.476
-406.876
-425.528
-448.816
-475.504
-414.872
-398.88
-387.664
-383.855
-385.984
-393.799
-407.182
-425.852
-449.186
-475.936
-414.872
-398.88
-387.664
-383.855
-385.984
-393.799
-407.182
-425.852
-449.186
-475.936
-413.798
-398.041
-387.034
-383.373
-385.604
-393.476
-406.876
-425.528
-448.816
-475.504
-411.653
-396.382
-385.804
-382.443
-384.877
-392.865
-406.301
-424.917
-448.114
-474.678
-408.453
-393.949
-384.038
-381.137
-383.878
-392.039
-405.529
-424.094
-447.157
-473.538
-404.243
-390.83
-381.849
-379.569
-382.719
-391.109
-404.67
-423.173
-446.066
-472.212
-399.125
-387.182
-379.415
-377.911
-381.557
-390.221
-403.871
-422.308
-445.008
-470.881
-393.321
-383.269
-376.997
-376.393
-380.591
-389.556
-403.307
-421.683
-444.191
-469.782
-387.293
-379.572
-375.008
-375.337
-380.074
-389.324
-403.179
-421.519
-443.876
-469.232
-382.011
-377.018
-374.18
-375.277
-380.397
-389.838
-403.778
-422.139
-444.461
-469.725
-378.467
-376.117
-374.642
-376.177
-381.441
-390.937
-404.924
-423.353
-445.758
-471.089
-368.857
-366.636
-365.035
-365.975
-370.084
-377.752
-389.106
-403.983
-421.879
-441.885
-372.068
-367.429
-364.579
-365.123
-369.114
-376.754
-388.096
-402.946
-420.8
-440.767
-376.963
-369.801
-365.35
-365.176
-368.81
-376.273
-387.533
-402.353
-420.213
-440.218
-382.621
-373.284
-367.231
-366.171
-369.284
-376.455
-387.581
-402.375
-420.29
-440.403
-388.114
-376.998
-369.53
-367.608
-370.176
-377.029
-388.006
-402.781
-420.769
-441.013
-392.987
-380.479
-371.854
-369.179
-371.252
-377.807
-388.644
-403.403
-421.466
-441.841
-397.015
-383.466
-373.948
-370.668
-372.328
-378.63
-389.348
-404.093
-422.225
-442.712
-400.085
-385.802
-375.641
-371.91
-373.258
-379.365
-389.989
-404.726
-422.91
-443.486
-402.148
-387.399
-376.823
-372.795
-373.934
-379.909
-390.471
-405.201