/*--------------------------------*- C++ -*----------------------------------*\
  =========                 |
  \\      /  F ield         | OpenFOAM: The Open Source CFD Toolbox
   \\    /   O peration     | Website:  https://openfoam.org
    \\  /    A nd           | Version:  6
     \\/     M anipulation  |
\*---------------------------------------------------------------------------*/
FoamFile
{
    version     2.0;
    format      ascii;
    class       surfaceScalarField;
    location    "0.05";
    object      phi;
}
// * * * * * * * * * * * * * * * * * * * * * * * * * * * * * * * * * * * * * //

dimensions      [0 3 -1 0 0 0 0];

internalField   nonuniform List<scalar> 
162400
(
-1.89801e-10
1.41008e-09
5.39979e-06
1.12663e-09
2.34314e-09
1.1352e-05
3.42788e-09
2.17561e-09
1.50282e-05
5.60379e-09
1.54611e-09
1.71964e-05
6.5069e-09
6.85228e-10
1.82045e-05
5.57873e-09
-3.37367e-10
1.81874e-05
3.20606e-09
-1.47564e-09
1.71465e-05
6.84149e-10
-2.57823e-09
1.49523e-05
-4.31982e-10
-3.22258e-09
1.12674e-05
-2.26464e-09
5.34458e-06
1.03693e-09
3.60999e-09
1.14094e-05
5.74068e-09
6.25982e-09
2.67723e-05
1.2811e-08
6.15365e-09
3.69297e-05
1.92075e-08
4.67896e-09
4.31058e-05
2.20087e-08
2.44545e-09
4.60193e-05
1.97433e-08
-2.77638e-10
4.59815e-05
1.32369e-08
-3.27918e-09
4.29964e-05
5.56908e-09
-6.06091e-09
3.67649e-05
6.84981e-10
-7.46102e-09
2.65926e-05
-4.85479e-09
1.13062e-05
2.36378e-09
5.2593e-09
1.53031e-05
1.05357e-08
9.69104e-09
3.74615e-05
2.1963e-08
1.00623e-08
5.27208e-05
3.20537e-08
8.13021e-09
6.22246e-05
3.65212e-08
4.83748e-09
6.67655e-05
3.31886e-08
6.94775e-10
6.67135e-05
2.31577e-08
-3.85018e-09
6.20744e-05
1.0814e-08
-7.93592e-09
5.24959e-05
2.04273e-09
-9.82578e-09
3.72197e-05
-6.21811e-09
1.51668e-05
3.31685e-09
6.13412e-09
1.7948e-05
1.41606e-08
1.18756e-08
4.49376e-05
2.89944e-08
1.29083e-08
6.40233e-05
4.1966e-08
1.09977e-08
7.61235e-05
4.77026e-08
7.265e-09
8.19621e-05
4.34813e-08
2.40392e-09
8.18962e-05
3.06473e-08
-2.94719e-09
7.59337e-05
1.46571e-08
-7.70163e-09
6.37406e-05
2.97541e-09
-9.88915e-09
4.46361e-05
-6.22057e-09
1.77793e-05
3.87449e-09
6.2661e-09
1.97943e-05
1.65206e-08
1.26189e-08
5.0221e-05
3.37686e-08
1.42381e-08
7.21113e-05
4.8805e-08
1.26868e-08
8.61631e-05
5.5422e-08
9.09808e-09
9.2991e-05
5.0493e-08
4.24112e-09
9.29109e-05
3.55854e-08
-1.16033e-09
8.59329e-05
1.70138e-08
-5.97427e-09
7.17704e-05
3.4382e-09
-8.30779e-09
4.98599e-05
-5.30094e-09
1.95935e-05
4.12788e-09
5.76969e-09
2.1094e-05
1.78592e-08
1.19806e-08
5.39589e-05
3.66762e-08
1.3924e-08
7.78704e-05
5.30863e-08
1.28638e-08
9.33492e-05
6.02694e-08
9.81612e-09
0.000100906
5.48128e-08
5.51595e-09
0.000100812
3.84751e-08
6.61096e-10
9.30799e-05
1.82256e-08
-3.72248e-09
7.74735e-05
3.56592e-09
-6.02255e-09
5.35415e-05
-3.98464e-09
2.08633e-05
4.19116e-09
4.77137e-09
2.19998e-05
1.85013e-08
1.01363e-08
5.65691e-05
3.82596e-08
1.20464e-08
8.1905e-05
5.55239e-08
1.14394e-08
9.83976e-05
6.30477e-08
9.12942e-09
0.000106475
5.72238e-08
5.73062e-09
0.000106368
3.99624e-08
1.82709e-09
9.80932e-05
1.8704e-08
-1.76042e-09
8.14586e-05
3.50748e-09
-3.80068e-09
5.61025e-05
-2.6698e-09
2.17434e-05
4.16097e-09
3.39461e-09
2.26092e-05
1.87385e-08
7.32577e-09
5.83266e-05
3.90175e-08
8.84213e-09
8.46257e-05
5.67781e-08
8.55911e-09
0.000101807
6.44942e-08
7.03919e-09
0.000110237
5.84328e-08
4.71843e-09
0.000110121
4.06134e-08
2.0105e-09
0.000101474
1.87936e-08
-5.2115e-10
8.41395e-05
3.37888e-09
-2.05827e-09
5.78211e-05
-1.56531e-09
2.23327e-05
4.10645e-09
1.76204e-09
2.29846e-05
1.87857e-08
3.83768e-09
5.94097e-05
3.93255e-08
4.67436e-09
8.63035e-05
5.73496e-08
4.57603e-09
0.00010391
6.51654e-08
3.82891e-09
0.00011256
5.89654e-08
2.65804e-09
0.000112436
4.08386e-08
1.27647e-09
0.000103558
1.87352e-08
-3.09919e-11
8.57897e-05
3.25732e-09
-8.5863e-10
5.88773e-05
-7.05554e-10
2.26945e-05
4.06959e-09
-2.35034e-13
2.31636e-05
1.87778e-08
-2.88448e-13
5.99258e-05
3.94228e-08
-3.84097e-13
8.71033e-05
5.75588e-08
-3.04554e-13
0.000104913
6.54162e-08
-1.54666e-13
0.000113667
5.91531e-08
-1.94828e-14
0.00011354
4.08919e-08
6.31176e-14
0.000104551
1.86731e-08
9.29651e-14
8.65754e-05
3.18687e-09
1.00397e-13
5.93798e-05
1.255e-14
2.28666e-05
4.06964e-09
-1.76256e-09
2.31636e-05
1.8778e-08
-3.83835e-09
5.99258e-05
3.9423e-08
-4.67521e-09
8.71033e-05
5.7559e-08
-4.5767e-09
0.000104913
6.54164e-08
-3.82925e-09
0.000113667
5.91532e-08
-2.65809e-09
0.00011354
4.0892e-08
-1.27635e-09
0.000104551
1.86731e-08
3.11767e-11
8.65754e-05
3.18688e-09
8.58827e-10
5.93798e-05
7.05578e-10
2.28666e-05
4.10661e-09
-3.39531e-09
2.29846e-05
1.87863e-08
-7.32677e-09
5.94097e-05
3.93262e-08
-8.8433e-09
8.63035e-05
5.73503e-08
-8.56e-09
0.00010391
6.51658e-08
-7.03968e-09
0.00011256
5.89657e-08
-4.71857e-09
0.000112436
4.08387e-08
-2.01043e-09
0.000103558
1.87352e-08
5.21289e-10
8.57897e-05
3.25733e-09
2.05843e-09
5.88773e-05
1.56532e-09
2.26945e-05
4.16132e-09
-4.77248e-09
2.26092e-05
1.87395e-08
-1.01381e-08
5.83266e-05
3.90188e-08
-1.20482e-08
8.46257e-05
5.67793e-08
-1.14409e-08
0.000101807
6.44951e-08
-9.13031e-09
0.000110237
5.84333e-08
-5.73107e-09
0.000110121
4.06136e-08
-1.82727e-09
0.000101474
1.87936e-08
1.76036e-09
8.41395e-05
3.3789e-09
3.80068e-09
5.78211e-05
2.66977e-09
2.23327e-05
4.19187e-09
-5.77168e-09
2.19998e-05
1.85032e-08
-1.19838e-08
5.65691e-05
3.82618e-08
-1.39272e-08
8.1905e-05
5.55259e-08
-1.28663e-08
9.83975e-05
6.30491e-08
-9.81786e-09
0.000106475
5.72247e-08
-5.51708e-09
0.000106368
3.99628e-08
-6.61825e-10
9.80932e-05
1.8704e-08
3.72199e-09
8.14586e-05
3.50753e-09
6.02222e-09
5.61025e-05
3.98452e-09
2.17434e-05
4.12937e-09
-6.27002e-09
2.1094e-05
1.78624e-08
-1.26247e-08
5.39589e-05
3.66798e-08
-1.42435e-08
7.78704e-05
5.30894e-08
-1.26909e-08
9.33492e-05
6.02715e-08
-9.10107e-09
0.000100906
5.48141e-08
-4.24326e-09
0.000100812
3.84757e-08
1.15879e-09
9.30799e-05
1.82257e-08
5.97315e-09
7.74735e-05
3.56599e-09
8.30699e-09
5.35415e-05
5.30069e-09
2.08633e-05
3.8778e-09
-6.14251e-09
1.97943e-05
1.6526e-08
-1.18857e-08
5.0221e-05
3.37741e-08
-1.29166e-08
7.21113e-05
4.88095e-08
-1.10037e-08
8.61631e-05
5.54251e-08
-7.26923e-09
9.2991e-05
5.0495e-08
-2.407e-09
9.29109e-05
3.55864e-08
2.9449e-09
8.59329e-05
1.70143e-08
7.69996e-09
7.17704e-05
3.43831e-09
9.88796e-09
4.98599e-05
6.22021e-09
1.95935e-05
3.32399e-09
-5.27822e-09
1.7948e-05
1.41699e-08
-9.70829e-09
4.49376e-05
2.90029e-08
-1.00742e-08
6.40233e-05
4.19723e-08
-8.13763e-09
7.61235e-05
4.77068e-08
-4.84228e-09
8.19621e-05
4.34839e-08
-6.98101e-10
8.18962e-05
3.06489e-08
3.84777e-09
7.59337e-05
1.46579e-08
7.93419e-09
6.37406e-05
2.97556e-09
9.82457e-09
4.46361e-05
6.21775e-09
1.77793e-05
2.37779e-09
-3.65358e-09
1.53031e-05
1.0553e-08
-6.29217e-09
3.74615e-05
2.19759e-08
-6.16913e-09
5.27208e-05
3.2062e-08
-4.68667e-09
6.22246e-05
3.65263e-08
-2.4497e-09
6.67655e-05
3.31917e-08
2.7502e-10
6.67135e-05
2.31597e-08
3.27741e-09
6.20744e-05
1.08151e-08
6.05968e-09
5.24959e-05
2.04288e-09
7.46017e-09
3.72197e-05
4.85456e-09
1.51668e-05
1.08501e-09
-1.54232e-09
1.14095e-05
5.77431e-09
-2.39057e-09
2.67723e-05
1.28285e-08
-2.18907e-09
3.69297e-05
1.92168e-08
-1.55314e-09
4.31058e-05
2.20137e-08
-6.88889e-10
4.60193e-05
1.97461e-08
3.35246e-10
4.59816e-05
1.32388e-08
1.47426e-09
4.29964e-05
5.57024e-09
2.57733e-09
3.67649e-05
6.85155e-10
3.22204e-09
2.65926e-05
2.26456e-09
1.13062e-05
-5.70854e-11
5.39987e-06
1.17089e-09
1.1352e-05
3.4471e-09
1.50282e-05
5.61205e-09
1.71964e-05
6.51052e-09
1.82045e-05
5.58046e-09
1.81874e-05
3.20702e-09
1.71465e-05
6.84692e-10
1.49523e-05
-4.31802e-10
1.12674e-05
5.34458e-06
-1.76686e-09
4.08328e-09
5.39746e-06
-1.10626e-09
6.52267e-09
1.13448e-05
2.52057e-09
5.84467e-09
1.50187e-05
6.79255e-09
3.5256e-09
1.71886e-05
8.90611e-09
3.17673e-10
1.82021e-05
7.31656e-09
-3.40003e-09
1.81924e-05
2.79903e-09
-7.26397e-09
1.71583e-05
-1.58266e-09
-1.05499e-08
1.49672e-05
-2.29613e-09
-1.16968e-08
1.12798e-05
-7.37001e-09
5.34965e-06
-3.77944e-10
1.01604e-08
1.14037e-05
6.75723e-09
1.74642e-08
2.67543e-05
2.088e-08
1.63204e-08
3.69051e-05
3.51842e-08
1.04258e-08
4.30846e-05
4.22807e-08
1.76664e-09
4.60108e-05
3.80077e-08
-8.37336e-09
4.59908e-05
2.39821e-08
-1.86802e-08
4.30218e-05
7.76741e-09
-2.69305e-08
3.67975e-05
-8.17221e-10
-2.90527e-08
2.66186e-05
-1.70412e-08
1.13151e-05
2.43465e-09
1.49205e-08
1.52959e-05
1.79111e-08
2.69831e-08
3.74366e-05
4.30201e-08
2.63477e-08
5.26856e-05
6.69981e-08
1.78145e-08
6.21932e-05
7.87042e-08
4.48682e-09
6.67511e-05
7.18707e-08
-1.13078e-08
6.67232e-05
4.87201e-08
-2.71034e-08
6.21059e-05
2.03881e-08
-3.91496e-08
5.25365e-05
2.07458e-09
-4.13557e-08
3.72504e-05
-2.34113e-08
1.51752e-05
4.69369e-09
1.74256e-08
1.79408e-05
2.7018e-08
3.2849e-08
4.49094e-05
6.11744e-08
3.33402e-08
6.39821e-05
9.29989e-08
2.37814e-08
7.60857e-05
1.08258e-07
7.92541e-09
8.19434e-05
9.90465e-08
-1.11015e-08
8.19053e-05
6.82254e-08
-2.99328e-08
7.59674e-05
3.00146e-08
-4.38257e-08
6.37835e-05
4.13387e-09
-4.5772e-08
4.46664e-05
-2.52918e-08
1.77853e-05
6.01231e-09
1.77179e-08
1.9788e-05
3.30561e-08
3.45665e-08
5.01922e-05
7.37623e-08
3.62715e-08
7.20677e-05
1.11302e-07
2.71568e-08
8.61221e-05
1.29015e-07
1.10878e-08
9.29702e-05
1.17788e-07
-8.45449e-09
9.29195e-05
8.113e-08
-2.76912e-08
8.59673e-05
3.58081e-08
-4.16023e-08
7.18135e-05
5.01219e-09
-4.3316e-08
4.98882e-05
-2.35523e-08
1.95968e-05
6.50871e-09
1.61816e-08
2.10891e-05
3.63201e-08
3.24615e-08
5.39312e-05
8.12557e-08
3.50212e-08
7.78267e-05
1.22577e-07
2.73307e-08
9.33077e-05
1.41831e-07
1.29154e-08
0.000100885
1.29055e-07
-4.86096e-09
0.000100822
8.83444e-08
-2.23342e-08
9.31152e-05
3.84413e-08
-3.48512e-08
7.75167e-05
4.98705e-09
-3.6424e-08
5.3568e-05
-1.96112e-08
2.08643e-05
6.46262e-09
1.32597e-08
2.19963e-05
3.76003e-08
2.71819e-08
5.65433e-05
8.49674e-08
2.99741e-08
8.18627e-05
1.28569e-07
2.41782e-08
9.83571e-05
1.48703e-07
1.26571e-08
0.000106455
1.34839e-07
-1.74105e-09
0.000106379
9.15511e-08
-1.5911e-08
9.81301e-05
3.90073e-08
-2.60404e-08
8.15023e-05
4.45629e-09
-2.74529e-08
5.61281e-05
-1.47062e-08
2.17429e-05
6.16136e-09
9.35793e-09
2.26069e-05
3.77441e-08
1.94816e-08
5.83027e-05
8.63365e-08
2.18241e-08
8.45853e-05
1.31182e-07
1.80296e-08
0.000101768
1.51771e-07
1.00966e-08
0.000110219
1.37209e-07
6.96918e-11
0.000110134
9.24218e-08
-9.82179e-09
0.000101513
3.8534e-08
-1.6905e-08
8.41843e-05
3.77022e-09
-1.80127e-08
5.78464e-05
-9.63154e-09
2.23314e-05
5.83472e-09
4.83119e-09
2.29833e-05
3.74484e-08
1.0151e-08
5.93874e-05
8.65643e-08
1.14801e-08
8.62647e-05
1.32013e-07
9.62153e-09
0.000103873
1.52808e-07
5.59824e-09
0.000112543
1.37847e-07
4.74029e-10
0.00011245
9.22781e-08
-4.59173e-09
0.000103598
3.78033e-08
-8.22833e-09
8.58355e-05
3.18347e-09
-8.845e-09
5.89027e-05
-4.72862e-09
2.26928e-05
5.63447e-09
-2.14494e-13
2.31627e-05
3.7184e-08
-1.58399e-13
5.99044e-05
8.64732e-08
-2.33821e-13
8.70655e-05
1.32155e-07
-1.19205e-13
0.000104877
1.53024e-07
6.51926e-14
0.000113652
1.37886e-07
2.23769e-13
0.000113555
9.19929e-08
3.15583e-13
0.000104592
3.73173e-08
3.47813e-13
8.66219e-05
2.85337e-09
3.61986e-13
5.94054e-05
6.34447e-14
2.28647e-05
5.63452e-09
-4.83167e-09
2.31627e-05
3.71842e-08
-1.01514e-08
5.99044e-05
8.64734e-08
-1.14807e-08
8.70655e-05
1.32155e-07
-9.62183e-09
0.000104877
1.53025e-07
-5.59815e-09
0.000113652
1.37886e-07
-4.73602e-10
0.000113555
9.19929e-08
4.59235e-09
0.000104592
3.73173e-08
8.22901e-09
8.66219e-05
2.85337e-09
8.84571e-09
5.94054e-05
4.72874e-09
2.28647e-05
5.83489e-09
-9.3586e-09
2.29833e-05
3.7449e-08
-1.94824e-08
5.93874e-05
8.65651e-08
-2.18251e-08
8.62647e-05
1.32014e-07
-1.80302e-08
0.000103873
1.52808e-07
-1.00967e-08
0.000112543
1.37848e-07
-6.94216e-11
0.00011245
9.22781e-08
9.82228e-09
0.000103598
3.78032e-08
1.69056e-08
8.58355e-05
3.18346e-09
1.80133e-08
5.89027e-05
9.63163e-09
2.26928e-05
6.16171e-09
-1.32608e-08
2.26069e-05
3.77453e-08
-2.71836e-08
5.83027e-05
8.63379e-08
-2.99759e-08
8.45853e-05
1.31184e-07
-2.41796e-08
0.000101768
1.51772e-07
-1.26579e-08
0.000110219
1.3721e-07
1.74079e-09
0.000110134
9.24219e-08
1.59111e-08
0.000101513
3.85339e-08
2.60406e-08
8.41843e-05
3.77021e-09
2.74532e-08
5.78464e-05
1.47062e-08
2.23314e-05
6.46327e-09
-1.61836e-08
2.19963e-05
3.76022e-08
-3.2465e-08
5.65433e-05
8.49698e-08
-3.50247e-08
8.18627e-05
1.28571e-07
-2.73336e-08
9.83571e-05
1.48705e-07
-1.29174e-08
0.000106455
1.3484e-07
4.85958e-09
0.000106379
9.15512e-08
2.23333e-08
9.81301e-05
3.90072e-08
3.48506e-08
8.15023e-05
4.45628e-09
3.64237e-08
5.61281e-05
1.9611e-08
2.17429e-05
6.51001e-09
-1.77218e-08
2.10891e-05
3.63233e-08
-3.45728e-08
5.39312e-05
8.12593e-08
-3.62777e-08
7.78267e-05
1.2258e-07
-2.71619e-08
9.33077e-05
1.41834e-07
-1.10917e-08
0.000100885
1.29056e-07
8.45154e-09
0.000100822
8.83448e-08
2.7689e-08
9.31152e-05
3.84412e-08
4.16007e-08
7.75167e-05
4.98707e-09
4.33149e-08
5.3568e-05
2.3552e-08
2.08643e-05
6.01499e-09
-1.7433e-08
1.9788e-05
3.30612e-08
-3.28596e-08
5.01922e-05
7.37677e-08
-3.33498e-08
7.20677e-05
1.11306e-07
-2.37888e-08
8.61221e-05
1.29018e-07
-7.93106e-09
9.29702e-05
1.1779e-07
1.10972e-08
9.29195e-05
8.11308e-08
2.99295e-08
8.59673e-05
3.58083e-08
4.38232e-08
7.18135e-05
5.01224e-09
4.57703e-08
4.98882e-05
2.52913e-08
1.95968e-05
4.69918e-09
-1.49345e-08
1.79408e-05
2.70265e-08
-2.69993e-08
4.49094e-05
6.11824e-08
-2.63605e-08
6.39821e-05
9.30051e-08
-1.78233e-08
7.60857e-05
1.08262e-07
-4.49305e-09
8.19434e-05
9.90492e-08
1.13032e-08
8.19053e-05
6.82269e-08
2.71e-08
7.59674e-05
3.00154e-08
3.9147e-08
6.37835e-05
4.13397e-09
4.13539e-08
4.46664e-05
2.34108e-08
1.77853e-05
2.44513e-09
-1.01855e-08
1.52959e-05
1.79256e-08
-1.74873e-08
3.74366e-05
4.30319e-08
-1.63347e-08
5.26856e-05
6.70062e-08
-1.0434e-08
6.21932e-05
7.87093e-08
-1.77172e-09
6.67511e-05
7.18739e-08
8.36992e-09
6.67232e-05
4.87223e-08
1.86777e-08
6.21059e-05
2.03893e-08
2.69287e-08
5.25365e-05
2.07472e-09
2.90514e-08
3.72504e-05
1.70409e-08
1.51752e-05
-3.56567e-10
-4.11929e-09
1.14038e-05
6.7802e-09
-6.54391e-09
2.67543e-05
2.0895e-08
-5.85521e-09
3.69051e-05
3.51929e-08
-3.53156e-09
4.30846e-05
4.22857e-08
-3.21217e-10
4.60108e-05
3.80108e-08
3.39769e-09
4.59908e-05
2.39843e-08
7.26233e-09
4.30218e-05
7.7688e-09
1.05488e-08
3.67975e-05
-8.17054e-10
1.16962e-08
2.66186e-05
7.36987e-09
1.13151e-05
-1.73063e-09
5.39749e-06
-1.08105e-09
1.13449e-05
2.53427e-09
1.50187e-05
6.79932e-09
1.71886e-05
8.90941e-09
1.82021e-05
7.31829e-09
1.81924e-05
2.80005e-09
1.71583e-05
-1.58205e-09
1.49672e-05
-2.29596e-09
1.12798e-05
5.34965e-06
-2.31341e-09
7.84778e-09
5.39191e-06
6.89022e-10
1.21708e-08
1.13297e-05
9.51374e-09
1.07086e-08
1.49992e-05
1.94931e-08
6.31442e-09
1.71723e-05
2.5033e-08
3.24435e-10
1.81962e-05
2.26911e-08
-6.63355e-09
1.82013e-05
1.32981e-08
-1.39738e-08
1.71817e-05
2.4279e-09
-2.04256e-08
1.49985e-05
-2.25823e-09
-2.30808e-08
1.13076e-05
-1.49811e-08
5.36238e-06
1.62467e-09
1.89982e-08
1.1391e-05
1.9236e-08
3.21023e-08
2.67167e-05
5.04997e-08
2.95958e-08
3.68549e-05
8.20224e-08
1.85232e-08
4.30408e-05
9.91804e-08
2.4621e-09
4.59915e-05
9.28522e-08
-1.63664e-08
4.60069e-05
6.45258e-08
-3.56992e-08
4.30719e-05
2.78872e-08
-5.15515e-08
3.68652e-05
3.56114e-09
-5.62489e-08
2.66761e-05
-3.36074e-08
1.13373e-05
7.75747e-09
2.75199e-08
1.52796e-05
4.26319e-08
4.91317e-08
3.73846e-05
9.63679e-08
4.74259e-08
5.26141e-05
1.47922e-07
3.14659e-08
6.21287e-05
1.75318e-07
6.86621e-09
6.67193e-05
1.64917e-07
-2.22668e-08
6.67395e-05
1.18697e-07
-5.1592e-08
6.21681e-05
5.68263e-08
-7.43408e-08
5.26211e-05
1.09245e-08
-7.90778e-08
3.73191e-05
-4.53429e-08
1.51979e-05
1.26116e-08
3.18485e-08
1.79238e-05
6.15067e-08
5.93837e-08
4.48503e-05
1.33573e-07
5.96415e-08
6.38978e-05
2.01201e-07
4.17889e-08
7.60078e-05
2.36373e-07
1.26219e-08
8.19025e-05
2.21969e-07
-2.22906e-08
8.19197e-05
1.60716e-07
-5.69613e-08
7.6034e-05
7.84698e-08
-8.28224e-08
6.38743e-05
1.60576e-08
-8.6812e-08
4.47365e-05
-4.84183e-08
1.78044e-05
1.55678e-08
3.21615e-08
1.97721e-05
7.4238e-08
6.21243e-08
5.01308e-05
1.59645e-07
6.45412e-08
7.19774e-05
2.39014e-07
4.75011e-08
8.60371e-05
2.79587e-07
1.80054e-08
9.29242e-05
2.61677e-07
-1.77121e-08
9.29329e-05
1.88919e-07
-5.28974e-08
8.6036e-05
9.19202e-08
-7.84897e-08
7.19062e-05
1.85965e-08
-8.17735e-08
4.99565e-05
-4.47694e-08
1.96117e-05
1.68948e-08
2.92145e-08
2.10751e-05
8.15131e-08
5.80617e-08
5.38706e-05
1.75706e-07
6.20362e-08
7.7735e-05
2.62971e-07
4.76156e-08
9.32203e-05
3.07026e-07
2.11847e-08
0.000100838
2.86371e-07
-1.12136e-08
0.000100836
2.05531e-07
-4.30133e-08
9.31862e-05
9.88225e-08
-6.58278e-08
7.76107e-05
1.922e-08
-6.86425e-08
5.36345e-05
-3.71422e-08
2.08759e-05
1.71302e-08
2.38388e-08
2.19845e-05
8.4854e-08
4.84324e-08
5.64852e-05
1.84298e-07
5.29025e-08
8.17724e-05
2.76471e-07
4.1987e-08
9.82706e-05
3.22621e-07
2.08707e-08
0.000106409
3.00019e-07
-5.32106e-09
0.000106396
2.1394e-07
-3.10148e-08
9.82041e-05
1.014e-07
-4.9348e-08
8.15984e-05
1.87416e-08
-5.1757e-08
5.61939e-05
-2.78209e-08
2.17523e-05
1.68124e-08
1.67726e-08
2.25972e-05
8.5848e-08
3.46143e-08
5.82475e-05
1.8812e-07
3.84145e-08
8.44975e-05
2.83103e-07
3.12347e-08
0.000101684
3.30427e-07
1.66937e-08
0.000110176
3.0657e-07
-1.52482e-09
0.000110154
2.17363e-07
-1.94162e-08
0.00010159
1.01641e-07
-3.21733e-08
8.42828e-05
1.78407e-08
-3.40134e-08
5.79124e-05
-1.82274e-08
2.23397e-05
1.63677e-08
8.64297e-09
2.29751e-05
8.57867e-08
1.80049e-08
5.93346e-05
1.89402e-07
2.01737e-08
8.61793e-05
2.85835e-07
1.6644e-08
0.000103791
3.33759e-07
9.26789e-09
0.000112503
3.09181e-07
-3.68515e-11
0.000112474
2.1829e-07
-9.18654e-09
0.000103679
1.01024e-07
-1.57172e-08
8.59363e-05
1.69985e-08
-1.67293e-08
5.89695e-05
-8.95602e-09
2.27005e-05
1.6077e-08
-2.48235e-13
2.31553e-05
8.55408e-08
-2.42529e-13
5.9853e-05
1.89664e-07
-3.44765e-13
8.69816e-05
2.86695e-07
-2.46358e-13
0.000104797
3.34865e-07
-6.18373e-14
0.000113613
3.09966e-07
1.15071e-13
0.00011358
2.18357e-07
2.43321e-13
0.000104674
1.00491e-07
3.29651e-13
8.6724e-05
1.65091e-08
4.1271e-13
5.94727e-05
4.94135e-14
2.28722e-05
1.6077e-08
-8.64352e-09
2.31553e-05
8.5541e-08
-1.80055e-08
5.9853e-05
1.89664e-07
-2.01745e-08
8.69816e-05
2.86696e-07
-1.66445e-08
0.000104797
3.34865e-07
-9.26808e-09
0.000113613
3.09966e-07
3.70348e-11
0.00011358
2.18357e-07
9.18698e-09
0.000104674
1.00491e-07
1.57178e-08
8.6724e-05
1.65091e-08
1.67301e-08
5.94727e-05
8.9561e-09
2.28722e-05
1.63679e-08
-1.67733e-08
2.29751e-05
8.57873e-08
-3.46153e-08
5.93346e-05
1.89403e-07
-3.84157e-08
8.61793e-05
2.85836e-07
-3.12356e-08
0.000103791
3.33759e-07
-1.66941e-08
0.000112503
3.09182e-07
1.5248e-09
0.000112474
2.18291e-07
1.94164e-08
0.000103679
1.01024e-07
3.21738e-08
8.59363e-05
1.69985e-08
3.4014e-08
5.89695e-05
1.82275e-08
2.27005e-05
1.68128e-08
-2.38399e-08
2.25972e-05
8.5849e-08
-4.84342e-08
5.82475e-05
1.88122e-07
-5.29045e-08
8.44975e-05
2.83104e-07
-4.19886e-08
0.000101684
3.30428e-07
-2.08717e-08
0.000110176
3.06571e-07
5.32053e-09
0.000110154
2.17363e-07
3.10146e-08
0.00010159
1.01641e-07
4.93481e-08
8.42828e-05
1.78407e-08
5.17573e-08
5.79124e-05
2.78209e-08
2.23397e-05
1.71308e-08
-2.92164e-08
2.19845e-05
8.48557e-08
-5.80649e-08
5.64852e-05
1.843e-07
-6.20396e-08
8.17724e-05
2.76473e-07
-4.76184e-08
9.82706e-05
3.22622e-07
-2.11868e-08
0.000106409
3.0002e-07
1.12122e-08
0.000106396
2.13941e-07
4.30123e-08
9.82041e-05
1.014e-07
6.58272e-08
8.15984e-05
1.87416e-08
6.86423e-08
5.61939e-05
3.7142e-08
2.17523e-05
1.6896e-08
-3.21647e-08
2.10751e-05
8.15158e-08
-6.21298e-08
5.38706e-05
1.75709e-07
-6.45467e-08
7.7735e-05
2.62974e-07
-4.75057e-08
9.32203e-05
3.07028e-07
-1.80088e-08
0.000100838
2.86372e-07
1.77096e-08
0.000100836
2.05532e-07
5.28955e-08
9.31862e-05
9.88226e-08
7.84884e-08
7.76107e-05
1.922e-08
8.17726e-08
5.36345e-05
4.47691e-08
2.08759e-05
1.55699e-08
-3.18539e-08
1.97721e-05
7.42424e-08
-5.93921e-08
5.01308e-05
1.5965e-07
-5.96495e-08
7.19774e-05
2.39019e-07
-4.17951e-08
8.60371e-05
2.7959e-07
-1.26265e-08
9.29242e-05
2.61679e-07
2.22872e-08
9.29329e-05
1.8892e-07
5.69587e-08
8.6036e-05
9.19204e-08
8.28206e-08
7.19062e-05
1.85965e-08
8.68107e-08
4.99565e-05
4.84178e-08
1.96117e-05
1.26154e-08
-2.75287e-08
1.79238e-05
6.15137e-08
-4.91438e-08
4.48503e-05
1.3358e-07
-4.7436e-08
6.38978e-05
2.01207e-07
-3.1473e-08
7.60078e-05
2.36377e-07
-6.87107e-09
8.19025e-05
2.21971e-07
2.22633e-08
8.19197e-05
1.60717e-07
5.15894e-08
7.6034e-05
7.84704e-08
7.43389e-08
6.38743e-05
1.60577e-08
7.90765e-08
4.47365e-05
4.53425e-08
1.78044e-05
7.76426e-09
-1.90108e-08
1.52796e-05
4.2643e-08
-3.21171e-08
3.73847e-05
9.63779e-08
-2.96062e-08
5.26141e-05
1.47929e-07
-1.85295e-08
6.21288e-05
1.75323e-07
-2.46593e-09
6.67193e-05
1.6492e-07
1.63639e-08
6.67395e-05
1.18698e-07
3.56974e-08
6.21681e-05
5.68271e-08
5.15502e-08
5.26211e-05
1.09246e-08
5.6248e-08
3.73191e-05
3.36071e-08
1.51979e-05
1.63572e-09
-7.85954e-09
1.1391e-05
1.92513e-08
-1.21815e-08
2.67167e-05
5.05114e-08
-1.07151e-08
3.68549e-05
8.20297e-08
-6.31804e-09
4.30408e-05
9.91847e-08
-3.26533e-10
4.59915e-05
9.28548e-08
6.63222e-09
4.60069e-05
6.45273e-08
1.39729e-08
4.30719e-05
2.7888e-08
2.0425e-08
3.68652e-05
3.56125e-09
2.30805e-08
2.66761e-05
1.4981e-08
1.13373e-05
-2.30142e-09
5.39193e-06
7.01974e-10
1.13297e-05
9.5225e-09
1.49992e-05
1.9498e-08
1.71723e-05
2.50356e-08
1.81962e-05
2.26925e-08
1.82013e-05
1.32988e-08
1.71817e-05
2.42821e-09
1.49985e-05
-2.25816e-09
1.13076e-05
5.36238e-06
-8.08942e-10
1.36051e-08
5.37911e-06
9.90979e-09
2.03684e-08
1.12986e-05
3.10597e-08
1.76339e-08
1.49604e-05
5.36471e-08
1.05265e-08
1.71392e-05
6.73046e-08
1.03543e-09
1.81815e-05
6.4887e-08
-1.00804e-08
1.82138e-05
4.6236e-08
-2.2206e-08
1.72225e-05
2.02221e-08
-3.36235e-08
1.50582e-05
2.44046e-09
-3.97906e-08
1.13651e-05
-2.73312e-08
5.39215e-06
9.91508e-09
3.1767e-08
1.13629e-05
5.25765e-08
5.2626e-08
2.66418e-05
1.1947e-07
4.82269e-08
3.67574e-05
1.85908e-07
3.07537e-08
4.29542e-05
2.25189e-07
5.71791e-09
4.59475e-05
2.18738e-07
-2.38807e-08
4.60271e-05
1.65191e-07
-5.51567e-08
4.31584e-05
8.60163e-08
-8.24196e-08
3.69932e-05
2.13039e-08
-9.3304e-08
2.67943e-05
-5.81657e-08
1.13894e-05
2.26458e-08
4.51422e-08
1.52436e-05
9.87813e-08
7.95745e-08
3.72816e-05
2.08472e-07
7.67423e-08
5.24759e-05
3.13542e-07
5.20684e-08
6.20024e-05
3.74199e-07
1.42592e-08
6.66501e-05
3.62947e-07
-3.08965e-08
6.67578e-05
2.77549e-07
-7.75085e-08
6.22758e-05
1.49521e-07
-1.1573e-07
5.27825e-05
3.94201e-08
-1.27229e-07
3.74631e-05
-7.5625e-08
1.52548e-05
3.2431e-08
5.16114e-08
1.78849e-05
1.35156e-07
9.53946e-08
4.47317e-05
2.79094e-07
9.60062e-08
6.37346e-05
4.14604e-07
6.89075e-08
7.58554e-05
4.91236e-07
2.46279e-08
8.18155e-05
4.74684e-07
-2.88325e-08
8.19342e-05
3.62746e-07
-8.31375e-08
7.61516e-05
1.95927e-07
-1.25783e-07
6.40511e-05
5.18286e-08
-1.36104e-07
4.48895e-05
-7.84547e-08
1.78591e-05
3.86339e-08
5.16973e-08
1.97334e-05
1.60072e-07
9.92219e-08
5.00055e-05
3.29003e-07
1.03474e-07
7.1801e-05
4.86776e-07
7.80396e-08
8.58702e-05
5.74595e-07
3.3738e-08
9.28273e-05
5.5313e-07
-2.03983e-08
9.29459e-05
4.20819e-07
-7.4859e-08
8.61601e-05
2.25794e-07
-1.16458e-07
7.20919e-05
5.87963e-08
-1.2536e-07
5.01128e-05
-7.08686e-08
1.96629e-05
4.18881e-08
4.67013e-08
2.10382e-05
1.75202e-07
9.23489e-08
5.37442e-05
3.60981e-07
9.91408e-08
7.75536e-05
5.34013e-07
7.79474e-08
9.30474e-05
6.29276e-07
3.86076e-08
0.000100738
6.0386e-07
-1.00908e-08
0.000100851
4.57055e-07
-5.88586e-08
9.3317e-05
2.43005e-07
-9.55494e-08
7.78039e-05
6.19227e-08
-1.03201e-07
5.37934e-05
-5.76892e-08
2.09247e-05
4.31468e-08
3.79653e-08
2.19501e-05
1.83259e-07
7.6805e-08
5.63606e-05
3.79586e-07
8.43346e-08
8.15909e-05
5.62461e-07
6.8514e-08
9.80971e-05
6.62464e-07
3.73135e-08
0.00010631
6.34214e-07
-1.80277e-09
0.000106416
4.77795e-07
-4.09383e-08
9.83426e-05
2.51764e-07
-7.02022e-08
8.1799e-05
6.27578e-08
-7.65434e-08
5.63562e-05
-4.25635e-08
2.18e-05
4.33025e-08
2.66467e-08
2.25652e-05
1.86883e-07
5.47816e-08
5.8126e-05
3.89326e-07
6.11285e-08
8.43183e-05
5.78159e-07
5.08408e-08
0.000101512
6.81035e-07
2.94717e-08
0.000110081
6.5095e-07
2.38732e-09
0.000110179
4.88599e-07
-2.47372e-08
0.000101736
2.55532e-07
-4.50009e-08
8.44907e-05
6.24889e-08
-4.9658e-08
5.80786e-05
-2.75749e-08
2.23872e-05
4.30394e-08
1.37121e-08
2.2945e-05
1.88153e-07
2.84615e-08
5.92158e-05
3.9381e-07
3.20669e-08
8.60028e-05
5.85932e-07
2.70482e-08
0.000103623
6.90414e-07
1.62446e-08
0.000112412
6.59275e-07
2.44954e-09
0.000112505
4.93607e-07
-1.13845e-08
0.000103831
2.56781e-07
-2.17294e-08
8.61499e-05
6.19184e-08
-2.42204e-08
5.91389e-05
-1.34542e-08
2.27483e-05
4.28008e-08
-2.76814e-13
2.31262e-05
1.8845e-07
-3.43251e-13
5.97358e-05
3.95455e-07
-4.78714e-13
8.68066e-05
5.89017e-07
-4.13988e-13
0.00010463
6.94214e-07
-2.48837e-13
0.000113524
6.62604e-07
-6.72019e-14
0.000113614
4.95471e-07
9.19278e-14
0.00010483
2.57043e-07
2.33888e-13
8.69407e-05
6.15236e-08
3.95831e-13
5.9644e-05
7.14448e-15
2.29203e-05
4.28008e-08
-1.37127e-08
2.31262e-05
1.8845e-07
-2.84623e-08
5.97358e-05
3.95455e-07
-3.2068e-08
8.68066e-05
5.89017e-07
-2.70491e-08
0.00010463
6.94214e-07
-1.62452e-08
0.000113524
6.62604e-07
-2.44974e-09
0.000113614
4.95471e-07
1.13846e-08
0.00010483
2.57043e-07
2.17298e-08
8.69407e-05
6.15236e-08
2.42212e-08
5.9644e-05
1.34542e-08
2.29203e-05
4.30395e-08
-2.66474e-08
2.2945e-05
1.88154e-07
-5.47827e-08
5.92158e-05
3.93811e-07
-6.11299e-08
8.60028e-05
5.85932e-07
-5.0842e-08
0.000103623
6.90415e-07
-2.94725e-08
0.000112412
6.59276e-07
-2.38772e-09
0.000112505
4.93607e-07
2.47371e-08
0.000103831
2.56781e-07
4.50012e-08
8.61499e-05
6.19184e-08
4.96586e-08
5.91389e-05
2.75749e-08
2.27483e-05
4.33028e-08
-3.79663e-08
2.25652e-05
1.86883e-07
-7.68068e-08
5.8126e-05
3.89327e-07
-8.43367e-08
8.43183e-05
5.7816e-07
-6.85158e-08
0.000101512
6.81036e-07
-3.73148e-08
0.000110081
6.5095e-07
1.80198e-09
0.000110179
4.886e-07
4.09379e-08
0.000101736
2.55532e-07
7.02022e-08
8.44907e-05
6.24889e-08
7.65436e-08
5.80786e-05
4.25633e-08
2.23872e-05
4.31474e-08
-4.67029e-08
2.19501e-05
1.83261e-07
-9.23516e-08
5.63606e-05
3.79587e-07
-9.91438e-08
8.15909e-05
5.62463e-07
-7.795e-08
9.80971e-05
6.62465e-07
-3.86095e-08
0.00010631
6.34214e-07
1.00895e-08
0.000106416
4.77796e-07
5.88577e-08
9.83426e-05
2.51764e-07
9.55489e-08
8.1799e-05
6.27577e-08
1.032e-07
5.63562e-05
5.7689e-08
2.18e-05
4.1889e-08
-5.16998e-08
2.10382e-05
1.75204e-07
-9.92261e-08
5.37442e-05
3.60984e-07
-1.03478e-07
7.75536e-05
5.34015e-07
-7.80432e-08
9.30474e-05
6.29278e-07
-3.37407e-08
0.000100738
6.03861e-07
2.03964e-08
0.000100851
4.57055e-07
7.48576e-08
9.3317e-05
2.43005e-07
1.16457e-07
7.78039e-05
6.19227e-08
1.2536e-07
5.37934e-05
7.08683e-08
2.09247e-05
3.86355e-08
-5.16151e-08
1.97334e-05
1.60075e-07
-9.54007e-08
5.00055e-05
3.29007e-07
-9.60121e-08
7.1801e-05
4.8678e-07
-6.8912e-08
8.58702e-05
5.74597e-07
-2.46311e-08
9.28273e-05
5.53131e-07
2.88302e-08
9.29459e-05
4.2082e-07
8.31359e-08
8.61601e-05
2.25794e-07
1.25782e-07
7.20919e-05
5.87963e-08
1.36103e-07
5.01128e-05
7.84543e-08
1.96629e-05
3.24336e-08
-4.51478e-08
1.78849e-05
1.35161e-07
-7.95829e-08
4.47317e-05
2.791e-07
-7.67494e-08
6.37346e-05
4.14608e-07
-5.20733e-08
7.58554e-05
4.91239e-07
-1.42624e-08
8.18155e-05
4.74686e-07
3.08944e-08
8.19342e-05
3.62747e-07
7.7507e-08
7.61516e-05
1.95928e-07
1.15729e-07
6.40511e-05
5.18287e-08
1.27229e-07
4.48895e-05
7.56247e-08
1.78591e-05
2.26502e-08
-3.1774e-08
1.52436e-05
9.87894e-08
-5.26357e-08
3.72816e-05
2.08479e-07
-4.82339e-08
5.24759e-05
3.13547e-07
-3.07578e-08
6.20024e-05
3.74202e-07
-5.72027e-09
6.66501e-05
3.62948e-07
2.38792e-08
6.67578e-05
2.7755e-07
5.51558e-08
6.22758e-05
1.49522e-07
8.24189e-08
5.27825e-05
3.94201e-08
9.33035e-08
3.74631e-05
5.81655e-08
1.52548e-05
9.92216e-09
-1.36108e-08
1.13629e-05
5.25874e-08
-2.0375e-08
2.66418e-05
1.19479e-07
-1.76378e-08
3.67574e-05
1.85914e-07
-1.05285e-08
4.29542e-05
2.25192e-07
-1.0364e-09
4.59475e-05
2.18739e-07
1.008e-08
4.60271e-05
1.65192e-07
2.22058e-08
4.31584e-05
8.60164e-08
3.36234e-08
3.69932e-05
2.13039e-08
3.97905e-08
2.67943e-05
2.73311e-08
1.13894e-05
-8.03056e-10
5.37912e-06
9.91715e-09
1.12986e-05
3.10653e-08
1.49604e-05
5.36505e-08
1.71392e-05
6.73064e-08
1.81815e-05
6.48879e-08
1.82138e-05
4.62363e-08
1.72225e-05
2.02221e-08
1.50582e-05
2.44041e-09
1.13651e-05
5.39215e-06
4.11432e-09
2.22541e-08
5.35274e-06
3.11016e-08
3.22105e-08
1.12394e-05
7.60503e-08
2.75233e-08
1.48879e-05
1.2294e-07
1.68875e-08
1.70754e-05
1.53749e-07
3.01091e-09
1.81477e-05
1.54516e-07
-1.34236e-08
1.82265e-05
1.21422e-07
-3.21357e-08
1.72878e-05
6.63141e-08
-5.12742e-08
1.51645e-05
1.80223e-08
-6.45027e-08
1.14779e-05
-4.72888e-08
5.45746e-06
2.82258e-08
5.01222e-08
1.13068e-05
1.18786e-07
8.14773e-08
2.6502e-05
2.5074e-07
7.45413e-08
3.65785e-05
3.81743e-07
4.92264e-08
4.27908e-05
4.65979e-07
1.34261e-08
4.58529e-05
4.67693e-07
-2.93882e-08
4.60414e-05
3.75921e-07
-7.6372e-08
4.32944e-05
2.18834e-07
-1.20593e-07
3.72196e-05
6.78656e-08
-1.43877e-07
2.70246e-05
-9.466e-08
1.15047e-05
5.25742e-08
6.9837e-08
1.51713e-05
2.0396e-07
1.2169e-07
3.709e-05
4.1281e-07
1.17853e-07
5.22237e-05
6.14552e-07
8.31305e-08
6.17667e-05
7.41441e-07
3.01119e-08
6.65065e-05
7.4098e-07
-3.3969e-08
6.67629e-05
5.97011e-07
-1.02404e-07
6.24458e-05
3.50858e-07
-1.62712e-07
5.30707e-05
1.09304e-07
-1.88079e-07
3.77489e-05
-1.17424e-07
1.53868e-05
7.08755e-08
7.88542e-08
1.7805e-05
2.6965e-07
1.44697e-07
4.45099e-05
5.38967e-07
1.46744e-07
6.34364e-05
7.95528e-07
1.09656e-07
7.55724e-05
9.53885e-07
4.86464e-08
8.16386e-05
9.48869e-07
-2.59734e-08
8.19312e-05
7.616e-07
-1.042e-07
7.63406e-05
4.45743e-07
-1.70032e-07
6.43743e-05
1.37479e-07
-1.93753e-07
4.52035e-05
-1.17176e-07
1.79963e-05
8.28241e-08
7.83432e-08
1.96511e-05
3.15207e-07
1.49667e-07
4.97682e-05
6.2875e-07
1.57594e-07
7.14766e-05
9.2545e-07
1.23724e-07
8.55594e-05
1.10602e-06
6.36374e-08
9.26317e-05
1.09594e-06
-1.08679e-08
9.29409e-05
8.75317e-07
-8.81251e-08
8.63646e-05
5.0859e-07
-1.51293e-07
7.24399e-05
1.54658e-07
-1.72389e-07
5.04453e-05
-1.02398e-07
1.98028e-05
8.97401e-08
7.03932e-08
2.09564e-05