/*--------------------------------*- C++ -*----------------------------------*\
  =========                 |
  \\      /  F ield         | OpenFOAM: The Open Source CFD Toolbox
   \\    /   O peration     | Website:  https://openfoam.org
    \\  /    A nd           | Version:  6
     \\/     M anipulation  |
\*---------------------------------------------------------------------------*/
FoamFile
{
    version     2.0;
    format      ascii;
    class       volScalarField;
    location    "0.084";
    object      p;
}
// * * * * * * * * * * * * * * * * * * * * * * * * * * * * * * * * * * * * * //

dimensions      [0 2 -2 0 0 0 0];

internalField   nonuniform List<scalar> 
56000
(
4.5018e-06
1.00091e-05
-1.33476e-05
-1.2724e-05
-7.45155e-05
-7.43967e-05
-0.000174357
-0.000174285
-0.000299925
-0.00029989
-0.000436959
-0.000436941
-0.000570325
-0.000570313
-0.000685429
-0.000685418
-0.000769789
-0.00076978
-0.00081433
-0.000814321
-0.000814279
-0.000814269
-0.000769631
-0.00076962
-0.000685151
-0.00068514
-0.000569907
-0.000569896
-0.000436365
-0.000436353
-0.000299095
-0.000299081
-0.000173212
-0.000173204
-7.29541e-05
-7.29313e-05
-1.05787e-05
-1.05142e-05
1.34894e-05
1.35632e-05
-4.35867
-4.35866
-4.35874
-4.35874
-4.35893
-4.35893
-4.35924
-4.35924
-4.35963
-4.35963
-4.36006
-4.36006
-4.36047
-4.36047
-4.36083
-4.36083
-4.36109
-4.36109
-4.36123
-4.36123
-4.36123
-4.36123
-4.36109
-4.36109
-4.36083
-4.36083
-4.36047
-4.36047
-4.36006
-4.36006
-4.35963
-4.35963
-4.35924
-4.35924
-4.35893
-4.35893
-4.35874
-4.35874
-4.35866
-4.35866
-8.7172
-8.7172
-8.71733
-8.71733
-8.71768
-8.71768
-8.71824
-8.71824
-8.71893
-8.71893
-8.71969
-8.71969
-8.72043
-8.72043
-8.72107
-8.72107
-8.72154
-8.72154
-8.72178
-8.72178
-8.72178
-8.72178
-8.72154
-8.72154
-8.72107
-8.72107
-8.72043
-8.72043
-8.71969
-8.71969
-8.71893
-8.71893
-8.71824
-8.71824
-8.71768
-8.71768
-8.71733
-8.71733
-8.7172
-8.7172
-13.0755
-13.0755
-13.0757
-13.0757
-13.0762
-13.0762
-13.0771
-13.0771
-13.0782
-13.0782
-13.0793
-13.0793
-13.0805
-13.0805
-13.0815
-13.0815
-13.0822
-13.0822
-13.0826
-13.0826
-13.0826
-13.0826
-13.0822
-13.0822
-13.0815
-13.0815
-13.0805
-13.0805
-13.0793
-13.0793
-13.0782
-13.0782
-13.0771
-13.0771
-13.0762
-13.0762
-13.0757
-13.0757
-13.0755
-13.0755
-17.4334
-17.4334
-17.4337
-17.4337
-17.4345
-17.4345
-17.4357
-17.4357
-17.4373
-17.4373
-17.439
-17.439
-17.4407
-17.4407
-17.4421
-17.4421
-17.4432
-17.4432
-17.4437
-17.4437
-17.4437
-17.4437
-17.4432
-17.4432
-17.4421
-17.4421
-17.4407
-17.4407
-17.439
-17.439
-17.4373
-17.4373
-17.4357
-17.4357
-17.4345
-17.4345
-17.4337
-17.4337
-17.4334
-17.4334
-21.7907
-21.7907
-21.7912
-21.7912
-21.7923
-21.7923
-21.7941
-21.7941
-21.7963
-21.7963
-21.7988
-21.7988
-21.8011
-21.8011
-21.8032
-21.8032
-21.8046
-21.8046
-21.8054
-21.8054
-21.8054
-21.8054
-21.8046
-21.8046
-21.8032
-21.8032
-21.8011
-21.8011
-21.7988
-21.7988
-21.7963
-21.7963
-21.7941
-21.7941
-21.7923
-21.7923
-21.7912
-21.7912
-21.7907
-21.7907
-26.1473
-26.1473
-26.1479
-26.1479
-26.1495
-26.1495
-26.152
-26.152
-26.1552
-26.1552
-26.1586
-26.1586
-26.1619
-26.1619
-26.1647
-26.1647
-26.1668
-26.1668
-26.1678
-26.1678
-26.1678
-26.1678
-26.1668
-26.1668
-26.1647
-26.1647
-26.1619
-26.1619
-26.1586
-26.1586
-26.1552
-26.1552
-26.152
-26.152
-26.1495
-26.1495
-26.1479
-26.1479
-26.1473
-26.1473
-30.5027
-30.5027
-30.5035
-30.5035
-30.5058
-30.5058
-30.5093
-30.5093
-30.5137
-30.5137
-30.5185
-30.5185
-30.5231
-30.5231
-30.527
-30.527
-30.5298
-30.5298
-30.5313
-30.5313
-30.5313
-30.5313
-30.5298
-30.5298
-30.527
-30.527
-30.5231
-30.5231
-30.5185
-30.5185
-30.5137
-30.5137
-30.5093
-30.5093
-30.5058
-30.5058
-30.5035
-30.5035
-30.5027
-30.5027
-34.8565
-34.8565
-34.8577
-34.8577
-34.8608
-34.8608
-34.8658
-34.8658
-34.872
-34.872
-34.8786
-34.8786
-34.8849
-34.8849
-34.8903
-34.8903
-34.8942
-34.8942
-34.8962
-34.8963
-34.8962
-34.8963
-34.8942
-34.8942
-34.8903
-34.8903
-34.8849
-34.8849
-34.8786
-34.8786
-34.872
-34.872
-34.8658
-34.8658
-34.8608
-34.8608
-34.8577
-34.8577
-34.8564
-34.8565
-39.208
-39.208
-39.2097
-39.2098
-39.2142
-39.2142
-39.2212
-39.2212
-39.2298
-39.2298
-39.2389
-39.239
-39.2476
-39.2477
-39.255
-39.2551
-39.2603
-39.2604
-39.2631
-39.2632
-39.2631
-39.2632
-39.2603
-39.2604
-39.255
-39.2551
-39.2476
-39.2477
-39.2389
-39.239
-39.2298
-39.2298
-39.2212
-39.2212
-39.2142
-39.2142
-39.2097
-39.2098
-39.208
-39.208
-43.5563
-43.5564
-43.5588
-43.5589
-43.5651
-43.5652
-43.5749
-43.5751
-43.5869
-43.5871
-43.5996
-43.5998
-43.6116
-43.6117
-43.6217
-43.6218
-43.6289
-43.629
-43.6327
-43.6328
-43.6327
-43.6328
-43.6289
-43.629
-43.6217
-43.6218
-43.6116
-43.6117
-43.5996
-43.5998
-43.5869
-43.5871
-43.5749
-43.5751
-43.5651
-43.5652
-43.5588
-43.5589
-43.5563
-43.5564
-47.9
-47.9003
-47.9036
-47.9039
-47.9126
-47.913
-47.9266
-47.9269
-47.9434
-47.9437
-47.9609
-47.9613
-47.9773
-47.9777
-47.991
-47.9913
-48.0007
-48.0011
-48.0058
-48.0062
-48.0058
-48.0062
-48.0007
-48.0011
-47.991
-47.9913
-47.9773
-47.9777
-47.9609
-47.9613
-47.9434
-47.9437
-47.9266
-47.9269
-47.9126
-47.913
-47.9036
-47.9039
-47.9
-47.9003
-52.237
-52.2378
-52.2424
-52.2432
-52.2555
-52.2563
-52.2753
-52.2762
-52.2989
-52.2998
-52.3231
-52.324
-52.3454
-52.3463
-52.3639
-52.3648
-52.377
-52.3779
-52.3837
-52.3846
-52.3837
-52.3846
-52.3769
-52.3779
-52.3639
-52.3648
-52.3454
-52.3463
-52.3231
-52.324
-52.2989
-52.2998
-52.2753
-52.2762
-52.2555
-52.2563
-52.2424
-52.2432
-52.237
-52.2378
-56.5641
-56.5662
-56.5724
-56.5744
-56.5915
-56.5936
-56.62
-56.6222
-56.6531
-56.6554
-56.6865
-56.6888
-56.7168
-56.7191
-56.7415
-56.7438
-56.7588
-56.7611
-56.7678
-56.7701
-56.7678
-56.7701
-56.7588
-56.7611
-56.7415
-56.7438
-56.7168
-56.7191
-56.6865
-56.6888
-56.6531
-56.6554
-56.62
-56.6222
-56.5915
-56.5936
-56.5724
-56.5744
-56.5641
-56.5662
-60.8761
-60.8814
-60.8892
-60.8941
-60.9178
-60.923
-60.9591
-60.9645
-61.0057
-61.0112
-61.0516
-61.0571
-61.0924
-61.0979
-61.1251
-61.1307
-61.1479
-61.1534
-61.1595
-61.165
-61.1595
-61.165
-61.1479
-61.1534
-61.1251
-61.1307
-61.0924
-61.0979
-61.0516
-61.0571
-61.0057
-61.0112
-60.9591
-60.9645
-60.9178
-60.923
-60.8892
-60.8941
-60.8761
-60.8814
-65.1645
-65.1781
-65.1866
-65.1993
-65.2305
-65.2437
-65.291
-65.3046
-65.3568
-65.3706
-65.4195
-65.4334
-65.4739
-65.4878
-65.5167
-65.5306
-65.546
-65.5599
-65.5609
-65.5748
-65.5609
-65.5748
-65.546
-65.5599
-65.5167
-65.5306
-65.4739
-65.4878
-65.4195
-65.4334
-65.3568
-65.3706
-65.291
-65.3046
-65.2304
-65.2437
-65.1866
-65.1993
-65.1645
-65.1781
-69.412
-69.4494
-69.4517
-69.4872
-69.5212
-69.5584
-69.6112
-69.6492
-69.7041
-69.7424
-69.7892
-69.8276
-69.8607
-69.8991
-69.9156
-69.9539
-69.9525
-69.9909
-69.9711
-70.0094
-69.9711
-70.0094
-69.9525
-69.9909
-69.9156
-69.9539
-69.8607
-69.8991
-69.7892
-69.8276
-69.7041
-69.7424
-69.6112
-69.6492
-69.5212
-69.5584
-69.4517
-69.4872
-69.412
-69.4494
-73.5737
-73.6604
-73.6459
-73.7173
-73.7567
-73.829
-73.8907
-73.9639
-74.0211
-74.0943
-74.1348
-74.2079
-74.2267
-74.2998
-74.2953
-74.3684
-74.3406
-74.4136
-74.3631
-74.4361
-74.3631
-74.4361
-74.3406
-74.4136
-74.2953
-74.3684
-74.2267
-74.2998
-74.1348
-74.2079
-74.0211
-74.0943
-73.8907
-73.9639
-73.7567
-73.829
-73.6459
-73.7173
-73.5737
-73.6604
-77.6106
-77.6967
-77.7677
-77.7144
-77.9482
-77.8496
-78.148
-78.0365
-78.3292
-78.2127
-78.4778
-78.3596
-78.5926
-78.4739
-78.6753
-78.5567
-78.7288
-78.6102
-78.7549
-78.6364
-78.7549
-78.6364
-78.7288
-78.6102
-78.6753
-78.5567
-78.5926
-78.4739
-78.4778
-78.3596
-78.3292
-78.2127
-78.148
-78.0365
-77.9482
-77.8496
-77.7677
-77.7144
-77.6106
-77.6967
-81.6813
-82.0195
-82.1863
-82.12
-82.5833
-82.359
-82.9123
-82.6447
-83.1688
-82.8871
-83.3596
-83.0732
-83.4974
-83.2098
-83.5924
-83.3048
-83.6519
-83.3647
-83.6806
-83.3936
-83.6806
-83.3936
-83.6519
-83.3647
-83.5924
-83.3048
-83.4974
-83.2098
-83.3596
-83.0732
-83.1688
-82.8871
-82.9123
-82.6447
-82.5833
-82.359
-82.1863
-82.12
-81.6813
-82.0195
-84.11
-86.4914
-85.1221
-87.2732
-85.8304
-87.8361
-86.3006
-88.2507
-86.6219
-88.5484
-86.8422
-88.7573
-86.9923
-88.9018
-87.0919
-88.9985
-87.1528
-89.058
-87.1818
-89.0864
-87.1818
-89.0864
-87.1528
-89.058
-87.0919
-88.9985
-86.9923
-88.9018
-86.8422
-88.7573
-86.6219
-88.5484
-86.3006
-88.2507
-85.8304
-87.8361
-85.1221
-87.2732
-84.11
-86.4914
-80.0595
-81.1084
-80.8703
-81.5419
-81.4307
-81.8551
-81.8413
-82.1599
-82.1365
-82.4078
-82.3431
-82.5922
-82.4851
-82.7238
-82.5796
-82.8135
-82.6375
-82.8692
-82.6651
-82.8959
-82.6651
-82.8959
-82.6375
-82.8692
-82.5796
-82.8135
-82.4851
-82.7238
-82.3431
-82.5922
-82.1365
-82.4078
-81.8413
-82.1599
-81.4307
-81.8551
-80.8703
-81.5419
-80.0595
-81.1084
-73.1121
-73.5659
-73.6728
-73.8008
-74.1057
-74.0284
-74.4489
-74.2707
-74.7047
-74.4759
-74.8879
-74.6337
-75.0158
-74.7493
-75.102
-74.8296
-75.1551
-74.8801
-75.1805
-74.9044
-75.1805
-74.9044
-75.1551
-74.8801
-75.102
-74.8296
-75.0158
-74.7493
-74.8879
-74.6337
-74.7047
-74.4759
-74.4489
-74.2707
-74.1057
-74.0284
-73.6728
-73.8008
-73.1121
-73.5659
-64.5812
-64.7749
-64.9483
-64.9111
-65.2684
-65.0772
-65.5401
-65.2641
-65.7505
-65.4279
-65.9053
-65.558
-66.0159
-65.6558
-66.0914
-65.7249
-66.1384
-65.7689
-66.161
-65.7903
-66.161
-65.7903
-66.1384
-65.7689
-66.0914
-65.7249
-66.0159
-65.6558
-65.9053
-65.558
-65.7505
-65.4279
-65.5401
-65.2641
-65.2684
-65.0772
-64.9483
-64.9111
-64.5812
-64.7749
-55.1189
-55.1845
-55.353
-55.2639
-55.5801
-55.3789
-55.7856
-55.5173
-55.9512
-55.6436
-56.0769
-55.7472
-56.1687
-55.827
-56.2324
-55.8844
-56.2725
-55.9214
-56.2919
-55.9394
-56.2919
-55.9394
-56.2725
-55.9214
-56.2324
-55.8844
-56.1687
-55.827
-56.0769
-55.7472
-55.9512
-55.6436
-55.7856
-55.5173
-55.5801
-55.3789
-55.353
-55.2639
-55.1189
-55.1845
-45.1256
-45.1357
-45.2729
-45.1808
-45.4299
-45.2587
-45.5803
-45.3585
-45.706
-45.453
-45.8042
-45.5326
-45.8773
-45.5953
-45.9289
-45.6411
-45.9617
-45.6709
-45.9776
-45.6856
-45.9776
-45.6856
-45.9617
-45.6709
-45.9289
-45.6411
-45.8773
-45.5953
-45.8042
-45.5326
-45.706
-45.453
-45.5803
-45.3585
-45.4299
-45.2587
-45.2729
-45.1808
-45.1256
-45.1357
-34.8277
-34.8187
-34.9193
-34.8439
-35.025
-34.8955
-35.131
-34.9652
-35.2224
-35.0331
-35.2954
-35.0917
-35.3508
-35.1386
-35.3903
-35.1734
-35.4157
-35.1962
-35.428
-35.2075
-35.428
-35.2075
-35.4157
-35.1962
-35.3903
-35.1734
-35.3508
-35.1386
-35.2954
-35.0917
-35.2224
-35.0331
-35.131
-34.9652
-35.025
-34.8955
-34.9193
-34.8439
-34.8277
-34.8187
-24.352
-24.3398
-24.407
-24.3535
-24.4745
-24.3861
-24.5445
-24.4318
-24.6063
-24.4773
-24.6565
-24.5174
-24.6952
-24.5498
-24.723
-24.5741
-24.741
-24.5901
-24.7498
-24.5981
-24.7498
-24.5981
-24.741
-24.5901
-24.723
-24.5741
-24.6952
-24.5498
-24.6565
-24.5174
-24.6063
-24.4773
-24.5445
-24.4318
-24.4745
-24.3861
-24.407
-24.3535
-24.352
-24.3398
-13.7743
-13.7653
-13.8036
-13.7721
-13.8411
-13.79
-13.8809
-13.8159
-13.9166
-13.8421
-13.946
-13.8654
-13.9687
-13.8844
-13.9853
-13.8987
-13.996
-13.9082
-14.0012
-13.9129
-14.0012
-13.9129
-13.996
-13.9082
-13.9853
-13.8987
-13.9687
-13.8844
-13.946
-13.8654
-13.9166
-13.8421
-13.8809
-13.8159
-13.8411
-13.79
-13.8036
-13.7721
-13.7743
-13.7653
-3.1436
-3.1404
-3.15282
-3.14247
-3.16487
-3.1482
-3.17779
-3.15658
-3.18943
-3.16511
-3.19907
-3.17274
-3.20658
-3.17899
-3.21203
-3.1837
-3.21557
-3.18684
-3.21731
-3.1884
-3.21731
-3.1884
-3.21557
-3.18684
-3.21203
-3.1837
-3.20658
-3.17899
-3.19907
-3.17274
-3.18943
-3.16511
-3.17779
-3.15658
-3.16488
-3.1482
-3.15282
-3.14247
-3.1436
-3.1404
7.50345
7.50028
7.51265
7.50228
7.52467
7.50799
7.53758
7.51634
7.54924
7.52488
7.55893
7.53253
7.56649
7.53883
7.57202
7.54358
7.57561
7.54676
7.57738
7.54834
7.57738
7.54834
7.57561
7.54676
7.57202
7.54358
7.56649
7.53883
7.55893
7.53253
7.54924
7.52488
7.53758
7.51634
7.52467
7.50799
7.51265
7.50228
7.50345
7.50028
18.1341
18.1252
18.1634
18.1319
18.2009
18.1498
18.2407
18.1757
18.2764
18.2019
18.3058
18.2251
18.3286
18.2442
18.3452
18.2586
18.356
18.2681
18.3613
18.2729
18.3613
18.2729
18.356
18.2681
18.3452
18.2586
18.3286
18.2442
18.3058
18.2251
18.2764
18.2019
18.2407
18.1757
18.2009
18.1498
18.1634
18.1319
18.1341
18.1252
28.7118
28.6996
28.7668
28.7133
28.8343
28.7458
28.9043
28.7915
28.9661
28.8371
29.0164
28.8771
29.0551
28.9096
29.083
28.9339
29.101
28.95
29.1099
28.958
29.1099
28.958
29.101
28.95
29.083
28.9339
29.0551
28.9096
29.0164
28.8771
28.9661
28.8371
28.9043
28.7915
28.8343
28.7458
28.7668
28.7133
28.7118
28.6996
39.1875
39.1785
39.279
39.2037
39.3848
39.2553
39.4908
39.3249
39.5821
39.3928
39.6552
39.4515
39.7106
39.4985
39.7502
39.5332
39.7756
39.5561
39.788
39.5674
39.788
39.5674
39.7756
39.5561
39.7502
39.5332
39.7106
39.4985
39.6552
39.4515
39.5821
39.3928
39.4908
39.3249
39.3848
39.2553
39.279
39.2037
39.1875
39.1785
49.4854
49.4956
49.6327
49.5406
49.7897
49.6184
49.94
49.7182
50.0657
49.8127
50.1639
49.8924
50.2371
49.9551
50.2888
50.001
50.3216
50.0309
50.3376
50.0455
50.3376
50.0455
50.3216
50.0309
50.2888
50.001
50.2371
49.9551
50.1639
49.8924
50.0657
49.8127
49.94
49.7182
49.7897
49.6184
49.6327
49.5406
49.4854
49.4956
59.4787
59.5443
59.7128
59.6236
59.9398
59.7387
60.1453
59.877
60.3109
60.0034
60.4367
60.107
60.5285
60.1868
60.5923
60.2443
60.6325
60.2813
60.6519
60.2994
60.6519
60.2994
60.6325
60.2813
60.5923
60.2443
60.5285
60.1868
60.4367
60.107
60.3109
60.0034
60.1453
59.877
59.9398
59.7386
59.7128
59.6236
59.4787
59.5443
68.9409
69.1347
69.308
69.2709
69.6281
69.4369
69.8998
69.6238
70.1102
69.7877
70.2651
69.9178
70.3757
70.0157
70.4512
70.0848
70.4984
70.1289
70.521
70.1503
70.521
70.1503
70.4984
70.1289
70.4512
70.0848
70.3757
70.0157
70.2651
69.9178
70.1102
69.7877
69.8998
69.6238
69.6281
69.4369
69.308
69.2709
68.9409
69.1347
77.4717
77.9256
78.0325
78.1605
78.4654
78.3881
78.8085
78.6304
79.0644
78.8356
79.2476
78.9935
79.3756
79.1091
79.4618
79.1895
79.515
79.24
79.5404
79.2643
79.5404
79.2643
79.515
79.24
79.4618
79.1895
79.3756
79.1091
79.2476
78.9935
79.0644
78.8356
78.8085
78.6304
78.4654
78.3881
78.0325
78.1605
77.4717
77.9256
84.419
85.4679
85.2298
85.9013
85.7902
86.2145
86.2007
86.5194
86.496
86.7673
86.7026
86.9517
86.8446
87.0833
86.9392
87.173
86.9972
87.2288
87.0247
87.2555
87.0247
87.2555
86.9972
87.2288
86.9392
87.173
86.8446
87.0833
86.7026
86.9517
86.496
86.7673
86.2007
86.5194
85.7902
86.2145
85.2298
85.9013
84.419
85.4679
88.4693
90.8505
89.4814
91.6321
90.1897
92.1949
90.6598
92.6094
90.9812
92.907
91.2015
93.116
91.3516
93.2605
91.4512
93.3572
91.5122
93.4167
91.5412
93.4451
91.5412
93.4451
91.5122
93.4167
91.4512
93.3572
91.3516
93.2605
91.2015
93.116
90.9812
92.907
90.6598
92.6094
90.1897
92.1949
89.4814
91.6321
88.4693
90.8505
-96.33
-98.8804
-99.8311
-100.585
-101.138
-101.589
-102.017
-102.462
-102.946
-103.484
-104.082
-104.737
-105.434
-106.138
-106.777
-107.199
-107.078
-105.947
-103.899
-95.9137
-98.1788
-100.078
-100.599
-101.213
-101.701
-102.115
-102.52
-102.952
-103.428
-103.965
-104.568
-105.241
-105.978
-106.76
-107.552
-108.268
-108.678
-108.658
-109.985
-107.328
-99.1671
-100.635
-100.901
-101.419
-101.85
-102.231
-102.62
-103.049
-103.535
-104.096
-104.744
-105.491
-106.347
-107.323
-108.427
-109.65
-110.858
-112.166
-116.744
-118.94
-99.6936
-100.968
-101.098
-101.545
-101.933
-102.29
-102.673
-103.111
-103.625
-104.235
-104.961
-105.828
-106.866
-108.114
-109.63
-111.475
-113.594
-116.285
-123.705
-129.659
-100.017
-101.201
-101.256
-101.657
-102.017
-102.362
-102.748
-103.205
-103.757
-104.429
-105.25
-106.257
-107.497
-109.039
-110.981
-113.443
-116.432
-120.378
-130.177
-139.095
-100.224
-101.361
-101.375
-101.75
-102.094
-102.436
-102.832
-103.314
-103.908
-104.646
-105.564
-106.709
-108.148
-109.969
-112.304
-115.319
-119.066
-124.07
-135.792
-147.041
-100.359
-101.471
-101.463
-101.823
-102.161
-102.505
-102.913
-103.421
-104.057
-104.856
-105.862
-107.133
-108.745
-110.808
-113.478
-116.953
-121.317
-127.165
-140.381
-153.417
-100.446
-101.545
-101.524
-101.877
-102.213
-102.562
-102.984
-103.513
-104.184
-105.034
-106.113
-107.485
-109.236
-111.488
-114.418
-118.245
-123.076
-129.551
-143.862
-158.198
-100.499
-101.59
-101.564
-101.913
-102.25
-102.603
-103.035
-103.581
-104.277
-105.164
-106.293
-107.735
-109.582
-111.965
-115.071
-119.135
-124.277
-131.167
-146.196
-161.382
-100.524
-101.612
-101.583
-101.932
-102.269
-102.624
-103.061
-103.617
-104.326
-105.231
-106.387
-107.865
-109.761
-112.21
-115.405
-119.589
-124.886
-131.982
-147.367
-162.972
-100.524
-101.612
-101.583
-101.932
-102.269
-102.624
-103.061
-103.617
-104.326
-105.231
-106.387
-107.865
-109.761
-112.21
-115.405
-119.589
-124.886
-131.982
-147.367
-162.972
-100.499
-101.59
-101.564
-101.913
-102.25
-102.603
-103.035
-103.581
-104.277
-105.164
-106.293
-107.735
-109.582
-111.965
-115.071
-119.135
-124.277
-131.167
-146.196
-161.382
-100.446
-101.545
-101.524
-101.877
-102.213
-102.562
-102.984
-103.513
-104.184
-105.034
-106.113
-107.485
-109.236
-111.488
-114.418
-118.245
-123.076
-129.551
-143.862
-158.198
-100.359
-101.471
-101.463
-101.823
-102.161
-102.505
-102.913
-103.421
-104.057
-104.856
-105.862
-107.133
-108.745
-110.808
-113.478
-116.953
-121.317
-127.165
-140.381
-153.417
-100.224
-101.361
-101.375
-101.75
-102.094
-102.436
-102.832
-103.314
-103.908
-104.646
-105.564
-106.709
-108.148
-109.969
-112.304
-115.319
-119.066
-124.07
-135.792
-147.041
-100.017
-101.201
-101.256
-101.657
-102.017
-102.362
-102.748
-103.205
-103.757
-104.429
-105.25
-106.257
-107.497
-109.039
-110.981
-113.443
-116.432
-120.378
-130.177
-139.095
-99.6936
-100.968
-101.098
-101.545
-101.933
-102.29
-102.673
-103.111
-103.625
-104.235
-104.961
-105.828
-106.866
-108.114
-109.63
-111.475
-113.594
-116.285
-123.705
-129.659
-99.1671
-100.635
-100.901
-101.419
-101.85
-102.231
-102.62
-103.049
-103.535
-104.096
-104.744
-105.491
-106.347
-107.323
-108.427
-109.65
-110.858
-112.166
-116.744
-118.94
-98.1788
-100.078
-100.599
-101.213
-101.701
-102.115
-102.52
-102.952
-103.428
-103.965
-104.568
-105.241
-105.978
-106.76
-107.552
-108.268
-108.678
-108.658
-109.985
-107.328
-96.33
-98.8804
-99.8311
-100.585
-101.138
-101.589
-102.017
-102.462
-102.946
-103.484
-104.082
-104.737
-105.434
-106.138
-106.777
-107.199
-107.078
-105.947
-103.899
-95.9136
-84.9038
-86.6686
-87.5862
-88.2555
-88.7714
-89.2129
-89.6375
-90.0786
-90.5561
-91.0813
-91.6572
-92.2763
-92.9157
-93.5268
-94.0175
-94.2138
-93.7841
-92.1999
-88.7024
-80.0046
-85.4644
-87.0467
-87.8215
-88.4306
-88.9176
-89.3423
-89.7553
-90.1863
-90.6536
-91.1675
-91.7309
-92.3377
-92.9679
-93.5805
-94.0991
-94.3797
-94.1416
-92.9873
-90.5351
-82.9738
-85.8353
-87.2412
-87.8982
-88.452
-88.9066
-89.3124
-89.7158
-90.1443
-90.6153
-91.1406
-91.7259
-92.3703
-93.0633
-93.7789
-94.4666
-95.0227
-95.2154
-94.7393
-93.5394
-87.1991
-86.1396
-87.4412
-88.0167
-88.5216
-88.9455
-89.335
-89.7343
-90.1698
-90.6603
-91.2202
-91.8608
-92.5896
-93.409
-94.3128
-95.2795
-96.2453
-97.0197
-97.3556
-97.3872
-92.0252
-86.3719
-87.6136
-88.1366
-88.6061
-89.0082
-89.388
-89.7896
-90.2401
-90.76
-91.3677
-92.0807
-92.9155
-93.888
-95.0107
-96.2884
-97.6896
-99.0535
-100.167
-101.276
-96.68
-86.5403
-87.7465
-88.2374
-88.6842
-89.0731
-89.4497
-89.8587
-90.3286
-90.8826
-91.543
-92.3331
-93.2784
-94.4062
-95.7454
-97.3216
-99.1283
-101.023
-102.811
-104.809
-100.807
-86.6592
-87.8445
-88.3163
-88.7498
-89.132
-89.5098
-89.9288
-90.4192
-91.0068
-91.7177
-92.5803
-93.6273
-94.8958
-96.4272
-98.2633
-100.415
-102.752
-105.087
-107.783
-104.231
-86.7402
-87.9133
-88.3743
-88.8005
-89.1802
-89.5611
-89.9902
-90.4991
-91.1156
-91.8691
-92.792
-93.9225
-95.3051
-96.9905
-99.0317
-101.452
-104.127
-106.872
-110.084
-106.854
-86.7906
-87.9571
-88.4124
-88.835
-89.2142
-89.5983
-90.0353
-90.558
-91.1957
-91.9797
-92.9456
-94.135
-95.5974
-97.3895
-99.5716
-102.174
-105.076
-108.096
-111.645
-108.625
-86.8148
-87.9783
-88.4312
-88.8525
-89.2317
-89.6178
-90.0592
-90.5891
-91.2379
-92.0379
-93.026
-94.2459
-95.7493
-97.5958
-99.8494
-102.544
-105.56
-108.716
-112.433
-109.516
-86.8148
-87.9783
-88.4312
-88.8525
-89.2317
-89.6178
-90.0592
-90.5891
-91.2379
-92.0379
-93.026
-94.2459
-95.7493
-97.5958
-99.8494
-102.544
-105.56
-108.716
-112.433
-109.516
-86.7906
-87.9571
-88.4124
-88.835
-89.2142
-89.5983
-90.0353
-90.558
-91.1957
-91.9797
-92.9456
-94.135
-95.5974
-97.3895
-99.5716
-102.174
-105.076
-108.096
-111.645
-108.625
-86.7402
-87.9133
-88.3743
-88.8005
-89.1802
-89.5611
-89.9902
-90.4991
-91.1156
-91.8691
-92.792
-93.9225
-95.3051
-96.9905
-99.0317
-101.452
-104.127
-106.872
-110.084
-106.854
-86.6592
-87.8445
-88.3163
-88.7498
-89.132
-89.5098
-89.9288
-90.4192
-91.0068
-91.7177
-92.5803
-93.6273
-94.8958
-96.4272
-98.2633
-100.415
-102.752
-105.087
-107.783
-104.231
-86.5403
-87.7465
-88.2374
-88.6842
-89.0731
-89.4497
-89.8588
-90.3286
-90.8826
-91.543
-92.3331
-93.2784
-94.4062
-95.7454
-97.3216
-99.1283
-101.023
-102.811
-104.809
-100.807
-86.3719
-87.6136
-88.1366
-88.6062
-89.0082
-89.388
-89.7896
-90.2401
-90.76
-91.3677
-92.0807
-92.9155
-93.888
-95.0107
-96.2884
-97.6896
-99.0535
-100.167
-101.276
-96.68
-86.1396
-87.4412
-88.0167
-88.5216
-88.9455
-89.335
-89.7343
-90.1698
-90.6603
-91.2202
-91.8608
-92.5896
-93.409
-94.3127
-95.2795
-96.2453
-97.0197
-97.3556
-97.3872
-92.0252
-85.8353
-87.2412
-87.8982
-88.452
-88.9066
-89.3124
-89.7158
-90.1443
-90.6153
-91.1406
-91.7259
-92.3703
-93.0633
-93.7789
-94.4666
-95.0227
-95.2154
-94.7393
-93.5394
-87.1991
-85.4644
-87.0467
-87.8215
-88.4306
-88.9176
-89.3423
-89.7553
-90.1863
-90.6536
-91.1675
-91.7309
-92.3377
-92.9679
-93.5805
-94.0991
-94.3797
-94.1416
-92.9873
-90.5351
-82.9738
-84.9038
-86.6686
-87.5862
-88.2555
-88.7714
-89.2129
-89.6375
-90.0786
-90.5561
-91.0813
-91.6572
-92.2763
-92.9157
-93.5268
-94.0175
-94.2137
-93.784
-92.1999
-88.7024
-80.0046
-75.1828
-76.2641
-76.995
-77.5616
-78.0264
-78.4419
-78.8468
-79.2659
-79.714
-80.1978
-80.7143
-81.2485
-81.7666
-82.2054
-82.4538
-82.3223
-81.4919
-79.4745
-75.5815
-68.2503
-75.3347
-76.343
-77.0315
-77.579
-78.0344
-78.4436
-78.8419
-79.2519
-79.6872
-80.1532
-80.6463
-81.1505
-81.6324
-82.0305
-82.2398
-82.0832
-81.2641
-79.3337
-75.6794
-68.599
-75.5189
-76.4433
-77.0785
-77.5984
-78.0376
-78.4371
-78.8296
-79.2363
-79.6704
-80.1375
-80.6354
-81.1507
-81.6542
-82.092
-82.3706
-82.3308
-81.6954
-80.0368
-76.8026
-70.0539
-75.7216
-76.5814
-77.1675
-77.6561
-78.0756
-78.4647
-78.8546
-79.2659
-79.7124
-80.2017
-80.7348
-81.3037
-81.887
-82.4415
-82.8889
-83.0874
-82.7727
-81.5177
-78.7696
-72.2881
-75.8956
-76.7115
-77.261
-77.7242
-78.1278
-78.51
-78.9015
-79.3236
-79.7913
-80.315
-80.8998
-81.5439
-82.234
-82.9384
-83.592
-84.0669
-84.1046
-83.2659
-80.9705
-74.6897
-76.0321
-76.8196
-77.3443
-77.7896
-78.1827
-78.562
-78.959
-79.3957
-79.8892
-80.4526
-81.0955
-81.8217
-82.626
-83.4859
-84.3475
-85.0922
-85.4619
-84.9999
-83.0902
-76.9567
-76.1341
-76.9039
-77.4128
-77.8467
-78.2339
-78.6135
-79.0179
-79.4705
-79.9901
-80.5928
-81.2918
-82.0961
-83.0069
-84.0094
-85.0577
-86.0392
-86.6933
-86.5451
-84.9439
-78.9158
-76.2061
-76.9653
-77.4647
-77.892
-78.2764
-78.658
-79.07
-79.537
-80.0796
-80.7161
-81.4627
-82.3324
-83.3314
-84.4503
-85.6488
-86.8179
-87.6937
-87.7853
-86.4137
-80.458
-76.2519
-77.0053
-77.4995
-77.9232
-78.3067
-78.6904
-79.1086
-79.5865
-80.146
-80.807
-81.5879
-82.5044
-83.5658
-84.7665
-86.0694
-87.3677
-88.3943
-88.6471
-87.4272
-81.5168
-76.2742
-77.025
-77.5169
-77.9392
-78.3224
-78.7075
-79.129
-79.6128
-80.1813
-80.8552
-81.654
-82.5947
-83.6884
-84.9311
-86.2875
-87.6514
-88.7542
-89.0878
-87.9433
-82.0547
-76.2742
-77.025
-77.5169
-77.9392
-78.3224
-78.7075
-79.129
-79.6128
-80.1813
-80.8552
-81.654
-82.5947
-83.6884
-84.9311
-86.2875
-87.6514
-88.7542
-89.0878
-87.9433
-82.0547
-76.2519
-77.0053
-77.4995
-77.9232
-78.3067
-78.6904
-79.1086
-79.5865
-80.146
-80.807
-81.5879
-82.5044
-83.5658
-84.7665
-86.0694
-87.3677
-88.3943
-88.6471
-87.4272
-81.5168
-76.2061
-76.9653
-77.4647
-77.892
-78.2764
-78.658
-79.07
-79.537
-80.0796
-80.7161
-81.4627
-82.3324
-83.3314
-84.4503
-85.6488
-86.8179
-87.6937
-87.7853
-86.4137
-80.458
-76.1341
-76.9039
-77.4128
-77.8467
-78.2339
-78.6135
-79.0179
-79.4705
-79.9901
-80.5928
-81.2918
-82.0961
-83.0069
-84.0094
-85.0577
-86.0392
-86.6933
-86.5451
-84.9439
-78.9158
-76.0321
-76.8196
-77.3443
-77.7896
-78.1827
-78.562
-78.959
-79.3957
-79.8892
-80.4526
-81.0955
-81.8217
-82.626
-83.4859
-84.3475
-85.0922
-85.4619
-84.9999
-83.0902
-76.9567
-75.8956
-76.7115
-77.261
-77.7242
-78.1278
-78.51
-78.9015
-79.3236
-79.7913
-80.315
-80.8998
-81.5439
-82.234
-82.9384
-83.592
-84.0669
-84.1046
-83.2659
-80.9705
-74.6897
-75.7216
-76.5814
-77.1675
-77.6561
-78.0756
-78.4647
-78.8546
-79.2659
-79.7124
-80.2017
-80.7348
-81.3037
-81.887
-82.4415
-82.8889
-83.0874
-82.7727
-81.5177
-78.7696
-72.2881
-75.5189
-76.4433
-77.0785
-77.5984
-78.0376
-78.4371
-78.8296
-79.2363
-79.6704
-80.1375
-80.6354
-81.1507
-81.6542
-82.092
-82.3706
-82.3308
-81.6954
-80.0368
-76.8026
-70.0539
-75.3347
-76.343
-77.0315
-77.579
-78.0344
-78.4436
-78.8419
-79.2519
-79.6872
-80.1532
-80.6463
-81.1505
-81.6324
-82.0305
-82.2398
-82.0832
-81.2641
-79.3337
-75.6794
-68.599
-75.1828
-76.2641
-76.995
-77.5616
-78.0264
-78.4419
-78.8468
-79.2659
-79.714
-80.1978
-80.7143
-81.2485
-81.7666
-82.2053
-82.4538
-82.3223
-81.4919
-79.4745
-75.5815
-68.2503
-65.5051
-66.1429
-66.6591
-67.0994
-67.4892
-67.8547
-68.2179
-68.5938
-68.9905
-69.409
-69.8405
-70.2634
-70.6366
-70.8902
-70.9106
-70.52
-69.4487
-67.3207
-63.6643
-57.7604
-65.5536
-66.1484
-66.6457
-67.0788
-67.4653
-67.8277
-68.1854
-68.5521
-68.9348
-69.3332
-69.7377
-70.1253
-70.4545
-70.6557
-70.6186
-70.1724
-69.0607
-66.9276
-63.3334
-57.5212
-65.6571
-66.2012
-66.6679
-67.0848
-67.4618
-67.818
-68.171
-68.5333
-68.9115
-69.305
-69.7046
-70.0888
-70.4179
-70.6263
-70.6095
-70.2056
-69.1675
-67.1462
-63.7153
-58.0189
-65.7951
-66.294
-66.7278
-67.1234
-67.4871
-67.8361
-68.187
-68.5516
-68.9369
-69.3435
-69.7643
-70.1807
-70.5577
-70.8358
-70.9177
-70.6491
-69.7857
-67.9696
-64.7526
-59.1418
-65.9243
-66.3894
-66.7966
-67.1736
-67.5257
-67.8696
-68.2215
-68.5936
-68.9936
-69.4241
-69.8806
-70.3484
-70.7976
-71.1748
-71.3894
-71.2919
-70.6356
-69.0457
-66.0388
-60.4854
-66.0321
-66.4742
-66.8621
-67.2252
-67.5691
-67.9107
-68.2665
-68.6493
-69.0683
-69.5279
-70.0267
-70.5537
-71.0838
-71.569
-71.9237
-72.0009
-71.5484
-70.1715
-67.3491
-61.8321
-66.1161
-66.5433
-66.9183
-67.2721
-67.6111
-67.9526
-68.3139
-68.7087
-69.1475
-69.6368
-70.1776
-70.7625
-71.3705
-71.9575
-72.4417
-72.6767
-72.4036
-71.2087
-68.5369
-63.0416
-66.1772
-66.5953
-66.9622
-67.3103
-67.6467
-67.9895
-68.3564
-68.7623
-69.2188
-69.7341
-70.3113
-70.9457
-71.6192
-72.291
-72.8814
-73.2436
-73.1129
-72.0596
-69.5011
-64.018
-66.2168
-66.6298
-66.9921
-67.337
-67.6724
-68.0166
-68.3882
-68.8026
-69.2723
-69.8067
-70.4104
-71.0805
-71.801
-72.533
-73.1981
-73.649
-73.6163
-72.6591
-70.176
-64.6992
-66.2363
-66.6469
-67.0072
-67.3508
-67.6858
-68.031
-68.4052
-68.8241
-69.3008
-69.8453
-70.4629
-71.1517
-71.8966
-72.6598
-73.3633
-73.8596
-73.8767
-72.968
-70.5226
-65.0483
-66.2363
-66.6469
-67.0072
-67.3508
-67.6858
-68.031
-68.4052
-68.8241
-69.3008
-69.8453
-70.4629
-71.1517
-71.8966
-72.6598
-73.3633
-73.8596
-73.8767
-72.968
-70.5226
-65.0483
-66.2168
-66.6298
-66.9921
-67.337
-67.6724
-68.0166
-68.3882
-68.8026
-69.2723
-69.8067
-70.4104
-71.0805
-71.801
-72.533
-73.1981
-73.649
-73.6163
-72.6591
-70.176
-64.6992
-66.1772
-66.5953
-66.9622
-67.3103
-67.6467
-67.9895
-68.3564
-68.7623
-69.2188
-69.7341
-70.3113
-70.9457
-71.6192
-72.291
-72.8814
-73.2436
-73.1129
-72.0596
-69.5011
-64.018
-66.1161
-66.5433
-66.9183
-67.2721
-67.6111
-67.9526
-68.3139
-68.7087
-69.1475
-69.6368
-70.1776
-70.7625
-71.3705
-71.9575
-72.4417
-72.6767
-72.4036
-71.2087
-68.5369
-63.0416
-66.0321
-66.4742
-66.8621
-67.2252
-67.5691
-67.9107
-68.2665
-68.6493
-69.0683
-69.5279
-70.0267
-70.5537
-71.0838
-71.569
-71.9237
-72.0009
-71.5484
-70.1715
-67.3491
-61.8321
-65.9243
-66.3894
-66.7966
-67.1736
-67.5257
-67.8696
-68.2215
-68.5936
-68.9936
-69.4241
-69.8806
-70.3484
-70.7976
-71.1748
-71.3894
-71.2919
-70.6356
-69.0457
-66.0388
-60.4854
-65.7951
-66.294
-66.7278
-67.1234
-67.4871
-67.8361
-68.187
-68.5516
-68.9369
-69.3435
-69.7643
-70.1807
-70.5577
-70.8358
-70.9177
-70.6491
-69.7857
-67.9696
-64.7526
-59.1418
-65.6571
-66.2012
-66.6679
-67.0848
-67.4618
-67.818
-68.171
-68.5333
-68.9115
-69.305
-69.7046
-70.0888
-70.4179
-70.6263
-70.6095
-70.2056
-69.1675
-67.1462
-63.7153
-58.0189
-65.5536
-66.1484
-66.6457
-67.0788
-67.4653
-67.8277
-68.1854
-68.5521
-68.9348
-69.3332
-69.7377
-70.1253
-70.4545
-70.6558
-70.6186
-70.1724
-69.0607
-66.9276
-63.3334
-57.5212
-65.5051
-66.1429
-66.6591
-67.0994
-67.4892
-67.8547
-68.2179
-68.5938
-68.9905
-69.409
-69.8405
-70.2634
-70.6366
-70.8902
-70.9106
-70.52
-69.4487
-67.3207
-63.6643
-57.7604
-55.5058
-55.8691
-56.2148
-56.541
-56.8517
-57.1565
-57.4653
-57.7851
-58.118
-58.4602
-58.7987
-59.1083
-59.3458
-59.4426
-59.2949
-58.7518
-57.6041
-55.587
-52.4085
-47.7567
-55.5174
-55.8537
-56.1892
-56.5122
-56.8216
-57.1242
-57.4281
-57.7391
-58.0586
-58.3815
-58.694
-58.97
-59.1656
-59.2126
-59.0093
-58.4098
-57.214
-55.1701
-52.0036
-47.3912
-55.5748
-55.8774
-56.1937
-56.5064
-56.8097
-57.1079
-57.4077
-57.7138
-58.0271
-58.3423
-58.6457
-58.9114
-59.0968
-59.1357
-58.9297
-58.3377
-57.1646
-55.162
-52.058
-47.4867
-55.6682
-55.938
-56.2314
-56.5294
-56.8235
-57.1165
-57.4142
-57.7209
-58.0377
-58.3597
-58.6745
-58.9581
-59.1702
-59.2479
-59.0964
-58.5776
-57.4957
-55.5944
-52.5842
-48.0366
-55.7629
-56.0067
-56.2805
-56.5648
-56.8505
-57.1397
-57.4378
-57.7493
-58.0757
-58.4136
-58.7519
-59.069
-59.3277
-59.4682
-59.3987
-58.9818
-58.0178
-56.2367
-53.3238
-48.7864
-55.8459
-56.0713
-56.3302
-56.6039
-56.8833
-57.1705
-57.4712
-57.7903
-58.1301
-58.4885
-58.8565
-59.2146
-59.5284
-59.7409
-59.7622
-59.4544
-58.6116
-56.9486
-54.1242
-49.5881
-55.913
-56.1261