/*--------------------------------*- C++ -*----------------------------------*\
  =========                 |
  \\      /  F ield         | OpenFOAM: The Open Source CFD Toolbox
   \\    /   O peration     | Website:  https://openfoam.org
    \\  /    A nd           | Version:  6
     \\/     M anipulation  |
\*---------------------------------------------------------------------------*/
FoamFile
{
    version     2.0;
    format      ascii;
    class       volScalarField;
    location    "0.785";
    object      T;
}
// * * * * * * * * * * * * * * * * * * * * * * * * * * * * * * * * * * * * * //

dimensions      [0 0 0 1 0 0 0];

internalField   nonuniform List<scalar> 
7000
(
106.389
106.388
106.384
106.379
106.374
106.367
106.361
106.356
106.351
106.349
106.389
106.388
106.384
106.379
106.374
106.367
106.361
106.356
106.351
106.349
106.389
106.388
106.384
106.379
106.374
106.367
106.361
106.356
106.351
106.349
106.389
106.388
106.384
106.379
106.374
106.367
106.361
106.356
106.351
106.349
106.389
106.388
106.384
106.379
106.374
106.367
106.361
106.356
106.351
106.349
106.389
106.388
106.384
106.379
106.374
106.367
106.361
106.356
106.351
106.349
106.389
106.388
106.384
106.379
106.374
106.367
106.361
106.356
106.351
106.349
106.389
106.388
106.384
106.379
106.374
106.367
106.361
106.356
106.351
106.349
106.389
106.388
106.384
106.379
106.374
106.367
106.361
106.356
106.351
106.349
106.389
106.388
106.384
106.379
106.374
106.367
106.361
106.356
106.351
106.349
99.1916
99.1863
99.176
99.1615
99.1438
99.1245
99.1052
99.0881
99.0753
99.0684
99.1916
99.1863
99.176
99.1615
99.1438
99.1244
99.1052
99.0881
99.0753
99.0683
99.1916
99.1863
99.176
99.1615
99.1438
99.1244
99.1052
99.0881
99.0752
99.0683
99.1916
99.1862
99.176
99.1615
99.1438
99.1244
99.1052
99.0881
99.0752
99.0683
99.1916
99.1862
99.176
99.1615
99.1438
99.1244
99.1052
99.0881
99.0752
99.0683
99.1915
99.1862
99.176
99.1615
99.1438
99.1244
99.1052
99.0881
99.0752
99.0683
99.1915
99.1862
99.176
99.1615
99.1438
99.1244
99.1052
99.0881
99.0752
99.0683
99.1916
99.1862
99.176
99.1615
99.1438
99.1244
99.1052
99.0881
99.0752
99.0683
99.1916
99.1863
99.176
99.1615
99.1438
99.1244
99.1052
99.0881
99.0753
99.0683
99.1916
99.1863
99.176
99.1615
99.1438
99.1244
99.1052
99.0881
99.0753
99.0683
92.0642
92.0551
92.0375
92.0125
91.9819
91.9481
91.9143
91.884
91.8611
91.8486
92.0642
92.0551
92.0375
92.0125
91.9819
91.9481
91.9143
91.884
91.861
91.8486
92.0641
92.0551
92.0375
92.0125
91.9819
91.9481
91.9143
91.884
91.861
91.8486
92.0641
92.0551
92.0375
92.0125
91.9819
91.9481
91.9143
91.884
91.861
91.8486
92.0641
92.055
92.0375
92.0125
91.9819
91.9481
91.9142
91.884
91.861
91.8486
92.0641
92.055
92.0375
92.0125
91.9819
91.9481
91.9142
91.884
91.861
91.8486
92.0641
92.055
92.0375
92.0125
91.9819
91.9481
91.9142
91.884
91.861
91.8486
92.0641
92.0551
92.0375
92.0125
91.9819
91.9481
91.9143
91.884
91.861
91.8486
92.0641
92.0551
92.0375
92.0125
91.9819
91.9481
91.9143
91.884
91.861
91.8486
92.0641
92.0551
92.0375
92.0125
91.9819
91.9481
91.9143
91.884
91.8611
91.8486
85.0531
85.0399
85.0143
84.9777
84.9325
84.8821
84.8309
84.7845
84.7488
84.7293
85.0531
85.0399
85.0143
84.9777
84.9325
84.8821
84.8309
84.7844
84.7488
84.7293
85.053
85.0399
85.0143
84.9777
84.9325
84.8821
84.8309
84.7844
84.7487
84.7292
85.053
85.0399
85.0143
84.9777
84.9325
84.882
84.8309
84.7844
84.7487
84.7292
85.053
85.0399
85.0143
84.9777
84.9325
84.882
84.8308
84.7844
84.7487
84.7292
85.053
85.0399
85.0143
84.9777
84.9325
84.882
84.8308
84.7844
84.7487
84.7292
85.053
85.0399
85.0143
84.9777
84.9325
84.882
84.8308
84.7844
84.7487
84.7292
85.053
85.0399
85.0143
84.9777
84.9325
84.882
84.8309
84.7844
84.7487
84.7292
85.053
85.0399
85.0143
84.9777
84.9325
84.8821
84.8309
84.7844
84.7488
84.7292
85.0531
85.0399
85.0143
84.9777
84.9325
84.8821
84.8309
84.7845
84.7488
84.7293
78.2029
78.1853
78.1509
78.1013
78.0394
77.9691
77.8964
77.8291
77.7762
77.7467
78.2028
78.1852
78.1508
78.1013
78.0393
77.9691
77.8964
77.829
77.7761
77.7467
78.2028
78.1852
78.1508
78.1013
78.0393
77.969
77.8964
77.829
77.7761
77.7467
78.2028
78.1852
78.1508
78.1013
78.0393
77.969
77.8964
77.829
77.7761
77.7467
78.2028
78.1852
78.1508
78.1012
78.0393
77.969
77.8963
77.829
77.7761
77.7467
78.2028
78.1852
78.1508
78.1012
78.0393
77.969
77.8963
77.829
77.7761
77.7467
78.2028
78.1852
78.1508
78.1012
78.0393
77.969
77.8963
77.829
77.7761
77.7467
78.2028
78.1852
78.1508
78.1013
78.0393
77.969
77.8964
77.829
77.7761
77.7467
78.2028
78.1852
78.1508
78.1013
78.0393
77.969
77.8964
77.829
77.7761
77.7467
78.2028
78.1852
78.1508
78.1013
78.0393
77.9691
77.8964
77.8291
77.7762
77.7467
71.556
71.5337
71.4899
71.426
71.3449
71.2509
71.1511
71.0555
70.9779
70.9334
71.556
71.5337
71.4898
71.426
71.3448
71.2509
71.151
71.0555
70.9779
70.9334
71.556
71.5337
71.4898
71.4259
71.3448
71.2508
71.151
71.0555
70.9778
70.9333
71.5559
71.5336
71.4898
71.4259
71.3448
71.2508
71.151
71.0555
70.9778
70.9333
71.5559
71.5336
71.4898
71.4259
71.3448
71.2508
71.151
71.0555
70.9778
70.9333
71.5559
71.5336
71.4898
71.4259
71.3448
71.2508
71.151
71.0555
70.9778
70.9333
71.5559
71.5336
71.4898
71.4259
71.3448
71.2508
71.151
71.0555
70.9778
70.9333
71.5559
71.5336
71.4898
71.4259
71.3448
71.2508
71.151
71.0555
70.9778
70.9333
71.556
71.5337
71.4898
71.4259
71.3448
71.2509
71.151
71.0555
70.9779
70.9333
71.556
71.5337
71.4898
71.426
71.3448
71.2509
71.1511
71.0555
70.9779
70.9334
65.1524
65.1253
65.0718
64.9928
64.8905
64.7688
64.6346
64.5001
64.3847
64.315
65.1523
65.1253
65.0718
64.9928
64.8905
64.7687
64.6345
64.5
64.3847
64.3149
65.1523
65.1253
65.0717
64.9928
64.8905
64.7687
64.6345
64.5
64.3847
64.3149
65.1523
65.1253
65.0717
64.9927
64.8904
64.7687
64.6345
64.5
64.3847
64.3149
65.1523
65.1252
65.0717
64.9927
64.8904
64.7687
64.6345
64.5
64.3846
64.3149
65.1523
65.1252
65.0717
64.9927
64.8904
64.7687
64.6345
64.5
64.3846
64.3149
65.1523
65.1252
65.0717
64.9927
64.8904
64.7687
64.6345
64.5
64.3847
64.3149
65.1523
65.1253
65.0717
64.9928
64.8904
64.7687
64.6345
64.5
64.3847
64.3149
65.1523
65.1253
65.0717
64.9928
64.8905
64.7687
64.6345
64.5
64.3847
64.3149
65.1523
65.1253
65.0718
64.9928
64.8905
64.7687
64.6345
64.5001
64.3847
64.315
59.0283
58.997
58.9345
58.8409
58.7168
58.5642
58.3877
58.199
58.0231
57.9059
59.0283
58.9969
58.9344
58.8408
58.7168
58.5641
58.3877
58.199
58.0231
57.9059
59.0282
58.9969
58.9344
58.8408
58.7168
58.5641
58.3876
58.199
58.0231
57.9059
59.0282
58.9969
58.9344
58.8408
58.7167
58.5641
58.3876
58.1989
58.023
57.9058
59.0282
58.9969
58.9343
58.8408
58.7167
58.5641
58.3876
58.1989
58.023
57.9058
59.0282
58.9969
58.9343
58.8408
58.7167
58.5641
58.3876
58.1989
58.023
57.9058
59.0282
58.9969
58.9344
58.8408
58.7167
58.5641
58.3876
58.1989
58.023
57.9058
59.0282
58.9969
58.9344
58.8408
58.7167
58.5641
58.3876
58.199
58.023
57.9058
59.0282
58.9969
58.9344
58.8408
58.7168
58.5641
58.3877
58.199
58.0231
57.9059
59.0283
58.997
58.9344
58.8408
58.7168
58.5641
58.3877
58.199
58.0231
57.9059
53.2159
53.1814
53.112
53.0065
52.8633
52.6803
52.4561
52.1945
51.9176
51.6979
53.2158
53.1813
53.1119
53.0065
52.8633
52.6803
52.456
52.1944
51.9175
51.6979
53.2158
53.1813
53.1119
53.0064
52.8633
52.6802
52.456
52.1944
51.9175
51.6979
53.2158
53.1813
53.1119
53.0064
52.8632
52.6802
52.456
52.1943
51.9175
51.6978
53.2158
53.1813
53.1118
53.0064
52.8632
52.6802
52.4559
52.1943
51.9174
51.6978
53.2158
53.1813
53.1118
53.0064
52.8632
52.6802
52.4559
52.1943
51.9174
51.6978
53.2158
53.1813
53.1118
53.0064
52.8632
52.6802
52.456
52.1943
51.9175
51.6978
53.2158
53.1813
53.1119
53.0064
52.8632
52.6802
52.456
52.1944
51.9175
51.6979
53.2158
53.1813
53.1119
53.0065
52.8633
52.6802
52.456
52.1944
51.9175
51.6979
53.2158
53.1814
53.1119
53.0065
52.8633
52.6803
52.4561
52.1944
51.9176
51.6979
47.7418
47.7061
47.6336
47.5223
47.3678
47.1629
46.8954
46.5479
46.1065
45.6286
47.7417
47.706
47.6336
47.5223
47.3678
47.1628
46.8953
46.5478
46.1065
45.6286
47.7417
47.706
47.6336
47.5222
47.3678
47.1628
46.8953
46.5478
46.1064
45.6285
47.7417
47.7059
47.6335
47.5222
47.3677
47.1628
46.8953
46.5477
46.1064
45.6285
47.7417
47.7059
47.6335
47.5222
47.3677
47.1628
46.8952
46.5477
46.1064
45.6285
47.7417
47.7059
47.6335
47.5222
47.3677
47.1627
46.8952
46.5477
46.1064
45.6285
47.7417
47.7059
47.6335
47.5222
47.3677
47.1628
46.8953
46.5477
46.1064
45.6285
47.7417
47.7059
47.6335
47.5222
47.3677
47.1628
46.8953
46.5478
46.1064
45.6285
47.7417
47.706
47.6336
47.5222
47.3678
47.1628
46.8953
46.5478
46.1064
45.6285
47.7417
47.706
47.6336
47.5223
47.3678
47.1629
46.8954
46.5479
46.1065
45.6286
42.6263
42.592
42.5223
42.4145
42.2632
42.0574
41.7753
41.3689
40.7206
39.4836
42.6263
42.5919
42.5222
42.4145
42.2631
42.0574
41.7752
41.3689
40.7205
39.4836
42.6262
42.5919
42.5222
42.4144
42.2631
42.0573
41.7752
41.3688
40.7205
39.4835
42.6262
42.5919
42.5222
42.4144
42.2631
42.0573
41.7751
41.3688
40.7204
39.4835
42.6262
42.5918
42.5221
42.4144
42.2631
42.0573
41.7751
41.3688
40.7204
39.4835
42.6262
42.5918
42.5221
42.4144
42.263
42.0573
41.7751
41.3688
40.7204
39.4835
42.6262
42.5919
42.5222
42.4144
42.2631
42.0573
41.7751
41.3688
40.7204
39.4835
42.6262
42.5919
42.5222
42.4144
42.2631
42.0573
41.7752
41.3688
40.7205
39.4835
42.6262
42.5919
42.5222
42.4144
42.2631
42.0574
41.7752
41.3688
40.7205
39.4835
42.6263
42.5919
42.5223
42.4145
42.2632
42.0574
41.7752
41.3689
40.7206
39.4836
37.8823
37.8525
37.7922
37.6996
37.5708
37.3973
37.1623
36.8327
36.3472
35.6137
37.8823
37.8524
37.7921
37.6996
37.5707
37.3972
37.1622
36.8326
36.3472
35.6136
37.8822
37.8524
37.7921
37.6995
37.5707
37.3972
37.1622
36.8326
36.3471
35.6136
37.8822
37.8524
37.7921
37.6995
37.5707
37.3972
37.1621
36.8325
36.3471
35.6135
37.8822
37.8524
37.7921
37.6995
37.5707
37.3971
37.1621
36.8325
36.347
35.6135
37.8822
37.8524
37.7921
37.6995
37.5707
37.3971
37.1621
36.8325
36.347
35.6135
37.8822
37.8524
37.7921
37.6995
37.5707
37.3972
37.1621
36.8325
36.3471
35.6135
37.8822
37.8524
37.7921
37.6995
37.5707
37.3972
37.1622
36.8326
36.3471
35.6135
37.8823
37.8524
37.7921
37.6996
37.5707
37.3972
37.1622
36.8326
36.3471
35.6136
37.8823
37.8525
37.7922
37.6996
37.5708
37.3973
37.1623
36.8327
36.3472
35.6137
33.5149
33.4925
33.4479
33.3816
33.2933
33.1816
33.0431
32.8723
32.6687
32.4651
33.5149
33.4924
33.4479
33.3815
33.2932
33.1815
33.043
32.8722
32.6686
32.465
33.5149
33.4924
33.4478
33.3815
33.2932
33.1815
33.0429
32.8722
32.6685
32.4649
33.5148
33.4924
33.4478
33.3815
33.2931
33.1815
33.0429
32.8722
32.6685
32.4649
33.5148
33.4924
33.4478
33.3814
33.2931
33.1814
33.0429
32.8721
32.6685
32.4649
33.5148
33.4924
33.4478
33.3814
33.2931
33.1814
33.0429
32.8721
32.6685
32.4649
33.5148
33.4924
33.4478
33.3814
33.2931
33.1815
33.0429
32.8721
32.6685
32.4649
33.5148
33.4924
33.4478
33.3815
33.2932
33.1815
33.0429
32.8722
32.6685
32.4649
33.5149
33.4924
33.4479
33.3815
33.2932
33.1815
33.043
32.8722
32.6686
32.465
33.5149
33.4925
33.4479
33.3816
33.2932
33.1816
33.043
32.8723
32.6686
32.465
29.5216
29.5088
29.4846
29.4522
29.4164
29.384
29.3651
29.3762
29.4492
29.6513
29.5216
29.5087
29.4845
29.4521
29.4163
29.3839
29.365
29.3761
29.4492
29.6513
29.5216
29.5087
29.4845
29.4521
29.4163
29.3839
29.365
29.3761
29.4491
29.6512
29.5215
29.5086
29.4844
29.4521
29.4163
29.3839
29.3649
29.376
29.4491
29.6512
29.5215
29.5086
29.4844
29.452
29.4162
29.3839
29.3649
29.376
29.4491
29.6512
29.5215
29.5086
29.4844
29.452
29.4162
29.3839
29.3649
29.376
29.4491
29.6512
29.5215
29.5086
29.4844
29.4521
29.4162
29.3839
29.3649
29.376
29.4491
29.6512
29.5215
29.5086
29.4845
29.4521
29.4163
29.3839
29.365
29.3761
29.4491
29.6512
29.5216
29.5087
29.4845
29.4521
29.4163
29.3839
29.365
29.3761
29.4491
29.6513
29.5216
29.5087
29.4845
29.4522
29.4164
29.384
29.3651
29.3762
29.4492
29.6513
25.8933
25.891
25.8893
25.8942
25.9153
25.9669
26.0697
26.2539
26.5645
27.0692
25.8932
25.8909
25.8893
25.8942
25.9153
25.9668
26.0696
26.2538
26.5644
27.0691
25.8932
25.8909
25.8892
25.8941
25.9152
25.9668
26.0696
26.2538
26.5644
27.0691
25.8932
25.8909
25.8892
25.8941
25.9152
25.9668
26.0695
26.2537
26.5644
27.069
25.8931
25.8908
25.8892
25.8941
25.9152
25.9668
26.0695
26.2537
26.5643
27.069
25.8931
25.8908
25.8892
25.8941
25.9152
25.9668
26.0695
26.2537
26.5643
27.069
25.8931
25.8909
25.8892
25.8941
25.9152
25.9668
26.0695
26.2537
26.5644
27.069
25.8932
25.8909
25.8892
25.8941
25.9152
25.9668
26.0696
26.2538
26.5644
27.0691
25.8932
25.8909
25.8892
25.8942
25.9153
25.9668
26.0696
26.2538
26.5644
27.0691
25.8932
25.891
25.8893
25.8942
25.9153
25.9669
26.0697
26.2539
26.5645
27.0692
22.6154
22.6235
22.6438
22.6848
22.7601
22.8901
23.1034
23.4392
23.948
24.6903
22.6153
22.6235
22.6438
22.6847
22.76
22.89
23.1033
23.4391
23.9479
24.6902
22.6153
22.6234
22.6437
22.6847
22.76
22.89
23.1033
23.4391
23.9478
24.6901
22.6153
22.6234
22.6437
22.6847
22.76
22.8899
23.1033
23.439
23.9478
24.6901
22.6153
22.6234
22.6437
22.6846
22.7599
22.8899
23.1033
23.439
23.9478
24.6901
22.6153
22.6234
22.6437
22.6846
22.7599
22.8899
23.1033
23.439
23.9478
24.6901
22.6153
22.6234
22.6437
22.6847
22.76
22.8899
23.1033
23.439
23.9478
24.6901
22.6153
22.6234
22.6437
22.6847
22.76
22.89
23.1033
23.4391
23.9478
24.6901
22.6153
22.6234
22.6438
22.6847
22.76
22.89
23.1033
23.4391
23.9479
24.6902
22.6154
22.6235
22.6438
22.6848
22.7601
22.8901
23.1034
23.4392
23.948
24.6903
19.67
19.6871
19.7265
19.7982
19.919
20.1139
20.418
20.8785
21.5532
22.502
19.6699
19.6871
19.7264
19.7981
19.919
20.1139
20.418
20.8784
21.5531
22.5019
19.6699
19.6871
19.7264
19.7981
19.9189
20.1138
20.4179
20.8783
21.553
22.5018
19.6698
19.687
19.7263
19.798
19.9189
20.1138
20.4179
20.8783
21.553
22.5018
19.6698
19.687
19.7263
19.798
19.9189
20.1138
20.4179
20.8783
21.553
22.5018
19.6698
19.687
19.7263
19.798
19.9189
20.1138
20.4179
20.8783
21.553
22.5018
19.6698
19.687
19.7263
19.798
19.9189
20.1138
20.4179
20.8783
21.553
22.5018
19.6699
19.6871
19.7264
19.7981
19.9189
20.1138
20.4179
20.8783
21.553
22.5018
19.6699
19.6871
19.7264
19.7981
19.919
20.1139
20.418
20.8784
21.5531
22.5019
19.6699
19.6871
19.7264
19.7982
19.919
20.1139
20.418
20.8785
21.5532
22.502
17.0369
17.0609
17.1143
17.2083
17.3613
17.601
17.9678
18.5184
19.3278
20.4785
17.0368
17.0609
17.1143
17.2082
17.3612
17.6009
17.9678
18.5184
19.3278
20.4784
17.0368
17.0608
17.1142
17.2082
17.3612
17.6009
17.9677
18.5183
19.3277
20.4783
17.0368
17.0608
17.1142
17.2082
17.3611
17.6009
17.9677
18.5183
19.3277
20.4783
17.0368
17.0608
17.1142
17.2082
17.3611
17.6009
17.9677
18.5183
19.3277
20.4783
17.0368
17.0608
17.1142
17.2082
17.3611
17.6009
17.9677
18.5183
19.3277
20.4783
17.0368
17.0608
17.1142
17.2082
17.3611
17.6009
17.9677
18.5183
19.3277
20.4783
17.0368
17.0608
17.1142
17.2082
17.3612
17.6009
17.9677
18.5183
19.3277
20.4784
17.0368
17.0608
17.1143
17.2082
17.3612
17.6009
17.9678
18.5184
19.3278
20.4784
17.0369
17.0609
17.1143
17.2083
17.3613
17.601
17.9678
18.5184
19.3278
20.4785
14.6955
14.7236
14.785
14.8908
15.059
15.3177
15.7089
16.2979
17.1881
18.5395
14.6955
14.7236
14.785
14.8907
15.059
15.3176
15.7089
16.2978
17.188
18.5394
14.6954
14.7235
14.7849
14.8907
15.059
15.3176
15.7088
16.2978
17.188
18.5394
14.6954
14.7235
14.7849
14.8907
15.0589
15.3176
15.7088
16.2977
17.188
18.5394
14.6954
14.7235
14.7849
14.8907
15.0589
15.3176
15.7088
16.2977
17.1879
18.5394
14.6954
14.7235
14.7849
14.8907
15.0589
15.3176
15.7088
16.2977
17.1879
18.5394
14.6954
14.7235
14.7849
14.8907
15.0589
15.3176
15.7088
16.2978
17.188
18.5394
14.6954
14.7235
14.7849
14.8907
15.059
15.3176
15.7088
16.2978
17.188
18.5394
14.6955
14.7236
14.785
14.8907
15.059
15.3176
15.7089
16.2978
17.188
18.5395
14.6955
14.7236
14.785
14.8908
15.0591
15.3177
15.7089
16.2979
17.1881
18.5395
12.6258
12.6551
12.7183
12.825
12.9908
13.2395
13.607
14.1525
14.9915
16.4192
12.6258
12.6551
12.7182
12.8249
12.9908
13.2394
13.607
14.1525
14.9915
16.4192
12.6257
12.655
12.7182
12.8249
12.9907
13.2394
13.6069
14.1524
14.9914
16.4191
12.6257
12.655
12.7182
12.8249
12.9907
13.2394
13.6069
14.1524
14.9914
16.4191
12.6257
12.655
12.7182
12.8249
12.9907
13.2394
13.6069
14.1524
14.9914
16.4191
12.6257
12.655
12.7182
12.8249
12.9907
13.2394
13.6069
14.1524
14.9914
16.4191
12.6257
12.655
12.7182
12.8249
12.9907
13.2394
13.6069
14.1524
14.9914
16.4191
12.6257
12.655
12.7182
12.8249
12.9907
13.2394
13.6069
14.1524
14.9914
16.4191
12.6258
12.655
12.7182
12.8249
12.9908
13.2395
13.607
14.1525
14.9915
16.4192
12.6258
12.6551
12.7183
12.825
12.9908
13.2395
13.607
14.1525
14.9915
16.4192
36.4293
35.6838
36.5666
38.8602
42.5538
47.772
54.7785
64.0413
76.4084
93.5795
36.4292
35.6837
36.5665
38.8601
42.5537
47.7719
54.7784
64.0411
76.4082
93.5794
36.4292
35.6837
36.5664
38.86
42.5536
47.7718
54.7783
64.041
76.4081
93.5793
36.4291
35.6836
36.5664
38.86
42.5535
47.7717
54.7783
64.041
76.4081
93.5792
36.4291
35.6836
36.5663
38.8599
42.5535
47.7717
54.7782
64.0409
76.408
93.5792
36.4291
35.6836
36.5663
38.8599
42.5535
47.7717
54.7782
64.0409
76.408
93.5792
36.4291
35.6836
36.5663
38.8599
42.5535
47.7717
54.7782
64.0409
76.408
93.5792
36.4292
35.6836
36.5664
38.86
42.5536
47.7718
54.7783
64.041
76.4081
93.5792
36.4292
35.6837
36.5664
38.86
42.5536
47.7718
54.7784
64.0411
76.4082
93.5793
36.4293
35.6837
36.5665
38.8601
42.5537
47.7719
54.7784
64.0411
76.4083
93.5794
34.6408
34.6287
35.7774
38.1281
41.7417
46.7392
53.3189
61.7717
72.4738
85.7328
34.6407
34.6286
35.7773
38.128
41.7416
46.7391
53.3188
61.7716
72.4736
85.7326
34.6407
34.6285
35.7772
38.1279
41.7415
46.739
53.3187
61.7715
72.4735
85.7325
34.6406
34.6285
35.7771
38.1279
41.7415
46.7389
53.3186
61.7714
72.4735
85.7325
34.6406
34.6285
35.7771
38.1278
41.7414
46.7389
53.3186
61.7714
72.4734
85.7324
34.6406
34.6285
35.7771
38.1278
41.7414
46.7389
53.3186
61.7714
72.4734
85.7324
34.6406
34.6285
35.7771
38.1279
41.7415
46.7389
53.3186
61.7714
72.4735
85.7325
34.6406
34.6285
35.7772
38.1279
41.7415
46.7389
53.3187
61.7714
72.4735
85.7325
34.6407
34.6286
35.7772
38.128
41.7416
46.739
53.3187
61.7715
72.4736
85.7326
34.6408
34.6286
35.7773
38.128
41.7417
46.7391
53.3188
61.7716
72.4737
85.7327
32.4198
32.9882
34.4077
36.8
40.2566
44.8774
50.7802
58.085
66.8492
76.8829
32.4198
32.9882
34.4076
36.7999
40.2565
44.8773
50.7801
58.0848
66.849
76.8828
32.4197
32.9881
34.4076
36.7998
40.2564
44.8772
50.78
58.0848
66.8489
76.8827
32.4197
32.988
34.4075
36.7997
40.2564
44.8772
50.7799
58.0847
66.8489
76.8826
32.4196
32.988
34.4075
36.7997
40.2563
44.8771
50.7799
58.0847
66.8488
76.8826
32.4196
32.988
34.4075
36.7997
40.2563
44.8771
50.7799
58.0846
66.8488
76.8826
32.4196
32.988
34.4075
36.7997
40.2564
44.8772
50.7799
58.0847
66.8488
76.8826
32.4197
32.9881
34.4076
36.7998
40.2564
44.8772
50.7799
58.0847
66.8489
76.8826
32.4197
32.9881
34.4076
36.7998
40.2565
44.8773
50.78
58.0848
66.849
76.8827
32.4198
32.9882
34.4077
36.7999
40.2566
44.8774
50.7801
58.0849
66.8491
76.8829
30.1188
31.0733
32.6858
35.0715
38.3144
42.4825
47.6281
53.7651
60.8158
68.5115
30.1188
31.0732
32.6857
35.0714
38.3142
42.4824
47.628
53.765
60.8156
68.5114
30.1187
31.0731
32.6856
35.0713
38.3142
42.4823
47.6279
53.7649
60.8156
68.5113
30.1187
31.0731
32.6856
35.0713
38.3141
42.4823
47.6278
53.7648
60.8155
68.5112
30.1186
31.0731
32.6856
35.0713
38.3141
42.4823
47.6278
53.7648
60.8155
68.5112
30.1186
31.0731
32.6855
35.0713
38.3141
42.4822
47.6278
53.7648
60.8155
68.5112
30.1187
31.0731
32.6856
35.0713
38.3141
42.4823
47.6278
53.7648
60.8155
68.5112
30.1187
31.0731
32.6856
35.0713
38.3142
42.4823
47.6279
53.7649
60.8155
68.5113
30.1187
31.0732
32.6857
35.0714
38.3142
42.4824
47.628
53.765
60.8156
68.5114
30.1188
31.0733
32.6858
35.0715
38.3143
42.4825
47.6281
53.7651
60.8158
68.5115
27.8655
29.0756
30.8078
33.1455
36.1482
39.8524
44.2656
49.3492
54.9886
60.9558
27.8655
29.0755
30.8077
33.1454
36.1481
39.8522
44.2655
49.3491
54.9885
60.9557
27.8654
29.0754
30.8077
33.1454
36.148
39.8522
44.2654
49.349
54.9884
60.9556
27.8654
29.0754
30.8076
33.1453
36.1479
39.8521
44.2653
49.349
54.9883
60.9555
27.8653
29.0754
30.8076
33.1453
36.1479
39.8521
44.2653
49.3489
54.9883
60.9555
27.8653
29.0754
30.8076
33.1453
36.1479
39.8521
44.2653
49.3489
54.9883
60.9555
27.8654
29.0754
30.8076
33.1453
36.1479
39.8521
44.2653
49.349
54.9883
60.9555
27.8654
29.0754
30.8077
33.1454
36.148
39.8521
44.2654
49.349
54.9884
60.9556
27.8655
29.0755
30.8077
33.1454
36.148
39.8522
44.2655
49.3491
54.9885
60.9557
27.8655
29.0756
30.8078
33.1455
36.1481
39.8523
44.2656
49.3492
54.9886
60.9558
25.7302
27.1268
28.9365
31.208
33.9746
37.2469
41.0042
45.1842
49.6724
54.2979
25.7301
27.1267
28.9364
31.2079
33.9745
37.2468
41.0041
45.184
49.6723
54.2978
25.73
27.1266
28.9364
31.2079
33.9745
37.2467
41.004
45.184
49.6722
54.2977
25.73
27.1266
28.9363
31.2078
33.9744
37.2467
41.0039
45.1839
49.6721
54.2976
25.73
27.1266
28.9363
31.2078
33.9744
37.2466
41.0039
45.1839
49.6721
54.2976
25.73
27.1265
28.9363
31.2078
33.9744
37.2466
41.0039
45.1839
49.6721
54.2976
25.73
27.1266
28.9363
31.2078
33.9744
37.2467
41.0039
45.1839
49.6721
54.2976
25.73
27.1266
28.9363
31.2079
33.9745
37.2467
41.004
45.184
49.6722
54.2977
25.7301
27.1267
28.9364
31.2079
33.9745
37.2468
41.0041
45.184
49.6723
54.2978
25.7302
27.1268
28.9365
31.208
33.9746
37.2469
41.0042
45.1842
49.6724
54.2979
23.7631
25.3292
27.2086
29.4215
31.9815
34.881
38.0807
41.5048
45.0429
48.5658
23.7631
25.3291
27.2085
29.4214
31.9814
34.8808
38.0806
41.5047
45.0427
48.5657
23.763
25.3291
27.2084
29.4213
31.9813
34.8808
38.0805
41.5046
45.0426
48.5656
23.763
25.329
27.2084
29.4213
31.9813
34.8807
38.0804
41.5046
45.0426
48.5655
23.763
25.329
27.2084
29.4212
31.9813
34.8807
38.0804
41.5046
45.0426
48.5655
23.763
25.329
27.2084
29.4212
31.9813
34.8807
38.0804
41.5046
45.0426
48.5655
23.763
25.329
27.2084
29.4213
31.9813
34.8807
38.0804
41.5046
45.0426
48.5655
23.763
25.3291
27.2084
29.4213
31.9813
34.8808
38.0805
41.5046
45.0427
48.5656
23.7631
25.3291
27.2085
29.4214
31.9814
34.8809
38.0806
41.5047
45.0427
48.5657
23.7631
25.3292
27.2086
29.4215
31.9815
34.881
38.0807
41.5048
45.0429
48.5658
22.0065
23.7742
25.7443
27.9258
30.3266
32.9298
35.6824
38.4925
41.2366
43.7918
22.0064
23.7741
25.7442
27.9257
30.3265
32.9297
35.6823
38.4924
41.2365
43.7916
22.0064
23.774
25.7441
27.9256
30.3265
32.9296
35.6822
38.4923
41.2364
43.7916
22.0064
23.774
25.7441
27.9256
30.3264
32.9296
35.6822
38.4923
41.2363
43.7915
22.0063
23.774
25.7441
27.9256
30.3264
32.9295
35.6822
38.4922
41.2363
43.7915
22.0063
23.774
25.7441
27.9256
30.3264
32.9295
35.6822
38.4922
41.2363
43.7915
22.0064
23.774
25.7441
27.9256
30.3264
32.9296
35.6822
38.4923
41.2363
43.7915
22.0064
23.7741
25.7441
27.9257
30.3265
32.9296
35.6822
38.4923
41.2364
43.7916
22.0064
23.7741
25.7442
27.9257
30.3266
32.9297
35.6823
38.4924
41.2365
43.7917
22.0065
23.7742
25.7443
27.9258
30.3267
32.9298
35.6824
38.4925
41.2366
43.7918
20.5133
22.5629
24.6575
26.8414
29.1394
31.5357
33.9663
36.3147
38.4117
40.0608
20.5132
22.5628
24.6574
26.8413
29.1393
31.5356
33.9662
36.3146
38.4116
40.0607
20.5132
22.5628
24.6574
26.8412
29.1392
31.5355
33.9661
36.3145
38.4115
40.0606
20.5131
22.5627
24.6573
26.8412
29.1392
31.5355
33.9661
36.3144
38.4115
40.0605
20.5131
22.5627
24.6573
26.8412
29.1391
31.5354
33.9661
36.3144
38.4114
40.0605
20.5131
22.5627
24.6573
26.8412
29.1391
31.5354
33.9661
36.3144
38.4115
40.0605
20.5131
22.5627
24.6573
26.8412
29.1392
31.5355
33.9661
36.3145
38.4115
40.0606
20.5132
22.5628
24.6574
26.8412
29.1392
31.5355
33.9662
36.3145
38.4115
40.0606
20.5132
22.5628
24.6575
26.8413
29.1393
31.5356
33.9662
36.3146
38.4116
40.0607
20.5133
22.5629
24.6575
26.8414
29.1394
31.5357
33.9663
36.3147
38.4117
40.0608
19.4333
21.8433
24.0635
26.2672
28.5177
30.8071
33.0643
35.1467
36.8139
37.6536
19.4332
21.8432
24.0634
26.2672
28.5176
30.807
33.0642
35.1466
36.8138
37.6535
19.4332
21.8432
24.0634
26.2671
28.5176
30.807
33.0641
35.1466
36.8137
37.6535
19.4332
21.8431
24.0633
26.2671
28.5175
30.8069
33.0641
35.1465
36.8137
37.6534
19.4331
21.8431
24.0633
26.267
28.5175
30.8069
33.0641
35.1465
36.8137
37.6534
19.4331
21.8431
24.0633
26.267
28.5175
30.8069
33.0641
35.1465
36.8137
37.6534
19.4332
21.8431
24.0634
26.2671
28.5176
30.807
33.0641
35.1465
36.8137
37.6534
19.4332
21.8432
24.0634
26.2671
28.5176
30.807
33.0641
35.1466
36.8137
37.6535
19.4332
21.8432
24.0635
26.2672
28.5177
30.8071
33.0642
35.1467
36.8138
37.6536
19.4333
21.8433
24.0635
26.2673
28.5178
30.8072
33.0643
35.1468
36.8139
37.6537
119.496
131.844
139.429
144.749
148.694
151.66
153.862
155.426
156.43
156.922
119.496
131.844
139.428
144.749
148.694
151.66
153.861
155.425
156.43
156.922
119.496
131.843
139.428
144.749
148.694
151.66
153.861
155.425
156.43
156.922
119.496
131.843
139.428
144.749
148.694
151.66
153.861
155.425
156.43
156.922
119.496
131.843
139.428
144.749
148.693
151.66
153.861
155.425
156.43
156.922
119.496
131.843
139.428
144.749
148.693
151.66
153.861
155.425
156.43
156.922
119.496
131.843
139.428
144.749
148.694
151.66
153.861
155.425
156.43
156.922
119.496
131.843
139.428
144.749
148.694
151.66
153.861
155.425
156.43
156.922
119.496
131.843
139.428
144.749
148.694
151.66
153.861
155.425
156.43
156.922
119.496
131.844
139.429
144.749
148.694
151.66
153.862
155.426
156.43
156.922
100.892
111.933
119.751
125.435
129.661
132.823
135.157
136.807
137.864
138.38
100.892
111.933
119.751
125.435
129.66
132.823
135.156
136.807
137.864
138.38
100.892
111.933
119.751
125.435
129.66
132.823
135.156
136.807
137.864
138.38
100.892
111.933
119.751
125.434
129.66
132.822
135.156
136.807
137.864
138.38
100.892
111.933
119.751
125.434
129.66
132.822
135.156
136.807
137.864
138.38
100.892
111.933
119.751
125.434
129.66
132.822
135.156
136.807
137.864
138.38
100.892
111.933
119.751
125.434
129.66
132.822
135.156
136.807
137.864
138.38
100.892
111.933
119.751
125.435
129.66
132.823
135.156
136.807
137.864
138.38
100.892
111.933
119.751
125.435
129.66
132.823
135.156
136.807
137.864
138.38
100.892
111.933
119.751
125.435
129.661
132.823
135.157
136.807
137.864
138.38
87.3299
96.1899
103.171
108.557
112.685
115.82
118.151
119.805
120.867
121.385
87.3298
96.1898
103.171
108.557
112.684
115.82
118.151
119.805
120.866
121.385
87.3297
96.1897
103.171
108.557
112.684
115.82
118.151
119.805
120.866
121.385
87.3296
96.1896
103.171
108.557
112.684
115.819
118.15
119.805
120.866
121.385
87.3296
96.1896
103.171
108.557
112.684
115.819
118.15
119.805
120.866
121.385
87.3295
96.1896
103.171
108.557
112.684
115.819
118.15
119.805
120.866
121.385
87.3296
96.1896
103.171
108.557
112.684
115.819
118.15
119.805
120.866
121.385
87.3296
96.1896
103.171
108.557
112.684
115.82
118.151
119.805
120.866
121.385
87.3297
96.1897
103.171
108.557
112.684
115.82
118.151
119.805
120.866
121.385
87.3299
96.1899
103.171
108.557
112.685
115.82
118.151
119.805
120.867
121.386
76.2732
83.2673
89.1499
93.9181
97.6967
100.63
102.841
104.424
105.444
105.945
76.2731
83.2671
89.1498
93.9179
97.6966
100.63
102.841
104.423
105.444
105.945
76.273
83.267
89.1497
93.9178
97.6965
100.63
102.841
104.423
105.444
105.945
76.2729
83.267
89.1496
93.9177
97.6964
100.63
102.84
104.423
105.444
105.945
76.2729
83.2669
89.1496
93.9177
97.6964
100.629
102.84
104.423
105.444
105.945
76.2729
83.2669
89.1496
93.9177
97.6964
100.629
102.84
104.423
105.444
105.945
76.2729
83.267
89.1496
93.9177
97.6964
100.63
102.84
104.423
105.444
105.945
76.273
83.267
89.1497
93.9178
97.6965
100.63
102.841
104.423
105.444
105.945
76.2731
83.2671
89.1498
93.9179
97.6966
100.63
102.841
104.424
105.444
105.945
76.2732
83.2673
89.1499
93.9181
97.6967
100.63
102.841
104.424
105.445
105.945
66.8931
72.3886
77.1964
81.24
84.5416
87.1624
89.17
90.6233
91.5673
92.032
66.8929
72.3884
77.1962
81.2399
84.5414
87.1622
89.1698
90.6231
91.5672
92.0319
66.8928
72.3883
77.1961
81.2398
84.5413
87.1621
89.1697
90.623
91.5671
92.0319
66.8928
72.3883
77.1961
81.2397
84.5413
87.1621
89.1697
90.623
91.5671
92.0318
66.8927
72.3882
77.196
81.2397
84.5412
87.162
89.1696
90.6229
91.567
92.0318
66.8927
72.3882
77.196
81.2397
84.5412
87.162
89.1696
90.6229
91.567
92.0318
66.8928
72.3883
77.1961
81.2397
84.5413
87.1621
89.1697
90.623
91.5671
92.0318
66.8928
72.3883
77.1961
81.2398
84.5414
87.1622
89.1697
90.6231
91.5672
92.0319
66.8929
72.3884
77.1962
81.2399
84.5415
87.1623
89.1699
90.6232
91.5673
92.032
66.8931
72.3886
77.1964
81.24
84.5416
87.1624
89.17
90.6233
91.5674
92.0322
58.8482
63.1139
66.9434
70.2581
73.0364
75.2902
77.0458
78.3325
79.1752
79.592
58.8481
63.1138
66.9433
70.258
73.0363
75.2901
77.0457
78.3323
79.1751
79.5919
58.848
63.1137
66.9432
70.2579
73.0362
75.29
77.0456
78.3322
79.175
79.5918
58.8479
63.1136
66.9431
70.2578
73.0361
75.2899
77.0455
78.3322
79.1749
79.5918
58.8479
63.1136
66.9431
70.2578
73.0361
75.2899
77.0455
78.3321
79.1749
79.5918
58.8479
63.1136
66.9431
70.2578
73.0361
75.2899
77.0455
78.3321
79.1749
79.5918
58.8479
63.1136
66.9431
70.2578
73.0361
75.2899
77.0456
78.3322
79.175
79.5918
58.848
63.1137
66.9432
70.2579
73.0362
75.29
77.0456
78.3323
79.1751
79.5919
58.8481
63.1138
66.9433
70.258
73.0363
75.2901
77.0457
78.3324
79.1752
79.592
58.8482
63.1139
66.9434
70.2581
73.0365
75.2902
77.0459
78.3325
79.1753
79.5922
51.9621
55.1702
58.1183
60.7418
62.9991
64.8713
66.3557
67.458
68.1865
68.5487
51.962
55.1701
58.1181
60.7417
62.999
64.8712
66.3556
67.4578
68.1864
68.5486
51.9619
55.17
58.118
60.7416
62.9989
64.8711
66.3555
67.4577
68.1863
68.5485
51.9618
55.1699
58.118
60.7415
62.9988
64.8711
66.3554
67.4577
68.1862
68.5485
51.9618
55.1699
58.1179
60.7415
62.9988
64.871
66.3554
67.4577
68.1862
68.5485
51.9618
55.1699
58.1179
60.7415
62.9988
64.871
66.3554
67.4577
68.1862
68.5485
51.9618
55.1699
58.118
60.7415
62.9988
64.8711
66.3555
67.4577
68.1863
68.5485
51.9619
55.17
58.1181
60.7416
62.9989
64.8712
66.3555
67.4578
68.1863
68.5486
51.962
55.1701
58.1182
60.7417
62.999
64.8713
66.3557
67.4579
68.1864
68.5487
51.9621
55.1702
58.1183
60.7418
62.9991
64.8714
66.3558
67.458
68.1866
68.5489
46.1154
48.3553
50.5019
52.49
54.2576
55.7619
56.9781
57.8943
58.5058
58.8116
46.1153
48.3552
50.5018
52.4899
54.2575
55.7617
56.978
57.8941