/*--------------------------------*- C++ -*----------------------------------*\
  =========                 |
  \\      /  F ield         | OpenFOAM: The Open Source CFD Toolbox
   \\    /   O peration     | Website:  https://openfoam.org
    \\  /    A nd           | Version:  6
     \\/     M anipulation  |
\*---------------------------------------------------------------------------*/
FoamFile
{
    version     2.0;
    format      ascii;
    class       volScalarField;
    location    "300";
    object      p;
}
// * * * * * * * * * * * * * * * * * * * * * * * * * * * * * * * * * * * * * //

dimensions      [0 2 -2 0 0 0 0];

internalField   nonuniform List<scalar> 
7000
(
0.0374568
0.0352046
0.0346715
0.0344272
0.0342973
0.0342931
0.0344149
0.0346515
0.0351767
0.0374179
0.0352022
0.0329487
0.0324172
0.0321738
0.0320448
0.0320418
0.0321649
0.0324025
0.0329274
0.0351707
0.0346699
0.0324179
0.0318869
0.0316443
0.0315164
0.0315148
0.0316393
0.0318783
0.0324044
0.0346475
0.0344275
0.0321763
0.031646
0.0314047
0.0312784
0.0312785
0.031405
0.0316458
0.0321735
0.0344181
0.0343005
0.0320498
0.0315204
0.0312804
0.0311558
0.0311581
0.0312869
0.0315299
0.0320593
0.0343061
0.0343002
0.0320502
0.0315216
0.0312829
0.0311601
0.0311645
0.0312955
0.0315408
0.0320722
0.0343211
0.0344268
0.0321774
0.0316494
0.0314119
0.0312906
0.031297
0.0314302
0.0316776
0.0322109
0.034462
0.0346687
0.0324196
0.0318922
0.0316555
0.0315355
0.0315435
0.0316786
0.0319278
0.0324628
0.0347161
0.0351992
0.0329491
0.0324223
0.0321863
0.0320674
0.0320765
0.032213
0.0324637
0.033
0.0352559
0.0374456
0.0351972
0.0346696
0.0344341
0.0343162
0.0343266
0.0344645
0.0347171
0.0352558
0.0375108
0.0345034
0.0330818
0.0330917
0.0328509
0.0327192
0.0327155
0.0328399
0.0330735
0.0330536
0.0344695
0.0330738
0.0316514
0.0316647
0.0314237
0.0312925
0.0312893
0.0314145
0.0316493
0.0316266
0.0330426
0.0330861
0.0316672
0.0316803
0.0314402
0.0313101
0.0313084
0.0314353
0.0316716
0.0316513
0.0330647
0.0328464
0.0314272
0.0314411
0.0312025
0.0310739
0.0310741
0.031203
0.0314412
0.0314226
0.0328375
0.0327167
0.0312976
0.0313124
0.031075
0.0309482
0.0309505
0.0310817
0.0313222
0.0313058
0.032722
0.0327162
0.0312974
0.031313
0.031077
0.0309519
0.0309562
0.0310898
0.0313328
0.0313186
0.0327362
0.0328451
0.0314265
0.031443
0.031208
0.0310845
0.0310908
0.0312267
0.031472
0.0314598
0.0328788
0.0330843
0.0316664
0.0316835
0.0314493
0.0313271
0.0313352
0.031473
0.0317206
0.0317103
0.0331303
0.0330725
0.0316515
0.0316701
0.0314366
0.0313155
0.0313249
0.0314643
0.0317136
0.0317039
0.0331282
0.0344878
0.033067
0.0330825
0.03285
0.0327295
0.0327398
0.0328801
0.0331302
0.0331247
0.0345488
0.0320255
0.0311985
0.0315324
0.0313075
0.0312318
0.0312282
0.0312967
0.0315151
0.0311691
0.0319929
0.0311858
0.0303614
0.0307009
0.0304745
0.0303993
0.030396
0.0304648
0.0306854
0.0303342
0.0311537
0.031523
0.0307042
0.0310425
0.0308176
0.0307436
0.0307421
0.030813
0.0310353
0.0306881
0.0315026
0.0312977
0.0304773
0.0308169
0.0305934
0.0305212
0.0305218
0.0305951
0.0308198
0.0304746
0.0312916
0.0312228
0.0304027
0.030743
0.030521
0.0304505
0.0304534
0.0305296
0.0307572
0.0304149
0.0312328
0.0312218
0.0304017
0.030743
0.0305222
0.0304536
0.0304589
0.0305378
0.0307685
0.030429
0.0312483
0.0312949
0.0304745
0.0308167
0.0305971
0.0305301
0.0305376
0.0306191
0.0308526
0.0305156
0.0313367
0.0315194
0.0307005
0.0310431
0.0308243
0.0307587
0.0307681
0.0308519
0.0310881
0.0307539
0.0315751
0.031185
0.0303606
0.0307057
0.0304874
0.0304232
0.0304341
0.0305196
0.0307583
0.0304241
0.0312522
0.0320065
0.0311784
0.0315182
0.0313017
0.0312377
0.0312493
0.0313362
0.0315747
0.0312473
0.0320784
0.0307412
0.0301415
0.0304966
0.0302577
0.0302505
0.030246
0.0302439
0.0304749
0.0301021
0.0306974
0.0301231
0.0295285
0.0298898
0.0296482
0.029642
0.0296376
0.0296348
0.029869
0.0294904
0.0300772
0.030482
0.0298937
0.030253
0.0300135
0.0300088
0.0300068
0.0300069
0.0302435
0.029871
0.0304522
0.0302404
0.0296494
0.0300105
0.0297726
0.0297698
0.0297705
0.0297741
0.0300143
0.0296448
0.0302298
0.0302329
0.0296425
0.0300044
0.029768
0.0297672
0.0297709
0.0297783
0.0300229
0.0296579
0.0302434
0.0302312
0.0296404
0.0300034
0.0297684
0.0297697
0.0297763
0.0297874
0.0300364
0.0296758
0.0302631
0.0302352
0.0296429
0.030007
0.0297732
0.0297764
0.0297856
0.0298
0.030053
0.0296961
0.0302866
0.0304749
0.0298848
0.0302489
0.0300159
0.0300208
0.0300323
0.0300496
0.0303062
0.0299537
0.030544
0.0301207
0.0295243
0.0298921
0.0296594
0.0296659
0.0296794
0.0296989
0.0299593
0.0296068
0.0302051
0.0307159
0.0301123
0.0304738
0.0302437
0.0302495
0.0302638
0.0302858
0.0305456
0.030201
0.030806
0.0298623
0.0293703
0.0296696
0.0294141
0.0294515
0.0294451
0.0293932
0.0296357
0.0293071
0.0297884
0.0293449
0.0288597
0.0291649
0.0289056
0.0289446
0.0289382
0.0288847
0.0291316
0.0287974
0.0292655
0.0296484
0.0291691
0.0294716
0.0292151
0.0292559
0.0292529
0.0292041
0.0294547
0.0291299
0.029593
0.0293871
0.028904
0.0292089
0.028954
0.0289973
0.0289979
0.0289541
0.029211
0.0288916
0.0293604
0.029423
0.0289409
0.0292466
0.0289933
0.0290391
0.0290437
0.0290055
0.0292693
0.0289579
0.0294276
0.0294204
0.0289374
0.0292443
0.0289926
0.0290408
0.0290494
0.0290165
0.0292872
0.0289831
0.0294562
0.0293784
0.0288926
0.0292008
0.0289504
0.0290007
0.0290126
0.0289843
0.0292609
0.0289629
0.0294415
0.0296354
0.0291523
0.0294602
0.0292107
0.0292629
0.0292776
0.0292532
0.0295348
0.0292433
0.0297227
0.0293383
0.0288487
0.0291614
0.0289119
0.0289663
0.0289838
0.0289625
0.0292494
0.0289589
0.0294485
0.0298273
0.0293279
0.0296345
0.0293882
0.0294411
0.0294597
0.0294423
0.029729
0.0294484
0.0299483
0.0289108
0.0285281
0.0288004
0.028552
0.0286151
0.0286057
0.0285196
0.0287451
0.0284226
0.0287766
0.028494
0.02812
0.0283977
0.0281447
0.0282097
0.0282004
0.0281122
0.0283429
0.0280154
0.0283497
0.0287704
0.0284018
0.0286766
0.0284271
0.0284945
0.02849
0.0284094
0.0286469
0.0283336
0.0286644
0.028512
0.0281387
0.0284164
0.0281686
0.0282391
0.0282399
0.028167
0.0284155
0.0281127
0.0284525
0.0285721
0.0281999
0.0284784
0.0282324
0.0283061
0.0283125
0.0282481
0.0285081
0.0282195
0.0285635
0.0285684
0.0281947
0.0284746
0.0282302
0.028307
0.0283188
0.0282623
0.0285335
0.0282579
0.0286091
0.028499
0.0281212
0.0284028
0.0281596
0.0282388
0.0282549
0.028205
0.0284853
0.0282199
0.028581
0.02875
0.0283749
0.0286557
0.0284138
0.0284949
0.0285147
0.02847
0.0287572
0.0285021
0.0288669
0.0284809
0.0280996
0.0283862
0.0281441
0.0282284
0.0282518
0.0282113
0.0285065
0.0282543
0.0286325
0.0288641
0.0284693
0.0287499
0.0285113
0.0285935
0.0286187
0.0285842
0.0288808
0.0286411
0.0290395
0.0279089
0.0276299
0.0278893
0.0276638
0.0277435
0.0277306
0.0276165
0.0278024
0.0274565
0.0276637
0.0275845
0.0273162
0.0275804
0.0273497
0.0274317
0.0274189
0.0273027
0.027495
0.0271448
0.0273191
0.0278472
0.0275836
0.027845
0.0276188
0.027704
0.0276983
0.0275936
0.0277984
0.0274706
0.027646
0.027606
0.027337
0.0276019
0.0273774
0.0274668
0.0274686
0.027376
0.0275993
0.0272928
0.0274873
0.0276803
0.0274123
0.0276779
0.0274555
0.0275488
0.0275585
0.0274786
0.0277212
0.0274411
0.0276504
0.0276753
0.027405
0.0276722
0.0274515
0.0275485
0.0275652
0.0274968
0.0277571
0.0275004
0.0277276
0.027588
0.0273122
0.0275814
0.0273616
0.0274612
0.0274833
0.0274237
0.0276981
0.0274587
0.0277048
0.0278178
0.027544
0.0278122
0.0275937
0.0276952
0.0277215
0.0276687
0.0279529
0.0277284
0.0279859
0.0275634
0.0272834
0.0275579
0.0273392
0.0274446
0.0274758
0.0274286
0.0277231
0.0275053
0.0277851
0.0278475
0.0275505
0.0278194
0.027604
0.0277069
0.0277409
0.0277025
0.0280025
0.0278052
0.0281234
0.0269578
0.0267591
0.0269981
0.0267986
0.0268896
0.026874
0.0267358
0.0268704
0.0264826
0.0265122
0.0266988
0.0265123
0.026755
0.0265501
0.0266433
0.026628
0.0264881
0.0266302
0.026237
0.0262086
0.0269384
0.0267557
0.0269959
0.0267963
0.0268938
0.0268885
0.0267662
0.0269308
0.0265766
0.0265608
0.0267144
0.0265257
0.0267699
0.026572
0.0266748
0.0266799
0.0265758
0.0267724
0.0264627
0.0264938
0.0267948
0.0266062
0.0268511
0.0266554
0.0267628
0.0267781
0.0266926
0.0269211
0.026663
0.0267409
0.026788
0.0265961
0.0268425
0.0266483
0.0267594
0.0267834
0.0267134
0.0269699
0.0267559
0.0268783
0.0266904
0.0264911
0.0267398
0.0265457
0.0266592
0.026689
0.02663
0.0269069
0.0267237
0.0268828
0.0268984
0.0266999
0.026947
0.0267539
0.0268686
0.0269027
0.0268516
0.0271412
0.0269807
0.0271626
0.0266675
0.0264633
0.0267173
0.0265238
0.0266432
0.0266832
0.026639
0.0269425
0.0267935
0.0270133
0.0268795
0.0266542
0.0269029
0.0267121
0.0268288
0.0268732
0.0268417
0.0271577
0.0270419
0.0273334
0.0260631
0.0259268
0.0261409
0.0259695
0.0260695
0.0260551
0.0258978
0.0259699
0.0255069
0.025254
0.0258467
0.0257234
0.02594
0.0257632
0.0258651
0.0258514
0.0256935
0.0257746
0.0253054
0.0249397
0.0260564
0.0259356
0.0261501
0.0259794
0.0260871
0.026087
0.0259545
0.0260746
0.0256783
0.0253751
0.0258472
0.0257196
0.0259385
0.0257693
0.0258835
0.0258972
0.025791
0.0259632
0.0256559
0.0254793
0.0259264
0.0257976
0.0260169
0.0258497
0.0259686
0.0259947
0.0259135
0.0261355
0.0259255
0.0258752
0.0259175
0.0257835
0.0260042
0.0258375
0.0259596
0.0259946
0.0259319
0.0261946
0.0260653
0.0261203
0.0258158
0.0256725
0.0258952
0.0257272
0.02585
0.0258897
0.0258376
0.0261276
0.0260492
0.0261747
0.0260034
0.0258589
0.0260793
0.0259112
0.0260335
0.0260756
0.0260304
0.0263356
0.0262876
0.0264559
0.0258027
0.0256526
0.02588
0.0257112
0.0258383
0.0258868
0.0258494
0.0261704
0.0261412
0.0263711
0.0259635
0.0257889
0.0260117
0.0258443
0.0259684
0.026023
0.0260033
0.0263489
0.0263708
0.0267288
0.0251844
0.0251042
0.0252994
0.0251639
0.0252779
0.0252752
0.0251089
0.0251086
0.0245386
0.0237539
0.0249986
0.0249321
0.0251284
0.0249875
0.0251032
0.0251015
0.0249354
0.0249462
0.0243584
0.023339
0.0251801
0.0251144
0.0253092
0.0251751
0.0252981
0.0253137
0.025182
0.0252558
0.0248112
0.0239834
0.0249855
0.0249121
0.0251114
0.0249784
0.0251084
0.0251409
0.0250443
0.0251978
0.0249258
0.0244251
0.0250588
0.0249821
0.0251812
0.0250489
0.0251825
0.0252281
0.0251615
0.0253878
0.0252964
0.0251414
0.0250471
0.0249628
0.0251624
0.0250285
0.0251623
0.0252141
0.0251648
0.0254415
0.0254857
0.0255722
0.0249451
0.0248487
0.0250493
0.0249112
0.0250421
0.0250937
0.0250489
0.0253518
0.025471
0.0256871
0.0251116
0.0250112
0.0252083
0.0250677
0.0251942
0.0252435
0.0251994
0.0255134
0.0256718
0.0259202
0.0249389
0.0248333
0.0250373
0.0248951
0.0250258
0.0250806
0.0250431
0.0253747
0.0255575
0.0259152
0.0250612
0.0249268
0.0251263
0.0249835
0.0251102
0.025173
0.0251614
0.0255298
0.0257909
0.0263247
0.0242981
0.0242742
0.0244601
0.0243713
0.0245105
0.0245372
0.0243864
0.0243176
0.0236039
0.0221257
0.0241368
0.0241269
0.0243127
0.0242191
0.0243606
0.0243902
0.0242413
0.0241879
0.0234783
0.0216427
0.0242945
0.0242837
0.0244689
0.0243827
0.0245329
0.0245843
0.0244794
0.0245104
0.0240383
0.022697
0.0241152
0.0240956
0.024285
0.0241989
0.0243562
0.0244273
0.0243655
0.0244966
0.0242722
0.023393
0.0241802
0.0241545
0.0243426
0.0242549
0.0244126
0.0244949
0.0244646
0.0246816
0.0247342
0.0245028
0.0241653
0.0241288
0.0243157
0.0242223
0.0243745
0.0244553
0.0244301
0.0246882
0.0249034
0.0250553
0.0240644
0.0240125
0.0241986
0.0240963
0.0242385
0.024308
0.0242681
0.0245268
0.0247911
0.0250865
0.0242081
0.0241483
0.024329
0.02422
0.0243511
0.0244085
0.0243531
0.0246029
0.0249013
0.0252941
0.0240589
0.0239934
0.0241801
0.0240679
0.0242009
0.0242602
0.0242077
0.0244706
0.0248104
0.0254744
0.0241476
0.0240495
0.0242318
0.0241158
0.0242428
0.0243111
0.0242907
0.0246061
0.0250437
0.0260066
0.023393
0.0234271
0.0236137
0.023585
0.0237702
0.0238592
0.0237845
0.0237494
0.0230838
0.021777
0.0232517
0.0233004
0.0234861
0.0234544
0.0236442
0.0237426
0.0236783
0.0236679
0.0230826
0.0214571
0.0233888
0.0234349
0.0236209
0.0235969
0.0237968
0.023921
0.0239078
0.023975
0.0235857
0.0224184
0.0232244
0.0232604
0.02345
0.0234245
0.0236297
0.0237728
0.0238037
0.0239495
0.0237434
0.0229776
0.0232799
0.0233062
0.0234927
0.0234614
0.0236603
0.0238062
0.0238552
0.0240604
0.0241123
0.0240903
0.0232614
0.023273
0.0234556
0.0234121
0.0235945
0.0237211
0.0237406
0.0239236
0.0240253
0.0239697
0.0231627
0.0231547
0.0233336
0.0232737
0.0234342
0.0235287
0.0234893
0.0235925
0.0235683
0.02313
0.0232839
0.0232634
0.0234338
0.0233605
0.0234992
0.0235647
0.0234801
0.0235313
0.0235087
0.0234748
0.0231548
0.0231283
0.0233036
0.0232242
0.0233601
0.0234204
0.0233279
0.023388
0.0234275
0.0240003
0.0232168
0.0231529
0.0233228
0.0232354
0.0233613
0.0234267
0.0233713
0.0234945
0.0236394
0.024624
0.0224618
0.0225558
0.0227522
0.0227977
0.0230553
0.0232475
0.0233069
0.0234146
0.0228151
0.0208208
0.0223376
0.022447
0.0226423
0.0226881
0.0229559
0.0231718
0.0232719
0.0234362
0.023063
0.0211537
0.0224567
0.0225617
0.0227582
0.022812
0.0230914
0.0233368
0.0235028
0.023752
0.0234916
0.022277
0.0223061
0.0223998
0.0225987
0.0226489
0.0229298
0.0231893
0.023399
0.0237214
0.0235568
0.0229935
0.0223518
0.0224317
0.0226252
0.0226633
0.0229271
0.0231723
0.0233761
0.023719
0.0237636
0.0238999
0.0223301
0.0223908
0.0225767
0.0225931
0.0228234
0.0230211
0.023135
0.0233401
0.0232908
0.0227052
0.0222346
0.0222712
0.0224493
0.0224392
0.0226299
0.0227649
0.0227477
0.0227291
0.0222788
0.0205848
0.0223342
0.022353
0.0225189
0.0224862
0.0226402
0.022723
0.0226152
0.0224684
0.0218396
0.0205378
0.0222234
0.0222352
0.0224038
0.0223608
0.022505
0.0225706
0.0224363
0.0222697
0.0216563
0.0211614
0.0222623
0.0222328
0.0223951
0.0223388
0.0224666
0.0225283
0.0224265
0.0223276
0.0218284
0.0217946
0.0214862
0.0216394
0.0218517
0.0219823
0.0223395
0.0226881
0.022963
0.0233668
0.0233346
0.0213726
0.0213775
0.0215476
0.0217594
0.0218954
0.0222723
0.0226682
0.0230439
0.0235924
0.0239647
0.0228933
0.0214809
0.0216451
0.021859
0.0220036
0.0223943
0.0228231
0.0232845
0.0239706
0.0244024
0.0244969
0.0213437
0.0214953
0.0217104
0.0218487
0.0222367
0.0226701
0.023167
0.0239432
0.0243466
0.0248247
0.0213804
0.0215142
0.0217212
0.02184
0.0221965
0.0225907
0.0230433
0.0237905
0.0244018
0.0257315
0.0213564
0.0214665
0.0216616
0.0217475
0.0220485
0.0223577
0.0226444
0.0230978
0.0235058
0.0237729
0.0212655
0.0213472
0.0215303
0.0215778
0.0218165
0.0220255
0.0220916
0.0221191
0.0218016
0.0198805
0.0213462
0.0214048
0.0215716
0.0215858
0.0217693
0.021898
0.0218137
0.0215908
0.0207369
0.0184962
0.021252
0.0213036
0.021471
0.02147
0.0216344
0.0217302
0.0215899
0.0212981
0.0202945
0.0188436
0.0212744
0.0212807
0.0214408
0.0214207
0.0215617
0.0216407
0.0215231
0.0213061
0.020462
0.0197123
0.0204511
0.0206585
0.0208884
0.0211084
0.0215839
0.0221419
0.0227349
0.0236072
0.0246807
0.0243844
0.0203579
0.0205842
0.0208149
0.0210469
0.021555
0.0221885
0.0229633
0.0241322
0.0258826
0.0279451
0.0204482
0.0206673
0.0209008
0.0211414
0.0216663
0.0223358
0.0232142
0.0246384
0.0265639
0.0304348
0.0203243
0.02053
0.0207633
0.0209946
0.0215119
0.0221727
0.0230648
0.0246052
0.0264867
0.030592
0.0203538
0.0205383
0.0207606
0.0209642
0.0214336
0.0220239
0.0228153
0.0242374
0.0262181
0.0315688
0.0203293
0.0204864
0.020693
0.020852
0.0212406
0.0217023
0.0222416
0.0231322
0.024498
0.0271383
0.0202449
0.0203705
0.0205617
0.0206713
0.0209732
0.0212968
0.0215359
0.0217785
0.0220903
0.0212749
0.020309
0.0204074
0.020579
0.0206453
0.0208731
0.0210904
0.0211263
0.0209985
0.0204437
0.0183613
0.0202308
0.0203222
0.0204925
0.0205393
0.020739
0.0209081
0.0208563
0.0206052
0.0196345
0.0176809
0.0202403
0.0202846
0.0204478
0.0204714
0.0206438
0.0207857
0.0207455
0.0205776
0.0197643
0.0185606
0.0193356
0.0195832
0.0198213
0.0201158
0.0206929
0.0214597
0.0224106
0.0237912
0.0260915
0.0286476
0.0192584
0.0195272
0.0197674
0.0200801
0.0207035
0.0215717
0.0227833
0.0246403
0.0278917
0.0347774
0.019338
0.0195987
0.0198423
0.0201626
0.0208063
0.021716
0.0230473
0.0253081
0.0291409
0.039557
0.0192279
0.0194752
0.0197177
0.0200258
0.0206586
0.0215499
0.0228588
0.0252426
0.0290859
0.0400172
0.019253
0.0194772
0.019707
0.0199807
0.020551
0.0213388
0.0224721
0.0245579
0.0279328
0.0387296
0.0192307
0.0194257
0.0196376
0.0198588
0.0203264
0.0209399
0.021728
0.0229738
0.0248832
0.0294341
0.0191557
0.0193187
0.0195145
0.019681
0.0200448
0.0204924
0.0209438
0.0213969
0.02203
0.0220021
0.0192077
0.0193414
0.0195168
0.0196356
0.019914
0.0202436
0.0204832
0.0205559
0.0203357
0.0186883
0.0191451
0.0192741
0.0194481
0.0195463
0.0197923
0.0200676
0.0202031
0.0201451
0.019432
0.017107
0.0191487
0.0192307
0.0194001
0.0194749
0.0196967
0.0199465
0.0200907
0.0201454
0.0196389
0.0179324
0.0181298
0.0183941
0.0186201
0.0189534
0.0195762
0.0204741
0.0216961
0.0233866
0.0264835
0.0314852
0.0180692
0.018357
0.0185859
0.0189407
0.0196183
0.0206289
0.0221465
0.0244153
0.0284374
0.0394645
0.0181403
0.0184195
0.018652
0.0190119
0.0197114
0.0207707
0.0224118
0.0251942
0.0302904
0.0478639
0.0180447
0.0183118
0.0185432
0.0188889
0.0195758
0.0206129
0.0221927
0.0250555
0.0302038
0.0489183
0.0180687
0.0183128
0.0185319
0.0188402
0.0194561
0.020363
0.021689
0.0240616
0.0278982
0.0432852
0.0180519
0.0182682
0.0184701
0.0187247
0.0192275
0.0199255
0.0208459
0.0221931
0.0238823
0.0296491
0.0179899
0.0181774
0.0183665
0.018571
0.0189701
0.0194998
0.0201227
0.0207451
0.0213409
0.0221397
0.0180339
0.0181935
0.0183655
0.0185267
0.0188448
0.0192717
0.0197421
0.0201299
0.0202542
0.0191862
0.0179873
0.0181458
0.0183185
0.0184631
0.0187533
0.0191368
0.01952
0.0198316
0.0197083
0.017347
0.0179899
0.0181054
0.0182792
0.0184062
0.0186861
0.0190677
0.0194864
0.0199578
0.0202796
0.0186039
0.0168263
0.0170741
0.0172567
0.0175697
0.0181353
0.0189932
0.0202421
0.0218091
0.0248935
0.0313459
0.0167824
0.0170554
0.0172397
0.0175709
0.0181845
0.0191296
0.0206137
0.0226275
0.0259257
0.0380192
0.0168465
0.0171107
0.0172986
0.0176301
0.0182607
0.0192544
0.0208422
0.0233297
0.0277866
0.0492179
0.0167663
0.0170213
0.0172095
0.0175268
0.0181462
0.0191244
0.0206297
0.0231274
0.0274637
0.0502511
0.0167927
0.017028
0.017208
0.0174918
0.0180471
0.0188968
0.0201171
0.0220843
0.0244611
0.0398994
0.0167848
0.0169979
0.017166
0.0174067
0.0178654
0.0185205
0.0193739
0.0205093
0.0211898
0.0263642
0.0167396
0.0169318
0.0170957
0.0173048
0.0176908
0.0182257
0.0189211
0.0197116
0.0202836
0.0218805
0.0167807
0.0169502
0.0171047
0.0172867
0.0176196
0.0181045
0.0187813
0.0196246
0.020579
0.0209842
0.0167501
0.0169246
0.0170842
0.0172595
0.0175784
0.0180493
0.0186982
0.0195484
0.0208068
0.020232
0.0167581
0.0168967
0.0170663
0.0172362
0.017569
0.0180832
0.0188314
0.0198757
0.0219048
0.0227609
0.0154338
0.0156284
0.0157353
0.0159622
0.016356
0.0169763
0.0180207
0.0189977
0.0212451
0.0313745
0.015406
0.015626
0.0157308
0.0159641
0.0163776
0.0170121
0.0180974
0.0191128
0.0200728
0.0319207
0.015464
0.0156754
0.0157831
0.0160091
0.0164239
0.017084
0.0181995
0.019425
0.0203777
0.0402597
0.0153997
0.0156065
0.0157171
0.0159312
0.0163373
0.0169934
0.0180205
0.0191985
0.0196428
0.0408072
0.0154317
0.0156256
0.0157357
0.0159286
0.0162972
0.0168691
0.0176499
0.0185497
0.0175851
0.0303614
0.0154358
0.0156173
0.0157262
0.0158995
0.0162222
0.016686
0.017263
0.0179312
0.0172737
0.0230977
0.0154102
0.0155837
0.0157019
0.0158752
0.016188
0.0166356
0.0172744
0.0181534
0.019049
0.0242584
0.0154522
0.0156117
0.0157318
0.0159041
0.0162129
0.0166922
0.0174944
0.0187548
0.0210538
0.0277627
0.0154366
0.0156081
0.0157378
0.0159163
0.0162293
0.0167259
0.0175844
0.0189121
0.0220053
0.0301559
0.015454
0.015599
0.0157488
0.0159373
0.0162895
0.0168737
0.0179206
0.0194129
0.0232582
0.0338348
0.0139747
0.0140855
0.0140963
0.0141894
0.0143353
0.0145544
0.0152474
0.0156874
0.0153415
0.0316049
0.0139613
0.014096
0.0140989
0.01418
0.0143003
0.0144279
0.014896
0.0148757
0.0118655
0.0260343
0.0140133
0.0141394
0.0141438
0.0142085
0.0143031
0.0144009
0.014738
0.0144397
0.00884486
0.0212371
0.0139642
0.0140913
0.0141018
0.0141579
0.0142436
0.0143388
0.0145577
0.0141435
0.00719943
0.0169628
0.0140033
0.0141272
0.0141468
0.0142
0.0142886
0.0143913
0.0145018
0.0143471
0.00837628
0.0155683
0.0140202
0.0141451
0.0141769
0.0142417
0.0143589
0.0145125
0.0147091
0.0150881
0.0127005
0.0221332
0.0140151
0.0141474
0.0142037
0.0143047
0.0144906
0.0147692
0.0152814
0.0163886
0.0173817
0.0321155
0.0140595
0.0141885
0.0142579
0.0143856
0.0146225
0.0150135
0.015852
0.0175795
0.0202974
0.038628
0.0140562
0.0142032
0.0142835
0.0144264
0.0146789
0.015089
0.0160336
0.0178369
0.020899
0.0416423
0.0140847
0.014215
0.0143232
0.0144882
0.0147932
0.0152933
0.0164572
0.0182423
0.0208957
0.0420009
0.0213411
0.0251841
0.0268325
0.0261323
0.0248432
0.0239122
0.0234134
0.0231819
0.0235291
0.0227067
0.0210274
0.025524
0.0265343
0.025312
0.0239641
0.023124
0.0227608
0.0227539
0.0235803
0.023771
0.0215343
0.0248609
0.0260768
0.0251736
0.0238645
0.0230012
0.022631
0.0225931
0.0234467
0.0235141
0.0220559
0.0252082
0.0260825
0.0247344
0.0232776
0.0225233
0.022349
0.0223326
0.0229246
0.022609
0.0232326
0.0264668
0.0256608
0.0237344
0.02247
0.0219951
0.0220372
0.0220834
0.0223832
0.0215456
0.0236834
0.0267038
0.0245086
0.0224562
0.0216178
0.0215621
0.0218272
0.0218715
0.02201
0.0206959
0.0234744
0.0258286
0.0230327
0.0214025
0.0210666
0.021329
0.0216751
0.0216143
0.0216243
0.0200401
0.0235731
0.0252332
0.0227599
0.0213913
0.0212809
0.0215858
0.0217808
0.021534
0.0214119
0.0195025
0.0242577
0.0253583
0.0237213
0.0224627
0.0221641
0.0221609
0.0220364
0.0216492
0.0214576
0.0196078
0.0252746
0.0260349
0.0249325
0.0236623
0.0229415
0.0224926
0.0221366
0.0217645
0.0216352
0.0199635
0.0204742
0.0227015
0.0242849
0.0241201
0.0234536
0.0229307
0.0226547
0.0227384
0.0231357
0.0238386
0.0197942
0.0213937
0.0227877
0.022571
0.0220748
0.0218014
0.0217555
0.0220391
0.0230017
0.0239923
0.0197456
0.020649
0.0224532
0.0226098
0.0220115
0.0216405
0.021609
0.0218051
0.0228285
0.0237074
0.0206689
0.0213491
0.0226398
0.0223906
0.0217366
0.0212597
0.0212558
0.0214957
0.02234
0.0227868
0.0224633
0.0226136
0.0227201
0.0219893
0.0213281
0.0209835
0.0210433
0.0213205
0.0219352
0.0220277
0.0223169
0.0225269
0.0217591
0.0209136
0.0204407
0.0203908
0.0207259
0.0211409
0.021708
0.0216426
0.0210007
0.0212747
0.0203288
0.0197016
0.0195388
0.0198314
0.0204645
0.0209694
0.0214932
0.0214533
0.0211465
0.0210943
0.0199423
0.0193702
0.0195505
0.0201032
0.0207888
0.0211789
0.0215564
0.0214918
0.0220885
0.0217837
0.020698
0.0202533
0.0206272
0.0211369
0.0215388
0.0216518
0.0217843
0.0217461
0.0233636
0.0233979
0.0225445
0.0220091
0.0220625
0.0221669
0.0222258
0.0221454
0.0220611
0.0221888
0.0187757
0.0200315
0.0216793
0.0221745
0.0220478
0.0219516
0.0219179
0.0219928
0.0223145
0.022698
0.0182586
0.0184804
0.020466
0.0210552
0.0210634
0.0211642
0.0213727
0.0215675
0.0222184
0.0225242
0.0183027
0.0184934
0.0204278
0.0211905
0.0211304
0.0211635
0.0213276
0.021418
0.0222031
0.0225061
0.0202053
0.0195783
0.0209952
0.0214414
0.0212117
0.0209515
0.0210196
0.0211439
0.0219329
0.0221538
0.0228778
0.0210476
0.0214383
0.0213313
0.0209644
0.0206679
0.0207341
0.0209554
0.0216292
0.0218273
0.0223097
0.0207915
0.0204387
0.0202528
0.0200117
0.0198701
0.0202365
0.0207704
0.0214434
0.0215969
0.0194291
0.0190418
0.0190779
0.0191157
0.0190986
0.0191882
0.0198756
0.0206611
0.0213427
0.0214522
0.0189391
0.0188994
0.0187601
0.0187749
0.0190312
0.019481
0.0202968
0.0209524
0.0215094
0.02153
0.0200171
0.0198202
0.0192123
0.0193419
0.0199705
0.0205266
0.0212234
0.0215327
0.0218388
0.0217075
0.0213147
0.0215137
0.020964
0.0209791
0.021354
0.021616
0.0219421
0.022073
0.0221882
0.0223507
0.018674
0.0191521
0.0202436
0.0207336
0.0209567
0.0212835
0.021458
0.0213683
0.0214048
0.0211368
0.0186464
0.0180255
0.0195318
0.0200536
0.0202053
0.0205835
0.0209702
0.0210603
0.0213787
0.0210861
0.019677
0.0187633
0.0198728
0.0204487
0.0205396
0.0206411
0.0207307
0.0208268
0.0214998
0.0214351
0.022028
0.0203011
0.0208687
0.0211639
0.0209088
0.0205007
0.0202886
0.0204478
0.0214215
0.0215224
0.0249652
0.0220383
0.0212305
0.0210197
0.0205417
0.0200879
0.0199528
0.020227
0.0212542
0.0215073
0.0237763
0.0206244
0.0195337
0.0195502
0.0193232
0.019182
0.0195056
0.0200467
0.0210414
0.0214459
0.0200362
0.017903
0.0180883
0.0184089
0.0185321
0.0187761
0.0193842
0.0200849
0.0210036
0.0214372
0.017952
0.0176737
0.0178488
0.0181265
0.0186313
0.019261
0.0199975
0.0206337
0.0212246
0.0215114
0.0186465
0.0185458
0.0182631
0.0187524
0.0195729
0.0201808
0.0210108
0.0213348
0.0215009
0.0213541
0.0199167
0.0201625
0.0199562
0.0203904
0.0209321
0.0213125
0.0217832
0.0217514
0.0217309
0.0215885
0.0214338
0.0203982
0.0199156
0.0198024
0.0201606
0.020753
0.0210221
0.0207899
0.020855
0.0206497
0.0231314
0.020158
0.0197029
0.0193848
0.0194467
0.0198919
0.0201198
0.0200871
0.0205945
0.020491
0.0253704
0.0218329
0.0208323
0.0203083
0.0200556
0.0197491
0.0194087
0.0194732
0.020436
0.0206094
0.0274677
0.0235986
0.0219544
0.0211458
0.0203814
0.0194641
0.0187532
0.0188678
0.020062
0.0203157
0.0280219
0.0239914
0.0215498
0.0205982
0.0195419
0.018639
0.0182079
0.0183478
0.019643
0.020012
0.0236781
0.0203136
0.0188235
0.018631
0.0181377
0.0178878
0.017948
0.018038
0.0194509
0.0200365
0.0195252
0.0165636
0.0172838
0.0176045
0.0178023
0.0182665
0.0183649
0.0183861
0.019747
0.0204681
0.0179415
0.0167364
0.0170365
0.0172603
0.0179712
0.0190482
0.0193825
0.0196494
0.0204929
0.0212428
0.0182104
0.01772
0.0175866
0.0180769
0.0189857
0.020047
0.0208051
0.0210853
0.0211038
0.0215698
0.0191878
0.0191462
0.0190974
0.0196333
0.020355
0.0212377
0.021857
0.0216734
0.0212143
0.0211722
0.0266649
0.0228412
0.0202039
0.0192763
0.0196396
0.0201434
0.0199182
0.0193673
0.0198368
0.0196419
0.0309952
0.0236351
0.0201535
0.0188944
0.0188868
0.0190306
0.0185944
0.0183825
0.019385
0.0193845
0.034562
0.0265859
0.0220832
0.0200281
0.0192561
0.0183926
0.0176506
0.0175662
0.0185539
0.0187769
0.0354066
0.0280311
0.0232628
0.0207424
0.0190184
0.0173504
0.0161546
0.0159593
0.0171544
0.0173967
0.0310202
0.026058
0.0219597
0.0197191
0.0175721
0.0157579
0.0145592
0.0142297
0.0157229
0.0161527
0.0220118
0.0199514
0.0185993
0.0177043
0.0164231
0.0153176
0.0138867
0.0131788
0.01499
0.0157982
0.0168191
0.0158699
0.0168161
0.0170489
0.0169281
0.0167207
0.0150221
0.013518
0.0152924
0.0164238
0.0167532
0.0161311
0.0165561
0.0167886
0.0175598
0.0182901
0.0172087
0.015739
0.0169237
0.0179611
0.0176639
0.0172066
0.0173323
0.0176502
0.0185293
0.0195009
0.0192964
0.0187443
0.0189765
0.0195636
0.0186423
0.0183814
0.0184515
0.0187948
0.0196455
0.0207344
0.0209221
0.0204253
0.0198562
0.0195895
0.0307403
0.0241555
0.0204078
0.0192311
0.0195567
0.0195041
0.0178406
0.0165954
0.0177646
0.0173073
0.034499
0.0246908
0.0198037
0.0181663
0.0181061
0.0177465
0.016628
0.0161047
0.0175739
0.0168377
0.0388637
0.0285706
0.0221723
0.0191115
0.0177374
0.0164414
0.0155755
0.0152623
0.016336
0.0152888
0.0385101
0.029771
0.0236625
0.0198912
0.0171174
0.0148656
0.0135832
0.0134132
0.0143596
0.0127055
0.031944
0.026803
0.0222015
0.0187717
0.015501
0.0130545
0.0115543
0.01145
0.0123049
0.0109806
0.0206159
0.0192677
0.0187558
0.0170454
0.0147072
0.0125037
0.0101252
0.00964743
0.0108105
0.0103206
0.0150839
0.0155054
0.0165951
0.0171612
0.0158797
0.0141143
0.0106369
0.00898563
0.0100589
0.010485
0.0156457
0.0159369
0.0165877
0.0174184
0.0177996
0.016944
0.0132858
0.0102922
0.0109612
0.0115906
0.0168884
0.0169969
0.0172999
0.0176602
0.0186271
0.0186179
0.0156841
0.0128638
0.0128715
0.0131983
0.0184675
0.018003
0.0180964
0.0182639
0.0192565
0.0199119
0.0177474
0.0154056
0.014475
0.0136559
0.029071
0.02295
0.0202212
0.0198428
0.0206956
0.02026
0.0166591
0.0138603
0.0147534
0.0142939
0.0288926
0.0221954
0.0188145
0.0176192
0.0179182
0.0170882
0.0153083
0.0137368
0.0138169
0.0121973
0.0356283
0.0266047
0.0212385
0.0180578
0.016004
0.0147468
0.0142665
0.0137875
0.0124996
0.00843454
0.035812
0.0287795
0.0233364
0.0189786
0.015514
0.0134684
0.012964
0.0129714
0.0113077
0.00519475
0.0273824
0.0252678
0.0225764
0.0186089
0.0145743
0.0119546
0.0108972
0.0111423
0.010428
0.00579402
0.0172525
0.0177862
0.0194394
0.0178975
0.0143061
0.0109858
0.00878453
0.00913648
0.00924085
0.00647383
0.0133361
0.0148133
0.0167022
0.018192
0.0158485
0.0124044
0.00827612
0.00720859
0.00807479
0.00694729
0.0151458
0.0161836
0.0168153
0.0181652
0.0184416
0.015981
0.0104988
0.00642066
0.00693538
0.0064455
0.0172766
0.0172121
0.0173645
0.0181176
0.0194405
0.0188836
0.0138455
0.00774894
0.00627131
0.0054762
0.0205782
0.0184047
0.0175101
0.0182136
0.0202286
0.0208496
0.0163106
0.0102656
0.00703706
0.00505698
0.0284367
0.021836
0.0196901
0.021554
0.0241578
0.0234709
0.017966
0.0134583
0.0137834
0.0156104
0.0221988
0.0199587
0.0186034
0.0193603
0.0209827
0.019595
0.0158445
0.0122195
0.0115484
0.0124076
0.0284645
0.0242495
0.0214071
0.0191712
0.0169968
0.0151944
0.0138521
0.0120238
0.00958021
0.00877747
0.0299135
0.0266965
0.0236378
0.0195184
0.0155429
0.0132125
0.012235
0.0101315
0.00722519
0.00800869
0.0220685
0.0234217
0.0245396
0.0206548
0.0153841
0.0116083
0.00922472
0.00655062
0.00688004
0.0121597
0.0154415
0.0179983
0.0231019
0.0224483
0.0167472
0.0110071
0.00662618
0.0043718
0.00678138
0.0144007
0.0157703
0.016419
0.0202087
0.02337
0.0201642
0.0138167
0.0063873
0.0024858
0.0061883
0.0145293
0.0220926
0.0184859
0.0186107
0.0216373
0.023392
0.0193721
0.0100725
0.00245768
0.0052665
0.0123418
0.027831
0.020168
0.0178046
0.0204001
0.0246936
0.0242401
0.0160872
0.00549904
0.00510493
0.0102122
0.0334012
0.0221823
0.0168981
0.0199763
0.0259018
0.0271085
0.0205358
0.0104037
0.00720643
0.0118781
0.0456844
0.0273328
0.0212708
0.0246125
0.0270377
0.0254009
0.0196867
0.0150998
0.0282896
0.0716399
0.0341197
0.0247298
0.0214445
0.0232363
0.0246862
0.0230409
0.0182353
0.0137518
0.0277976
0.073666
0.0285772
0.0259362
0.0231936
0.0224499
0.0221608
0.0213546
0.0179561
0.012614
0.0263749
0.0796608
0.0257662
0.0265071
0.0257914
0.0242469
0.0225501
0.0212718
0.0167602
0.00847821
0.0243587
0.0907074
0.024434
0.0263039
0.0283094
0.0274847
0.0248995
0.021937
0.0143203
0.00295901
0.0228634
0.100125
0.0291002
0.0267673
0.0293262
0.0302242
0.0280257
0.0239139
0.0141012
0.0016169