/*--------------------------------*- C++ -*----------------------------------*\
  =========                 |
  \\      /  F ield         | OpenFOAM: The Open Source CFD Toolbox
   \\    /   O peration     | Website:  https://openfoam.org
    \\  /    A nd           | Version:  6
     \\/     M anipulation  |
\*---------------------------------------------------------------------------*/
FoamFile
{
    version     2.0;
    format      ascii;
    class       volVectorField;
    location    "300";
    object      U;
}
// * * * * * * * * * * * * * * * * * * * * * * * * * * * * * * * * * * * * * //

dimensions      [0 1 -1 0 0 0 0];

internalField   nonuniform List<vector> 
7000
(
(0.000602327 0.000604212 0.997867)
(0.000763174 0.000605285 0.999408)
(0.000221315 0.00060491 0.998943)
(9.21848e-05 0.000604918 0.998943)
(3.22539e-05 0.000604924 0.998945)
(-2.90838e-05 0.000604903 0.998945)
(-8.9054e-05 0.000604867 0.998941)
(-0.000217909 0.000604856 0.99894)
(-0.00075952 0.000605313 0.999405)
(-0.000600499 0.000604327 0.997861)
(0.000603364 0.000766475 0.999414)
(0.000763557 0.00076693 1.00096)
(0.000221106 0.000766931 1.00049)
(9.21101e-05 0.000766837 1.00049)
(3.22422e-05 0.000766803 1.0005)
(-2.90976e-05 0.000766762 1.0005)
(-8.897e-05 0.000766736 1.00049)
(-0.000217575 0.000766828 1.00049)
(-0.000759658 0.000766962 1.00096)
(-0.000601405 0.000766623 0.999414)
(0.000602988 0.000224148 0.998946)
(0.000763555 0.00022402 1.00049)
(0.000221142 0.000224059 1.00002)
(9.20893e-05 0.000223982 1.00002)
(3.21987e-05 0.000223877 1.00003)
(-2.91495e-05 0.000223759 1.00003)
(-8.89981e-05 0.000223658 1.00002)
(-0.000217572 0.00022362 1.00002)
(-0.000759526 0.000223579 1.00049)
(-0.000600957 0.000223639 0.998946)
(0.000602998 9.5105e-05 0.998947)
(0.000763461 9.51291e-05 1.00049)
(0.000221063 9.51139e-05 1.00002)
(9.1953e-05 9.49856e-05 1.00003)
(3.20314e-05 9.47979e-05 1.00003)
(-2.9321e-05 9.4571e-05 1.00003)
(-8.91272e-05 9.43413e-05 1.00003)
(-0.000217636 9.41777e-05 1.00003)
(-0.0007595 9.40373e-05 1.00049)
(-0.000601007 9.37581e-05 0.998948)
(0.000603013 3.49829e-05 0.99895)
(0.000763435 3.50877e-05 1.00049)
(0.000220965 3.50581e-05 1.00003)
(9.17711e-05 3.49176e-05 1.00003)
(3.17847e-05 3.46888e-05 1.00003)
(-2.96028e-05 3.43869e-05 1.00003)
(-8.93856e-05 3.40527e-05 1.00003)
(-0.000217833 3.37671e-05 1.00003)
(-0.000759677 3.3518e-05 1.00049)
(-0.000601127 3.30354e-05 0.998953)
(0.00060301 -2.69153e-05 0.99895)
(0.000763416 -2.6811e-05 1.00049)
(0.000220874 -2.68497e-05 1.00003)
(9.158e-05 -2.69794e-05 1.00003)
(3.14997e-05 -2.72178e-05 1.00003)
(-2.99546e-05 -2.75562e-05 1.00003)
(-8.97422e-05 -2.79562e-05 1.00003)
(-0.000218145 -2.83348e-05 1.00003)
(-0.000759974 -2.86752e-05 1.00049)
(-0.000601289 -2.92393e-05 0.998954)
(0.000602992 -8.76542e-05 0.998947)
(0.000763406 -8.74743e-05 1.00049)
(0.000220798 -8.7512e-05 1.00003)
(9.13992e-05 -8.76149e-05 1.00003)
(3.12055e-05 -8.78342e-05 1.00003)
(-3.03405e-05 -8.81688e-05 1.00003)
(-9.01623e-05 -8.85863e-05 1.00003)
(-0.00021855 -8.90219e-05 1.00003)
(-0.000760366 -8.9393e-05 1.00049)
(-0.000601473 -9.00999e-05 0.998953)
(0.00060299 -0.000217316 0.998946)
(0.00076349 -0.000216959 1.00049)
(0.000220751 -0.000217004 1.00003)
(9.12532e-05 -0.000217078 1.00003)
(3.09423e-05 -0.000217262 1.00003)
(-3.07067e-05 -0.000217558 1.00003)
(-9.05944e-05 -0.000217954 1.00003)
(-0.00021897 -0.00021837 1.00003)
(-0.000760888 -0.000218769 1.00049)
(-0.000601723 -0.00021963 0.998953)
(0.000603412 -0.000758993 0.99941)
(0.00076355 -0.000759204 1.00096)
(0.000220666 -0.00075917 1.00049)
(9.11058e-05 -0.000759166 1.00049)
(3.07052e-05 -0.000759329 1.00049)
(-3.10304e-05 -0.000759599 1.00049)
(-9.09548e-05 -0.000759963 1.00049)
(-0.000219366 -0.000760478 1.00049)
(-0.000761399 -0.000760979 1.00095)
(-0.000602347 -0.000760987 0.999416)
(0.000602393 -0.000600109 0.997871)
(0.000763175 -0.000601071 0.999416)
(0.000220779 -0.000600681 0.99895)
(9.09592e-05 -0.000600734 0.998951)
(3.03704e-05 -0.000600837 0.998954)
(-3.14689e-05 -0.000600975 0.998955)
(-9.15895e-05 -0.000601134 0.998953)
(-0.000220201 -0.000601376 0.998953)
(-0.000761393 -0.000601989 0.999417)
(-0.000601382 -0.000601029 0.99788)
(0.0014736 0.00147044 0.994315)
(0.00173384 0.00147553 0.999173)
(0.000435421 0.00147157 0.997299)
(0.00027021 0.00147061 0.997289)
(8.58251e-05 0.00146869 0.99728)
(-0.000112623 0.00146626 0.99728)
(-0.000294487 0.00146347 0.997292)
(-0.000454781 0.00146023 0.997303)
(-0.00174031 0.00146088 0.999171)
(-0.0014719 0.00145292 0.994336)
(0.00147877 0.0017281 0.999173)
(0.00173437 0.00172864 1.00404)
(0.000432273 0.00172564 1.00216)
(0.000266708 0.00172276 1.00215)
(8.11683e-05 0.00171902 1.00214)
(-0.000118297 0.0017144 1.00214)
(-0.000300608 0.00170917 1.00215)
(-0.000459782 0.00170402 1.00215)
(-0.00174769 0.00170064 1.00402)
(-0.00148022 0.00169374 0.999174)
(0.00147493 0.000430439 0.9973)
(0.0017315 0.000427752 1.00216)
(0.00043015 0.000425821 1.00029)
(0.000263578 0.000422635 1.00028)
(7.71947e-05 0.000418603 1.00026)
(-0.000122991 0.000413772 1.00026)
(-0.000305585 0.000408441 1.00027)
(-0.000464625 0.000403199 1.00028)
(-0.00175152 0.000398331 1.00215)
(-0.00147993 0.000393269 0.997304)
(0.00147434 0.00026531 0.99729)
(0.00172919 0.000262937 1.00215)
(0.00042716 0.000260529 1.00028)
(0.000259533 0.000256871 1.00027)
(7.22753e-05 0.000252233 1.00025)
(-0.000128573 0.000246741 1.00025)
(-0.000311359 0.000240741 1.00026)
(-0.000470066 0.000234824 1.00027)
(-0.00175748 0.000229519 1.00214)
(-0.00148379 0.00022283 0.997286)
(0.00147317 8.1295e-05 0.997281)
(0.00172673 7.86448e-05 1.00214)
(0.000424039 7.61468e-05 1.00027)
(0.000255283 7.25209e-05 1.00026)
(6.70575e-05 6.78699e-05 1.00024)
(-0.000134502 6.23739e-05 1.00024)
(-0.000317526 5.63816e-05 1.00025)
(-0.000475879 5.04363e-05 1.00025)
(-0.00176391 4.52286e-05 1.00213)
(-0.00148744 3.85787e-05 0.997269)
(0.00147195 -0.000116704 0.997281)
(0.00172427 -0.000119453 1.00214)
(0.000421057 -0.000121848 1.00027)
(0.000251264 -0.000125116 1.00025)
(6.21302e-05 -0.000129328 1.00024)
(-0.000140069 -0.00013427 1.00024)
(-0.000323308 -0.000139621 1.00025)
(-0.000481294 -0.000144933 1.00025)
(-0.00176991 -0.000149412 1.00213)
(-0.00149088 -0.000155355 0.997262)
(0.00147078 -0.000298376 0.997291)
(0.00172202 -0.000300943 1.00215)
(0.000418474 -0.000303004 1.00027)
(0.000247823 -0.000305649 1.00026)
(5.79185e-05 -0.000309111 1.00025)
(-0.000144788 -0.000313149 1.00025)
(-0.000328187 -0.000317487 1.00025)
(-0.00048579 -0.000321784 1.00026)
(-0.00177503 -0.000325441 1.00213)
(-0.00149389 -0.00033025 0.997266)
(0.00146934 -0.000459125 0.997301)
(0.00172025 -0.000460588 1.00216)
(0.000416507 -0.00046239 1.00028)
(0.000245182 -0.000464426 1.00027)
(5.46508e-05 -0.000467081 1.00026)
(-0.00014843 -0.000470088 1.00026)
(-0.000331933 -0.000473211 1.00026)
(-0.000489401 -0.000476479 1.00026)
(-0.00177916 -0.000479053 1.00214)
(-0.00149574 -0.000482805 0.997272)
(0.00147158 -0.00175054 0.999173)
(0.00171991 -0.00175456 1.00403)
(0.000414763 -0.00175509 1.00216)
(0.000243149 -0.0017572 1.00215)
(5.23414e-05 -0.00175986 1.00214)
(-0.000150761 -0.00176272 1.00214)
(-0.000334368 -0.00176569 1.00214)
(-0.000491579 -0.00176871 1.00215)
(-0.00178246 -0.00177181 1.00402)
(-0.00149991 -0.00177145 0.99915)
(0.00146514 -0.00147962 0.994322)
(0.00171633 -0.00148629 0.999171)
(0.000413542 -0.00148419 0.9973)
(0.000240679 -0.0014859 0.997287)
(4.96803e-05 -0.00148742 0.997274)
(-0.000153455 -0.00148903 0.99727)
(-0.000336917 -0.00149074 0.997274)
(-0.000494085 -0.00149183 0.997277)
(-0.00178168 -0.00149577 0.999152)
(-0.00149483 -0.00149075 0.994283)
(0.0020054 0.0020029 0.990092)
(0.00217103 0.00201426 0.998779)
(0.000450588 0.00200528 0.995489)
(0.000435664 0.00200473 0.995469)
(0.00013981 0.00200162 0.995412)
(-0.000155812 0.0019978 0.995416)
(-0.000449517 0.0019935 0.995482)
(-0.000459201 0.00198727 0.995511)
(-0.00216239 0.0019908 0.998785)
(-0.0019944 0.00197574 0.990161)
(0.00201689 0.0021618 0.998769)
(0.00217394 0.00216466 1.00747)
(0.000446521 0.00215762 1.00417)
(0.000431419 0.00215348 1.00415)
(0.000132945 0.00214743 1.00408)
(-0.000164703 0.0021398 1.00408)
(-0.000460116 0.00213101 1.00413)
(-0.000467962 0.0021216 1.00414)
(-0.00217515 0.00211768 1.00742)
(-0.00200987 0.00210532 0.998764)
(0.00200812 0.000437272 0.995484)
(0.00216711 0.000433798 1.00417)
(0.000442897 0.000430507 1.00088)
(0.000425984 0.000424941 1.00086)
(0.000126091 0.000418035 1.00079)
(-0.000172912 0.00040956 1.00079)
(-0.000468888 0.000399971 1.00085)
(-0.000476732 0.000390495 1.00087)
(-0.00217988 0.000381504 1.00414)
(-0.002007 0.000372066 0.995487)
(0.00200816 0.000421049 0.995464)
(0.0021639 0.000418426 1.00415)
(0.00043767 0.000414259 1.00086)
(0.000418967 0.000407941 1.00084)
(0.000117482 0.000399916 1.00077)
(-0.000182906 0.000390182 1.00077)
(-0.000479391 0.000379274 1.00082)
(-0.000486721 0.000368373 1.00084)
(-0.00219108 0.000358559 1.00412)
(-0.00201447 0.000345994 0.995443)
(0.00200627 0.000123394 0.995406)
(0.00216002 0.00011961 1.00409)
(0.000432392 0.000115397 1.0008)
(0.000411644 0.000109163 1.00077)
(0.000108304 0.000101049 1.00071)
(-0.000193603 9.12363e-05 1.0007)
(-0.000490752 8.02899e-05 1.00076)
(-0.000497605 6.92397e-05 1.00077)
(-0.00220269 5.95136e-05 1.00405)
(-0.00202072 4.76099e-05 0.995359)
(0.00200447 -0.000173177 0.995407)
(0.00215613 -0.000177408 1.00409)
(0.000427292 -0.000181431 1.0008)
(0.000404647 -0.000187092 1.00077)
(9.95575e-05 -0.000194528 1.00071)
(-0.000203688 -0.000203405 1.0007)
(-0.000501415 -0.000213185 1.00075)
(-0.000507686 -0.000223045 1.00076)
(-0.0022136 -0.000231519 1.00405)
(-0.00202685 -0.000241834 0.995338)
(0.0020029 -0.0004671 0.995469)
(0.00215257 -0.000471803 1.00415)
(0.000422816 -0.00047515 1.00086)
(0.000398589 -0.000479684 1.00083)
(9.20205e-05 -0.000485834 1.00076)
(-0.000212251 -0.000493113 1.00076)
(-0.000510378 -0.000501021 1.00081)
(-0.000516092 -0.000509167 1.00081)
(-0.00222281 -0.000515917 1.00411)
(-0.00203221 -0.000523458 0.995382)
(0.00199987 -0.000477839 0.995491)
(0.00214932 -0.000480376 1.00416)
(0.000419583 -0.000483269 1.00087)
(0.000394011 -0.000486599 1.00085)
(8.61671e-05 -0.000491272 1.00078)
(-0.000218862 -0.000496631 1.00077)
(-0.00051745 -0.000502362 1.00082)
(-0.000522757 -0.00050835 1.00083)
(-0.00222951 -0.000512952 1.00413)
(-0.00203473 -0.000519699 0.995393)
(0.00200642 -0.00218713 0.998779)
(0.0021513 -0.00219464 1.00746)
(0.000416802 -0.00219316 1.00417)
(0.000390705 -0.00219696 1.00415)
(8.21892e-05 -0.0022013 1.00408)
(-0.000223118 -0.00220617 1.00408)
(-0.000521808 -0.00221125 1.00413)
(-0.000526569 -0.00221589 1.00414)
(-0.00223831 -0.00222423 1.00745)
(-0.00204509 -0.00222252 0.998698)
(0.00199333 -0.00200902 0.990098)
(0.00214408 -0.00202235 0.998754)
(0.000414255 -0.00201622 0.995473)
(0.000385837 -0.00201971 0.995444)
(7.75291e-05 -0.00202193 0.995374)
(-0.000227579 -0.0020246 0.995361)
(-0.000525434 -0.00202748 0.995406)
(-0.000531225 -0.00202863 0.99541)
(-0.00223591 -0.00203847 0.998706)
(-0.00203359 -0.00202701 0.989967)
(0.00235682 0.00235804 0.984844)
(0.00236877 0.00237673 0.997825)
(0.000406807 0.00236163 0.993243)
(0.000571884 0.00236215 0.993226)
(0.000163091 0.00235744 0.993116)
(-0.000163844 0.00235208 0.993127)
(-0.000570838 0.00234622 0.99326)
(-0.000399453 0.00233577 0.993298)
(-0.00233714 0.00234248 0.997849)
(-0.0023318 0.00231839 0.985009)
(0.00237568 0.00235981 0.997808)
(0.00237463 0.0023656 1.01082)
(0.000402325 0.00235344 1.00621)
(0.000567596 0.00234833 1.00619)
(0.000153923 0.00233951 1.00606)
(-0.000176566 0.00232835 1.00605)
(-0.000587595 0.00231515 1.00616)
(-0.000413828 0.00229957 1.00617)
(-0.00235753 0.00229428 1.01073)
(-0.00235629 0.00227355 0.997826)
(0.00236087 0.000388206 0.993232)
(0.00236276 0.000384551 1.00621)
(0.000397141 0.000379911 1.00162)
(0.000559288 0.000371696 1.0016)
(0.000143511 0.00036164 1.00148)
(-0.000189261 0.00034882 1.00148)
(-0.000601502 0.000333648 1.00159)
(-0.000428662 0.000318207 1.0016)
(-0.00236459 0.000302826 1.00616)
(-0.00235116 0.000285822 0.993257)
(0.00236225 0.000551882 0.993215)
(0.00235906 0.000549968 1.0062)
(0.000389459 0.000543729 1.0016)
(0.000549186 0.000534777 1.00158)
(0.000130775 0.00052318 1.00146)
(-0.000204633 0.000508585 1.00145)
(-0.00061834 0.000491541 1.00156)
(-0.000445139 0.000473752 1.00157)
(-0.00238377 0.00045754 1.00613)
(-0.00236421 0.000435777 0.993186)
(0.00235939 0.00013829 0.993101)
(0.00235362 0.000133808 1.00607)
(0.000382052 0.000127781 1.00148)
(0.000538723 0.000118994 1.00146)
(0.000117226 0.000107256 1.00133)
(-0.000221023 9.26022e-05 1.00132)
(-0.000636456 7.56697e-05 1.00143)
(-0.000463178 5.78689e-05 1.00143)
(-0.00240269 4.1748e-05 1.006)
(-0.00237393 2.22065e-05 0.993016)
(0.00235717 -0.000192272 0.993104)
(0.00234846 -0.00019757 1.00607)
(0.000374851 -0.000203102 1.00148)
(0.000528704 -0.000211073 1.00146)
(0.000104359 -0.000221811 1.00133)
(-0.000236296 -0.000234929 1.00131)
(-0.000653141 -0.000249761 1.00141)
(-0.000479563 -0.000265286 1.00141)
(-0.00242034 -0.0002791 1.00599)
(-0.00238364 -0.000295592 0.992969)
(0.00235582 -0.000601376 0.993224)
(0.00234407 -0.000608366 1.00618)
(0.00036852 -0.00061264 1.0016)
(0.000520056 -0.000618919 1.00157)
(9.33848e-05 -0.000627725 1.00144)
(-0.000248999 -0.000638309 1.00143)
(-0.0006668 -0.000650044 1.00152)
(-0.000492655 -0.000662351 1.00151)
(-0.00243508 -0.000673351 1.0061)
(-0.00239253 -0.00068427 0.993052)
(0.00235077 -0.000434016 0.993247)
(0.00233924 -0.000437857 1.00619)
(0.000364326 -0.000441965 1.00161)
(0.000513662 -0.000446301 1.00159)
(8.49911e-05 -0.000452985 1.00146)
(-0.000258655 -0.000460727 1.00144)
(-0.000677188 -0.000468911 1.00154)
(-0.000502996 -0.000478052 1.00153)
(-0.0024449 -0.000485045 1.00612)
(-0.00239544 -0.000493648 0.993052)
(0.00236265 -0.00238175 0.997824)
(0.0023444 -0.0023926 1.01079)
(0.00036033 -0.00238798 1.0062)
(0.000509351 -0.00239361 1.00618)
(7.93513e-05 -0.00239925 1.00606)
(-0.000264794 -0.00240595 1.00605)
(-0.000683906 -0.00241328 1.00615)
(-0.00050864 -0.00241923 1.00614)
(-0.00245898 -0.00243245 1.01076)
(-0.00241189 -0.00242926 0.997661)
(0.00234258 -0.00235701 0.984859)
(0.00233387 -0.0023773 0.997783)
(0.00035637 -0.00236585 0.993213)
(0.000501734 -0.00237156 0.993179)
(7.30011e-05 -0.00237395 0.993043)
(-0.000270848 -0.00237746 0.993018)
(-0.000687742 -0.002382 0.993106)
(-0.000513348 -0.00238227 0.993093)
(-0.00245455 -0.00239783 0.997681)
(-0.00239437 -0.00238042 0.984597)
(0.00262349 0.0026309 0.979074)
(0.00249396 0.00265757 0.996605)
(0.000382667 0.00263582 0.990756)
(0.000691813 0.00263778 0.990735)
(0.000163084 0.00263071 0.990591)
(-0.000140623 0.00262317 0.990613)
(-0.000667922 0.00261517 0.990803)
(-0.000348461 0.00259828 0.990867)
(-0.00242516 0.00260621 0.996661)
(-0.0025775 0.00257219 0.979406)
(0.0026504 0.00248695 0.996589)
(0.00250291 0.00249584 1.01417)
(0.000377703 0.00247809 1.00827)
(0.000687505 0.00247177 1.00824)
(0.000150646 0.00245895 1.00807)
(-0.000158845 0.00244261 1.00806)
(-0.000694055 0.00242283 1.00822)
(-0.000372751 0.00239714 1.00822)
(-0.0024562 0.00238556 1.01403)
(-0.00261204 0.00235356 0.99667)
(0.00262905 0.000358596 0.990744)
(0.00248558 0.000354853 1.00827)
(0.000370637 0.000348663 1.00241)
(0.000675073 0.000336924 1.00238)
(0.000135004 0.000322581 1.00222)
(-0.000178437 0.00030341 1.00222)
(-0.000716264 0.000279559 1.00237)
(-0.000398682 0.000254236 1.00239)
(-0.00247051 0.000226708 1.00818)
(-0.00260622 0.0001964 0.990826)
(0.00263227 0.000666667 0.990723)
(0.00248139 0.000665943 1.00825)
(0.00035975 0.00065686 1.00238)
(0.000661015 0.000644656 1.00236)
(0.000116531 0.000628312 1.00219)
(-0.000201763 0.000606851 1.00218)
(-0.00074316 0.000580608 1.00233)
(-0.000426435 0.000551813 1.00233)
(-0.00250385 0.000523991 1.00814)
(-0.00262847 0.000486134 0.990704)
(0.00262801 0.000128264 0.990569)
(0.00247384 0.000123186 1.00809)
(0.000349683 0.000114791 1.00222)
(0.000646484 0.000102815 1.00219)
(9.70044e-05 8.63509e-05 1.00202)
(-0.00022638 6.50091e-05 1.00201)
(-0.00077152 3.93484e-05 1.00214)
(-0.000456485 1.12824e-05 1.00214)
(-0.00253576 -1.58989e-05 1.00796)
(-0.00264438 -4.92535e-05 0.990443)
(0.00262545 -0.000183698 0.990574)
(0.00246725 -0.000189835 1.00808)
(0.000339852 -0.00019724 1.00222)
(0.000632644 -0.000208012 1.00219)
(7.86627e-05 -0.000222903 1.00201)
(-0.000248918 -0.000241662 1.00199)
(-0.000797 -0.000263536 1.00212)
(-0.000482769 -0.000287124 1.0021)
(-0.00256498 -0.000309609 1.00794)
(-0.00266048 -0.000336937 0.990356)
(0.00262486 -0.000716626 0.990738)
(0.00246228 -0.000726097 1.00823)
(0.000331213 -0.000731329 1.00237)
(0.00062086 -0.000739699 1.00234)
(6.33426e-05 -0.000751675 1.00217)
(-0.000267094 -0.000766372 1.00214)
(-0.000816957 -0.000782872 1.00227)
(-0.000502651 -0.000800562 1.00224)
(-0.00258854 -0.00081743 1.0081)
(-0.00267508 -0.000833448 0.990451)
(0.00261742 -0.000408705 0.99077)
(0.0024556 -0.000413614 1.00824)
(0.000326009 -0.000419414 1.00239)
(0.000612333 -0.00042476 1.00236)
(5.19813e-05 -0.000433799 1.00218)
(-0.000280246 -0.000444225 1.00216)
(-0.000831228 -0.000455239 1.00228)
(-0.000517343 -0.00046764 1.00226)
(-0.0026017 -0.000476253 1.00812)
(-0.00267833 -0.000489229 0.990445)
(0.00263528 -0.00250267 0.996607)
(0.00246424 -0.00251667 1.01412)
(0.000320385 -0.00250895 1.00825)
(0.000607138 -0.00251666 1.00823)
(4.46259e-05 -0.00252335 1.00806)
(-0.000288572 -0.0025321 1.00804)
(-0.00084026 -0.00254203 1.00818)
(-0.000523392 -0.00254845 1.00816)
(-0.00262266 -0.00256788 1.01407)
(-0.00270352 -0.00256432 0.996333)
(0.00260771 -0.00261932 0.979111)
(0.00245022 -0.00264707 0.996559)
(0.000314841 -0.00262997 0.990727)
(0.000596415 -0.00263831 0.990678)
(3.63941e-05 -0.00264038 0.990491)
(-0.000296277 -0.00264491 0.990451)
(-0.000843639 -0.00265133 0.990561)
(-0.000529782 -0.00265016 0.990532)
(-0.00261694 -0.0026736 0.996386)
(-0.00267855 -0.00264871 0.978677)
(0.0028274 0.00284403 0.973168)
(0.00257364 0.00287906 0.995358)
(0.000375943 0.00285033 0.988219)
(0.000798488 0.00285388 0.988173)
(0.000151762 0.00284366 0.988014)
(-9.12746e-05 0.00283306 0.988052)
(-0.000735588 0.00282142 0.988293)
(-0.000296245 0.00279491 0.988416)
(-0.0024382 0.00280073 0.995462)
(-0.0027403 0.00275172 0.973794)
(0.0028628 0.00257048 0.995353)
(0.00258576 0.00258253 1.01763)
(0.000370469 0.00255884 1.0104)
(0.000793971 0.00255085 1.01035)
(0.000134699 0.00253255 1.01015)
(-0.000117758 0.00250875 1.01014)
(-0.000776308 0.00247833 1.01032)
(-0.000337274 0.00243577 1.01035)
(-0.00248864 0.0024104 1.0174)
(-0.00279082 0.00235559 0.995563)
(0.00283457 0.000345481 0.988212)
(0.00256263 0.000341783 1.0104)
(0.000360975 0.000333647 1.00323)
(0.000775941 0.000317396 1.00318)
(0.000111609 0.000297191 1.00299)
(-0.000148106 0.000268722 1.00299)
(-0.000812784 0.000231063 1.00318)
(-0.000382345 0.000188248 1.00322)
(-0.00252069 0.000139553 1.01026)
(-0.00279095 8.20144e-05 0.988398)
(0.00283995 0.000766927 0.988165)
(0.0025578 0.000767802 1.01036)
(0.000346056 0.000755038 1.00318)
(0.00075673 0.000738778 1.00313)
(8.49994e-05 0.000715931 1.00294)
(-0.000183496 0.000684562 1.00293)
(-0.000856341 0.000644091 1.0031)
(-0.000430178 0.000596465 1.00312)
(-0.0025802 0.000547734 1.01019)
(-0.00282915 0.000479231 0.988166)
(0.00283395 0.000102534 0.987989)
(0.00254762 9.69317e-05 1.01016)
(0.000332638 8.55454e-05 1.003)
(0.000736765 6.94903e-05 1.00294)
(5.70489e-05 4.66351e-05 1.00274)
(-0.000220362 1.57617e-05 1.00272)
(-0.000901229 -2.30536e-05 1.00288)
(-0.000481018 -6.8121e-05 1.00288)
(-0.00263649 -0.000114847 1.00996)
(-0.00285786 -0.000174493 0.987801)
(0.00283112 -0.000157404 0.987997)
(0.00253937 -0.000164082 1.01015)
(0.000319464 -0.000173919 1.00299)
(0.000717932 -0.000188155 1.00293)
(3.11602e-05 -0.000208493 1.00273)
(-0.000253443 -0.000235018 1.0027)
(-0.000940366 -0.000267118 1.00284)
(-0.00052398 -0.000303347 1.00283)
(-0.00268641 -0.000340285 1.00993)
(-0.00288547 -0.000387145 0.987649)
(0.00283183 -0.000815173 0.988188)
(0.00253398 -0.000827153 1.01033)
(0.000307917 -0.000833506 1.00318)
(0.000702236 -0.000844483 1.00311)
(1.01473e-05 -0.0008604 1.00291)
(-0.000279138 -0.000880426 1.00287)
(-0.000969488 -0.000903438 1.00301)
(-0.00055428 -0.000928359 1.00298)
(-0.00272414 -0.000953651 1.01012)
(-0.00290895 -0.00097952 0.987728)
(0.00282185 -0.000399429 0.988253)
(0.00252535 -0.000405634 1.01037)
(0.000301493 -0.000413745 1.00322)
(0.000691064 -0.000420363 1.00316)
(-4.83186e-06 -0.000432408 1.00295)
(-0.000296735 -0.000446287 1.00291)
(-0.000988362 -0.000460452 1.00305)
(-0.000574028 -0.000476365 1.00302)
(-0.00274274 -0.00048735 1.01018)
(-0.00291407 -0.000504137 0.987735)
(0.00284572 -0.00257826 0.995372)
(0.00253695 -0.00259498 1.01755)
(0.00029361 -0.00258446 1.01037)
(0.00068477 -0.00259459 1.01032)
(-1.44958e-05 -0.00260252 1.01012)
(-0.000307383 -0.00261369 1.0101)
(-0.000999517 -0.00262652 1.01025)
(-0.000580558 -0.00263293 1.01024)
(-0.00276854 -0.00265603 1.01748)
(-0.00294552 -0.00265094 0.994938)
(0.00281102 -0.00281958 0.973244)
(0.00252005 -0.00285441 0.995326)
(0.000286229 -0.0028314 0.988205)
(0.000670311 -0.0028427 0.988121)
(-2.48533e-05 -0.00284422 0.987897)
(-0.000317176 -0.00284977 0.98784)
(-0.0010023 -0.00285863 0.987952)
(-0.000585334 -0.00285551 0.987923)
(-0.00275981 -0.00288398 0.995073)
(-0.00291407 -0.00285249 0.972572)
(0.00297423 0.00300415 0.967208)
(0.00260761 0.00304784 0.994102)
(0.00037219 0.00301186 0.985672)
(0.000890387 0.0030169 0.985584)
(0.000138042 0.00300277 0.985425)
(-1.68724e-05 0.00298782 0.985487)
(-0.000763761 0.0029705 0.985779)
(-0.000211695 0.00292952 0.986)
(-0.00234692 0.0029246 0.994283)
(-0.00281533 0.00285481 0.968337)
(0.00301853 0.00261107 0.994124)
(0.00262313 0.00262647 1.02116)
(0.000366241 0.0025963 1.01259)
(0.000885334 0.00258579 1.0125)
(0.000114491 0.00256028 1.01229)
(-5.53362e-05 0.00252583 1.01228)
(-0.000826744 0.00247925 1.01248)
(-0.000283797 0.0024098 1.01254)
(-0.00243209 0.0023529 1.02081)
(-0.00288713 0.0022541 0.994579)
(0.00298319 0.000334266 0.985681)
(0.00259368 0.000330899 1.01258)
(0.00035331 0.000320023 1.00411)
(0.00085979 0.000297982 1.00401)
(8.0979e-05 0.000269757 1.00381)
(-0.000101796 0.000227952 1.00382)
(-0.000885966 0.00016944 1.00403)
(-0.000362799 9.8021e-05 1.00412)
(-0.00250577 1.00031e-05 1.01237)
(-0.00290665 -0.000108199 0.986045)
(0.00299084 0.0008505 0.985591)
(0.00258782 0.000853423 1.0125)
(0.00033331 0.000835975 1.00402)
(0.000833786 0.00081454 1.00392)
(4.29594e-05 0.000782871 1.00371)
(-0.000154881 0.000737414 1.00371)
(-0.000955619 0.000675628 1.00389)
(-0.000445597 0.00059805 1.00395)
(-0.00261773 0.000512175 1.01224)
(-0.00297774 0.000381064 0.985613)
(0.00298289 6.75448e-05 0.985407)
(0.00257454 6.16109e-05 1.01229)
(0.000315605 4.65148e-05 1.00381)
(0.000806576 2.52267e-05 1.00371)
(3.2988e-06 -6.17265e-06 1.0035)
(-0.000209727 -5.04314e-05 1.00347)
(-0.00102587 -0.000108852 1.00364)
(-0.000530413 -0.000180201 1.00366)
(-0.00271931 -0.000259672 1.01198)
(-0.00303229 -0.000369457 0.985071)
(0.00297994 -0.000119145 0.985419)
(0.00256441 -0.000125946 1.01228)
(0.000298225 -0.000138901 1.00381)
(0.000781271 -0.000157366 1.00371)
(-3.28731e-05 -0.000184754 1.00348)
(-0.000257968 -0.000221932 1.00345)
(-0.00108553 -0.000268686 1.00359)
(-0.000599785 -0.000323608 1.00358)
(-0.00280511 -0.000383024 1.01194)
(-0.00308206 -0.000465434 0.984793)
(0.00298246 -0.000893719 0.985626)
(0.00255871 -0.000908103 1.01247)
(0.000283114 -0.000915764 1.00401)
(0.000760786 -0.000929841 1.0039)
(-6.13349e-05 -0.000950535 1.00368)
(-0.000293908 -0.000977392 1.00363)
(-0.00112739 -0.00100877 1.00376)
(-0.000644999 -0.00104256 1.00374)
(-0.00286547 -0.00107906 1.01215)
(-0.003121 -0.00112061 0.984817)
(0.00297008 -0.000390605 0.985741)
(0.00254824 -0.000397926 1.01255)
(0.000275283 -0.000408585 1.0041)
(0.000746511 -0.000416627 1.00399)
(-8.05343e-05 -0.000432151 1.00376)
(-0.000316619 -0.00044978 1.00372)
(-0.00115078 -0.000466836 1.00385)
(-0.000669615 -0.000484843 1.00383)
(-0.00288978 -0.000493677 1.01227)
(-0.00312841 -0.000513902 0.984866)
(0.00300037 -0.00260756 0.994139)
(0.00256304 -0.00262653 1.02104)
(0.000264979 -0.00261331 1.01254)
(0.000739174 -0.00262577 1.01246)
(-9.25134e-05 -0.00263481 1.01224)
(-0.000328893 -0.00264847 1.01221)
(-0.00116239 -0.00266372 1.01237)
(-0.000670465 -0.00266757 1.01237)
(-0.00291511 -0.00269037 1.02095)
(-0.00316616 -0.00268402 0.993413)
(0.00295867 -0.0029631 0.967341)
(0.00254334 -0.00300488 0.994107)
(0.00025544 -0.00297583 0.985696)
(0.000720731 -0.00299003 0.985557)
(-0.000105229 -0.00299061 0.985308)
(-0.000341082 -0.00299733 0.985233)
(-0.00116312 -0.00300868 0.985331)
(-0.000672927 -0.00300219 0.985313)
(-0.00290519 -0.0030365 0.993773)
(-0.00312879 -0.00299871 0.966297)
(0.00307473 0.00312394 0.96118)
(0.00260831 0.00317659 0.992792)
(0.000370354 0.00313347 0.983099)
(0.000969813 0.00313994 0.982959)
(0.00012894 0.00312147 0.982812)
(8.51591e-05 0.00310121 0.982904)
(-0.000739387 0.0030754 0.983256)
(-6.9822e-05 0.00301217 0.983614)
(-0.00210979 0.00298289 0.993048)
(-0.00275212 0.00286695 0.963232)
(0.00312843 0.00262367 0.992866)
(0.00262775 0.00264279 1.02468)
(0.000364292 0.00260593 1.0148)
(0.000964269 0.00259224 1.01466)
(9.75375e-05 0.00255811 1.01443)
(3.04755e-05 0.00250995 1.01443)
(-0.000836296 0.00243967 1.01464)
(-0.000195401 0.00232645 1.01475)
(-0.00227135 0.0022057 1.02411)
(-0.00286483 0.00200347 0.993783)
(0.003086 0.000325391 0.983139)
(0.00259173 0.000322844 1.01477)
(0.000346996 0.00030851 1.00501)
(0.00092945 0.000279623 1.00487)
(5.05176e-05 0.000241194 1.00466)
(-3.89239e-05 0.000181453 1.00468)
(-0.000931963 9.23967e-05 1.00491)
(-0.000337095 -2.63125e-05 1.00506)
(-0.00243847 -0.000191786 1.01441)
(-0.00294815 -0.000441121 0.983739)
(0.00309603 0.000920516 0.982999)
(0.00258455 0.000926192 1.01465)
(0.000321082 0.000903249 1.00488)
(0.000895079 0.00087571 1.00473)
(-2.59891e-06 0.000832788 1.00451)
(-0.000117029 0.000768185 1.00451)
(-0.00104201 0.000675215 1.00471)
(-0.000483549 0.000548754 1.00481)
(-0.00265659 0.000388141 1.01425)
(-0.00308975 0.00011344 0.982985)
(0.00308625 2.89135e-05 0.982817)
(0.00256803 2.32121e-05 1.01442)
(0.000298296 3.86067e-06 1.00467)
(0.000858822 -2.3635e-05 1.00451)
(-5.78528e-05 -6.58565e-05 1.00429)
(-0.000197587 -0.000128308 1.00426)
(-0.00115219 -0.000215537 1.00443)
(-0.000631312 -0.000330149 1.00447)
(-0.00286642 -0.000475597 1.014)
(-0.0032059 -0.00071111 0.982246)
(0.00308351 -7.24988e-05 0.982834)
(0.00255607 -7.86063e-05 1.01442)
(0.000276013 -9.52248e-05 1.00467)
(0.000825605 -0.00011846 1.00451)
(-0.000107534 -0.000154572 1.00428)
(-0.000267326 -0.00020582 1.00423)
(-0.00124394 -0.000273299 1.00437)
(-0.000749076 -0.00035793 1.00437)
(-0.00303201 -0.000459039 1.01397)
(-0.0033021 -0.000619688 0.981765)
(0.00308846 -0.000953751 0.983049)
(0.00255041 -0.000969952 1.01462)
(0.000256895 -0.000978984 1.00488)
(0.000799565 -0.000996427 1.00472)
(-0.000145316 -0.00102261 1.00448)
(-0.000316709 -0.00105779 1.00442)
(-0.001304 -0.00109956 1.00454)
(-0.000817758 -0.00114491 1.00452)
(-0.0031304 -0.00119282 1.01422)
(-0.00336858 -0.00125521 0.981698)
(0.00307419 -0.000381468 0.983222)
(0.00253861 -0.000389792 1.01474)
(0.000247601 -0.00040323 1.00502)
(0.000781964 -0.000412791 1.00486)
(-0.000169099 -0.000432187 1.00462)
(-0.000344927 -0.000453964 1.00456)
(-0.00133114 -0.000473188 1.00468)
(-0.000841439 -0.000488625 1.00467)
(-0.00314806 -0.000482475 1.01442)
(-0.00337215 -0.000481747 0.981792)
(0.00311083 -0.00260501 0.992872)
(0.00255627 -0.00262553 1.02453)
(0.000234641 -0.00260987 1.01472)
(0.000773528 -0.00262453 1.0146)
(-0.000183689 -0.00263497 1.01437)
(-0.000357999 -0.00265156 1.01434)
(-0.00133839 -0.00266842 1.01451)
(-0.000824095 -0.00266396 1.01452)
(-0.00314557 -0.00267034 1.02448)
(-0.00339629 -0.00262252 0.9917)
(0.00306285 -0.00306257 0.961389)
(0.00253448 -0.00311057 0.992863)
(0.000222659 -0.00307548 0.983186)
(0.000750526 -0.0030924 0.982986)
(-0.000199541 -0.00309204 0.982721)
(-0.000373239 -0.00310024 0.982626)
(-0.00133537 -0.00311412 0.982701)
(-0.0008147 -0.00310235 0.982696)
(-0.00310563 -0.00313413 0.992503)
(-0.00333273 -0.00306754 0.959848)
(0.00313931 0.00321635 0.955104)
(0.00258913 0.00327831 0.991415)
(0.000373135 0.00322847 0.980492)
(0.00104002 0.00323628 0.980293)
(0.000129669 0.00321327 0.980163)
(0.000217568 0.00318704 0.980288)
(-0.000648546 0.00315039 0.980712)
(0.000172105 0.00305406 0.981243)
(-0.00159382 0.00295805 0.991677)
(-0.00244478 0.00274306 0.95882)
(0.0032031 0.00262488 0.991578)
(0.00261323 0.0026482 1.02818)
(0.000367382 0.00260462 1.017)
(0.00103417 0.00258694 1.01681)
(8.94345e-05 0.00254268 1.01657)
(0.000143048 0.00247738 1.01656)
(-0.000794099 0.00237605 1.0168)
(-6.20433e-05 0.0021941 1.01697)
(-0.00193311 0.0019381 1.02722)
(-0.00269381 0.00144842 0.993471)
(0.00315392 0.000323667 0.980591)
(0.00257057 0.00032252 1.01694)
(0.000344537 0.000303925 1.00593)
(0.000987852 0.000266872 1.00573)
(2.48499e-05 0.000215318 1.00552)
(4.29547e-05 0.000131786 1.00555)
(-0.000945197 1.10166e-06 1.00582)
(-0.000311458 -0.000192664 1.00604)
(-0.00235049 -0.000487781 1.01636)
(-0.00290504 -0.00107064 0.981688)
(0.00316647 0.000982194 0.980397)
(0.00256185 0.00099158 1.01678)
(0.000311769 0.000962416 1.00575)
(0.000943044 0.000927728 1.00554)
(-4.8e-05 0.000870622 1.00533)
(-6.92085e-05 0.000780741 1.00533)
(-0.00111497 0.000644453 1.00555)
(-0.000557008 0.000445288 1.00571)
(-0.00276141 0.000170651 1.01625)
(-0.00322504 -0.000323343 0.980159)
(0.00315529 -8.54448e-06 0.980225)
(0.0025423 -1.29626e-05 1.01655)
(0.000283135 -3.6947e-05 1.00554)
(0.000895814 -7.14394e-05 1.00533)
(-0.000123383 -0.000126794 1.0051)
(-0.000184893 -0.000213022 1.00508)
(-0.00128176 -0.000340086 1.00526)
(-0.000796471 -0.00051866 1.00534)
(-0.00309776 -0.00076589 1.01601)
(-0.00345879 -0.00117568 0.978742)
(0.00315339 -2.03861e-05 0.980247)
(0.00252894 -2.44549e-05 1.01655)
(0.00025554 -4.50251e-05 1.00555)