/*--------------------------------*- C++ -*----------------------------------*\
  =========                 |
  \\      /  F ield         | OpenFOAM: The Open Source CFD Toolbox
   \\    /   O peration     | Website:  https://openfoam.org
    \\  /    A nd           | Version:  6
     \\/     M anipulation  |
\*---------------------------------------------------------------------------*/
FoamFile
{
    version     2.0;
    format      ascii;
    class       volScalarField;
    location    "0.215";
    object      T;
}
// * * * * * * * * * * * * * * * * * * * * * * * * * * * * * * * * * * * * * //

dimensions      [0 0 0 1 0 0 0];

internalField   nonuniform List<scalar> 
7000
(
103.286
103.286
103.285
103.285
103.284
103.283
103.282
103.281
103.28
103.279
103.286
103.286
103.285
103.284
103.284
103.283
103.282
103.281
103.28
103.279
103.286
103.286
103.285
103.284
103.284
103.283
103.282
103.281
103.28
103.279
103.286
103.286
103.285
103.284
103.284
103.283
103.282
103.281
103.28
103.279
103.286
103.286
103.285
103.284
103.284
103.283
103.282
103.281
103.28
103.279
103.286
103.286
103.285
103.284
103.284
103.283
103.282
103.281
103.28
103.279
103.286
103.286
103.285
103.284
103.284
103.283
103.282
103.281
103.28
103.279
103.286
103.286
103.285
103.284
103.284
103.283
103.282
103.281
103.28
103.279
103.286
103.286
103.285
103.284
103.284
103.283
103.282
103.281
103.28
103.279
103.286
103.286
103.285
103.284
103.284
103.283
103.282
103.281
103.28
103.279
90.0145
90.0137
90.0124
90.0103
90.0076
90.0044
90.0009
89.9975
89.9948
89.9933
90.0144
90.0137
90.0123
90.0102
90.0075
90.0043
90.0008
89.9974
89.9948
89.9933
90.0143
90.0136
90.0122
90.0102
90.0075
90.0042
90.0007
89.9974
89.9947
89.9932
90.0143
90.0136
90.0122
90.0101
90.0074
90.0042
90.0007
89.9974
89.9947
89.9932
90.0143
90.0135
90.0122
90.0101
90.0074
90.0042
90.0007
89.9973
89.9947
89.9932
90.0143
90.0135
90.0122
90.0101
90.0074
90.0042
90.0007
89.9973
89.9947
89.9932
90.0143
90.0135
90.0122
90.0101
90.0074
90.0042
90.0007
89.9974
89.9947
89.9932
90.0143
90.0136
90.0122
90.0101
90.0075
90.0042
90.0007
89.9974
89.9947
89.9933
90.0143
90.0136
90.0122
90.0102
90.0075
90.0043
90.0008
89.9974
89.9948
89.9933
90.0144
90.0137
90.0123
90.0102
90.0075
90.0043
90.0008
89.9975
89.9948
89.9934
77.2031
77.2017
77.1991
77.1952
77.1899
77.1835
77.1765
77.1696
77.1641
77.1609
77.2029
77.2016
77.199
77.195
77.1898
77.1834
77.1764
77.1695
77.164
77.1609
77.2028
77.2015
77.1989
77.195
77.1897
77.1833
77.1763
77.1695
77.1639
77.1608
77.2028
77.2014
77.1988
77.1949
77.1897
77.1833
77.1763
77.1694
77.1638
77.1607
77.2028
77.2014
77.1988
77.1949
77.1896
77.1833
77.1762
77.1694
77.1638
77.1607
77.2027
77.2014
77.1988
77.1949
77.1896
77.1833
77.1762
77.1694
77.1638
77.1607
77.2028
77.2014
77.1988
77.1949
77.1897
77.1833
77.1763
77.1694
77.1639
77.1608
77.2028
77.2015
77.1989
77.1949
77.1897
77.1833
77.1763
77.1695
77.1639
77.1608
77.2029
77.2015
77.1989
77.195
77.1898
77.1834
77.1764
77.1695
77.164
77.1609
77.2029
77.2016
77.199
77.1951
77.1899
77.1835
77.1765
77.1696
77.1641
77.161
65.1227
65.1206
65.1162
65.1096
65.1006
65.0894
65.0768
65.0641
65.0535
65.0475
65.1226
65.1204
65.1161
65.1095
65.1005
65.0893
65.0766
65.0639
65.0534
65.0474
65.1225
65.1203
65.116
65.1094
65.1004
65.0892
65.0765
65.0638
65.0533
65.0473
65.1224
65.1202
65.1159
65.1093
65.1003
65.0891
65.0764
65.0638
65.0532
65.0472
65.1224
65.1202
65.1159
65.1093
65.1003
65.0891
65.0764
65.0637
65.0532
65.0472
65.1224
65.1202
65.1159
65.1093
65.1003
65.0891
65.0764
65.0638
65.0532
65.0472
65.1224
65.1202
65.1159
65.1093
65.1003
65.0891
65.0765
65.0638
65.0533
65.0473
65.1224
65.1203
65.116
65.1094
65.1004
65.0892
65.0765
65.0639
65.0533
65.0473
65.1225
65.1203
65.116
65.1095
65.1005
65.0893
65.0766
65.064
65.0534
65.0474
65.1226
65.1205
65.1162
65.1096
65.1006
65.0894
65.0768
65.0641
65.0536
65.0476
53.9958
53.9925
53.9858
53.9753
53.9607
53.942
53.9201
53.8974
53.8779
53.8664
53.9957
53.9923
53.9856
53.9752
53.9605
53.9418
53.9199
53.8973
53.8778
53.8663
53.9955
53.9922
53.9855
53.975
53.9604
53.9417
53.9198
53.8971
53.8777
53.8662
53.9955
53.9921
53.9854
53.975
53.9603
53.9416
53.9197
53.8971
53.8776
53.8661
53.9954
53.9921
53.9854
53.9749
53.9603
53.9416
53.9197
53.897
53.8776
53.8661
53.9954
53.9921
53.9854
53.9749
53.9603
53.9416
53.9197
53.8971
53.8776
53.8661
53.9954
53.9921
53.9854
53.975
53.9604
53.9416
53.9198
53.8971
53.8776
53.8661
53.9955
53.9922
53.9855
53.975
53.9604
53.9417
53.9198
53.8972
53.8777
53.8662
53.9956
53.9923
53.9856
53.9752
53.9606
53.9418
53.92
53.8973
53.8778
53.8664
53.9957
53.9924
53.9858
53.9753
53.9607
53.942
53.9201
53.8975
53.878
53.8665
43.9841
43.9793
43.9694
43.9535
43.9306
43.9004
43.8635
43.8236
43.7876
43.7655
43.9839
43.9791
43.9692
43.9533
43.9305
43.9002
43.8634
43.8235
43.7875
43.7653
43.9838
43.979
43.9691
43.9532
43.9303
43.9001
43.8632
43.8233
43.7874
43.7653
43.9837
43.9789
43.969
43.9531
43.9302
43.9
43.8632
43.8233
43.7873
43.7652
43.9837
43.9789
43.9689
43.953
43.9302
43.8999
43.8631
43.8232
43.7873
43.7652
43.9837
43.9789
43.9689
43.953
43.9302
43.8999
43.8631
43.8232
43.7873
43.7652
43.9837
43.9789
43.969
43.9531
43.9303
43.9
43.8632
43.8233
43.7874
43.7652
43.9838
43.979
43.9691
43.9532
43.9303
43.9001
43.8633
43.8234
43.7874
43.7653
43.9839
43.9791
43.9692
43.9533
43.9305
43.9002
43.8634
43.8235
43.7876
43.7655
43.984
43.9792
43.9693
43.9535
43.9307
43.9004
43.8636
43.8237
43.7878
43.7656
35.1837
35.177
35.1629
35.1398
35.1055
35.0582
34.9979
34.9285
34.8618
34.818
35.1835
35.1768
35.1627
35.1396
35.1054
35.0581
34.9977
34.9284
34.8617
34.8178
35.1834
35.1767
35.1626
35.1395
35.1052
35.0579
34.9976
34.9282
34.8616
34.8177
35.1833
35.1766
35.1625
35.1394
35.1051
35.0579
34.9975
34.9282
34.8615
34.8177
35.1833
35.1766
35.1625
35.1394
35.1051
35.0578
34.9975
34.9282
34.8615
34.8177
35.1833
35.1766
35.1625
35.1394
35.1051
35.0578
34.9975
34.9282
34.8615
34.8177
35.1833
35.1766
35.1625
35.1394
35.1052
35.0579
34.9975
34.9282
34.8616
34.8177
35.1834
35.1767
35.1626
35.1395
35.1053
35.058
34.9976
34.9283
34.8617
34.8178
35.1835
35.1768
35.1628
35.1397
35.1054
35.0581
34.9978
34.9285
34.8618
34.818
35.1836
35.177
35.1629
35.1398
35.1056
35.0583
34.998
34.9286
34.862
34.8182
27.6261
27.6173
27.5983
27.5663
27.5172
27.4464
27.3506
27.2322
27.1074
27.0163
27.626
27.6171
27.5981
27.5661
27.517
27.4462
27.3504
27.232
27.1073
27.0162
27.6258
27.617
27.598
27.566
27.5169
27.4461
27.3503
27.2319
27.1072
27.0161
27.6258
27.6169
27.5979
27.5659
27.5168
27.446
27.3502
27.2319
27.1071
27.016
27.6257
27.6168
27.5978
27.5659
27.5168
27.446
27.3502
27.2318
27.1071
27.016
27.6257
27.6168
27.5979
27.5659
27.5168
27.446
27.3502
27.2319
27.1071
27.016
27.6258
27.6169
27.5979
27.5659
27.5169
27.4461
27.3503
27.2319
27.1072
27.0161
27.6259
27.617
27.598
27.566
27.5169
27.4462
27.3504
27.232
27.1073
27.0162
27.626
27.6171
27.5981
27.5661
27.5171
27.4463
27.3505
27.2321
27.1074
27.0163
27.6261
27.6173
27.5983
27.5663
27.5173
27.4465
27.3507
27.2323
27.1076
27.0165
21.2851
21.274
21.2497
21.208
21.1417
21.0415
20.8967
20.7006
20.466
20.2622
21.2849
21.2738
21.2496
21.2078
21.1416
21.0413
20.8965
20.7005
20.4659
20.2621
21.2848
21.2737
21.2495
21.2077
21.1415
21.0412
20.8964
20.7004
20.4658
20.262
21.2847
21.2736
21.2494
21.2077
21.1414
21.0412
20.8964
20.7004
20.4658
20.262
21.2847
21.2736
21.2494
21.2076
21.1414
21.0411
20.8964
20.7003
20.4657
20.2619
21.2847
21.2736
21.2494
21.2076
21.1414
21.0412
20.8964
20.7004
20.4658
20.262
21.2847
21.2736
21.2494
21.2077
21.1414
21.0412
20.8964
20.7004
20.4658
20.262
21.2848
21.2737
21.2495
21.2078
21.1415
21.0413
20.8965
20.7005
20.4659
20.2621
21.2849
21.2738
21.2496
21.2079
21.1416
21.0414
20.8966
20.7006
20.466
20.2622
21.2851
21.274
21.2498
21.2081
21.1418
21.0416
20.8968
20.7008
20.4662
20.2624
16.0869
16.0738
16.0449
15.9942
15.9111
15.7799
15.5772
15.2723
14.839
14.3342
16.0867
16.0737
16.0448
15.994
15.911
15.7798
15.5771
15.2722
14.8389
14.3341
16.0866
16.0736
16.0447
15.9939
15.9109
15.7797
15.577
15.2721
14.8388
14.3341
16.0866
16.0735
16.0446
15.9939
15.9109
15.7796
15.5769
15.2721
14.8388
14.334
16.0865
16.0735
16.0446
15.9939
15.9108
15.7796
15.5769
15.2721
14.8387
14.334
16.0866
16.0735
16.0446
15.9939
15.9108
15.7796
15.5769
15.2721
14.8388
14.334
16.0866
16.0735
16.0447
15.9939
15.9109
15.7797
15.577
15.2721
14.8388
14.3341
16.0867
16.0736
16.0447
15.994
15.911
15.7798
15.5771
15.2722
14.8389
14.3342
16.0868
16.0737
16.0449
15.9941
15.9111
15.7799
15.5772
15.2723
14.839
14.3343
16.0869
16.0738
16.045
15.9943
15.9113
15.78
15.5773
15.2725
14.8392
14.3344
11.9234
11.909
11.8771
11.8203
11.7256
11.5714
11.321
10.9071
10.1858
8.77168
11.9233
11.9089
11.877
11.8202
11.7255
11.5713
11.3209
10.907
10.1857
8.77161
11.9232
11.9088
11.8769
11.8201
11.7254
11.5712
11.3208
10.907
10.1856
8.77156
11.9231
11.9088
11.8769
11.8201
11.7254
11.5712
11.3208
10.9069
10.1856
8.77153
11.9231
11.9088
11.8769
11.8201
11.7254
11.5712
11.3208
10.9069
10.1856
8.77152
11.9231
11.9088
11.8769
11.8201
11.7254
11.5712
11.3208
10.9069
10.1856
8.77153
11.9231
11.9088
11.8769
11.8201
11.7254
11.5712
11.3209
10.907
10.1857
8.77157
11.9232
11.9089
11.877
11.8202
11.7255
11.5713
11.3209
10.907
10.1857
8.77163
11.9233
11.909
11.8771
11.8203
11.7256
11.5714
11.321
10.9071
10.1858
8.77172
11.9234
11.9091
11.8772
11.8204
11.7258
11.5716
11.3212
10.9073
10.1859
8.77183
8.66513
8.65053
8.618
8.55993
8.46294
8.30494
8.04963
7.63634
6.96287
5.87046
8.66503
8.65043
8.61791
8.55983
8.46285
8.30486
8.04954
7.63626
6.96279
5.8704
8.66496
8.65036
8.61784
8.55976
8.46278
8.30479
8.04948
7.63621
6.96275
5.87035
8.66491
8.65032
8.61779
8.55972
8.46274
8.30475
8.04945
7.63617
6.96272
5.87033
8.6649
8.6503
8.61778
8.55971
8.46273
8.30474
8.04944
7.63617
6.96271
5.87033
8.6649
8.65031
8.61779
8.55972
8.46274
8.30476
8.04945
7.63618
6.96273
5.87034
8.66494
8.65034
8.61782
8.55976
8.46278
8.3048
8.04949
7.63622
6.96276
5.87037
8.665
8.6504
8.61789
8.55982
8.46285
8.30486
8.04955
7.63628
6.96282
5.87042
8.66507
8.65049
8.61798
8.55991
8.46294
8.30495
8.04964
7.63637
6.9629
5.87049
8.66516
8.6506
8.6181
8.56004
8.46306
8.30507
8.04976
7.63648
6.963
5.87058
6.17369
6.15987
6.12919
6.07476
5.98489
5.84115
5.61589
5.26975
4.75327
4.02742
6.1736
6.15979
6.12911
6.07469
5.98481
5.84108
5.61582
5.26968
4.75321
4.02737
6.17355
6.15974
6.12905
6.07463
5.98476
5.84103
5.61578
5.26964
4.75317
4.02734
6.17351
6.1597
6.12902
6.0746
5.98473
5.841
5.61575
5.26962
4.75315
4.02732
6.1735
6.15969
6.12901
6.07459
5.98472
5.84099
5.61574
5.26961
4.75314
4.02731
6.17351
6.1597
6.12902
6.0746
5.98473
5.841
5.61575
5.26962
4.75316
4.02733
6.17354
6.15973
6.12905
6.07463
5.98476
5.84103
5.61579
5.26965
4.75319
4.02735
6.17358
6.15978
6.1291
6.07469
5.98482
5.84109
5.61584
5.26971
4.75323
4.02739
6.17365
6.15985
6.12918
6.07476
5.9849
5.84116
5.61591
5.26978
4.7533
4.02745
6.17373
6.15994
6.12928
6.07486
5.985
5.84126
5.61601
5.26987
4.75338
4.02753
4.312
4.29979
4.27285
4.22563
4.14908
4.02985
3.84998
3.58809
3.22541
2.76246
4.31194
4.29973
4.27279
4.22557
4.14902
4.0298
3.84993
3.58804
3.22537
2.76242
4.3119
4.29969
4.27275
4.22553
4.14898
4.02976
3.8499
3.58801
3.22534
2.7624
4.31187
4.29966
4.27272
4.22551
4.14896
4.02974
3.84988
3.58799
3.22533
2.76238
4.31186
4.29965
4.27271
4.2255
4.14895
4.02973
3.84987
3.58799
3.22532
2.76238
4.31187
4.29966
4.27272
4.22551
4.14896
4.02974
3.84988
3.588
3.22533
2.76239
4.31189
4.29969
4.27275
4.22554
4.14899
4.02977
3.84991
3.58802
3.22536
2.76241
4.31193
4.29973
4.27279
4.22558
4.14903
4.02981
3.84995
3.58806
3.22539
2.76244
4.31199
4.29979
4.27285
4.22564
4.14909
4.02988
3.85001
3.58812
3.22545
2.76249
4.31205
4.29986
4.27293
4.22572
4.14917
4.02995
3.85009
3.58819
3.22551
2.76255
2.95239
2.94224
2.92004
2.8817
2.82085
2.72875
2.59491
2.40915
2.1666
1.87675
2.95234
2.94219
2.91999
2.88165
2.8208
2.72871
2.59487
2.40912
2.16656
1.87672
2.95231
2.94216
2.91996
2.88162
2.82077
2.72868
2.59484
2.40909
2.16654
1.8767
2.95228
2.94214
2.91994
2.8816
2.82076
2.72866
2.59483
2.40908
2.16653
1.87669
2.95228
2.94213
2.91993
2.8816
2.82075
2.72866
2.59483
2.40908
2.16653
1.87668
2.95228
2.94214
2.91994
2.88161
2.82076
2.72867
2.59483
2.40908
2.16654
1.87669
2.9523
2.94216
2.91996
2.88163
2.82078
2.72869
2.59486
2.4091
2.16655
1.87671
2.95234
2.94219
2.91999
2.88166
2.82082
2.72872
2.59489
2.40914
2.16658
1.87673
2.95238
2.94224
2.92004
2.88171
2.82086
2.72877
2.59494
2.40918
2.16662
1.87677
2.95243
2.9423
2.92011
2.88178
2.82093
2.72883
2.59499
2.40924
2.16668
1.87682
1.9817
1.97372
1.95642
1.92701
1.88133
1.81409
1.71967
1.59389
1.43714
1.25871
1.98166
1.97368
1.95638
1.92698
1.8813
1.81406
1.71964
1.59386
1.43712
1.25869
1.98164
1.97366
1.95636
1.92695
1.88127
1.81404
1.71962
1.59385
1.4371
1.25868
1.98162
1.97364
1.95634
1.92694
1.88126
1.81402
1.71961
1.59384
1.43709
1.25867
1.98162
1.97364
1.95634
1.92694
1.88126
1.81402
1.71961
1.59383
1.43709
1.25867
1.98163
1.97364
1.95635
1.92694
1.88127
1.81403
1.71961
1.59384
1.4371
1.25867
1.98164
1.97366
1.95636
1.92696
1.88128
1.81404
1.71963
1.59386
1.43711
1.25869
1.98166
1.97369
1.95639
1.92699
1.88131
1.81407
1.71966
1.59388
1.43714
1.25871
1.9817
1.97372
1.95643
1.92702
1.88135
1.81411
1.71969
1.59391
1.43717
1.25874
1.98174
1.97377
1.95648
1.92707
1.88139
1.81415
1.71974
1.59396
1.43721
1.25877
1.30406
1.29808
1.28525
1.26378
1.23112
1.18429
1.12056
1.03868
0.940647
0.833592
1.30403
1.29806
1.28523
1.26376
1.2311
1.18426
1.12054
1.03866
0.940629
0.833576
1.30402
1.29804
1.28521
1.26374
1.23108
1.18425
1.12052
1.03865
0.940617
0.833565
1.30401
1.29803
1.2852
1.26373
1.23107
1.18424
1.12051
1.03864
0.940611
0.833559
1.304
1.29803
1.2852
1.26373
1.23107
1.18424
1.12051
1.03864
0.94061
0.833558
1.30401
1.29803
1.2852
1.26373
1.23107
1.18425
1.12052
1.03864
0.940615
0.833563
1.30402
1.29804
1.28522
1.26375
1.23109
1.18426
1.12053
1.03865
0.940626
0.833573
1.30404
1.29806
1.28524
1.26377
1.23111
1.18428
1.12055
1.03867
0.940643
0.833588
1.30406
1.29809
1.28526
1.26379
1.23114
1.1843
1.12058
1.0387
0.940666
0.833609
1.30409
1.29812
1.2853
1.26383
1.23117
1.18434
1.12061
1.03873
0.940695
0.833636
0.841371
0.83709
0.827988
0.812983
0.790617
0.759348
0.71807
0.666921
0.608276
0.54749
0.841353
0.837073
0.827971
0.812966
0.790601
0.759332
0.718055
0.666908
0.608263
0.547478
0.84134
0.83706
0.827959
0.812954
0.79059
0.759322
0.718046
0.666899
0.608254
0.54747
0.841333
0.837053
0.827952
0.812948
0.790584
0.759316
0.71804
0.666894
0.60825
0.547466
0.841331
0.837052
0.82795
0.812946
0.790582
0.759315
0.71804
0.666893
0.60825
0.547466
0.841335
0.837055
0.827954
0.81295
0.790587
0.75932
0.718044
0.666897
0.608253
0.547469
0.841343
0.837064
0.827963
0.81296
0.790596
0.759329
0.718053
0.666906
0.608262
0.547477
0.841357
0.837078
0.827978
0.812974
0.790611
0.759343
0.718067
0.666919
0.608274
0.547488
0.841375
0.837097
0.827998
0.812995
0.790631
0.759363
0.718086
0.666937
0.608291
0.547504
0.841396
0.837122
0.828024
0.813021
0.790657
0.759388
0.71811
0.66696
0.608312
0.547524
0.532292
0.529349
0.523146
0.513072
0.498355
0.478301
0.452687
0.422345
0.389913
0.360468
0.53228
0.529336
0.523134
0.51306
0.498343
0.47829
0.452677
0.422336
0.389904
0.360459
0.532271
0.529328
0.523126
0.513052
0.498336
0.478283
0.45267
0.422329
0.389898
0.360454
0.532266
0.529323
0.523122
0.513048
0.498332
0.478279
0.452667
0.422326
0.389895
0.360451
0.532265
0.529322
0.523121
0.513047
0.498331
0.478279
0.452666
0.422326
0.389895
0.36045
0.532268
0.529325
0.523124
0.51305
0.498334
0.478282
0.452669
0.422329
0.389898
0.360453
0.532274
0.529331
0.52313
0.513057
0.498341
0.478289
0.452676
0.422335
0.389904
0.360459
0.532284
0.529341
0.52314
0.513067
0.498351
0.478299
0.452686
0.422345
0.389913
0.360467
0.532297
0.529355
0.523155
0.513082
0.498366
0.478313
0.452699
0.422357
0.389925
0.360479
0.532312
0.529373
0.523173
0.5131
0.498384
0.47833
0.452716
0.422374
0.38994
0.360493
0.330243
0.328294
0.324222
0.317704
0.308373
0.295997
0.280776
0.263831
0.248094
0.24055
0.330235
0.328285
0.324214
0.317696
0.308365
0.29599
0.280769
0.263824
0.248088
0.240544
0.330229
0.32828
0.324208
0.317691
0.30836
0.295985
0.280765
0.26382
0.248084
0.240539
0.330226
0.328277
0.324205
0.317688
0.308358
0.295982
0.280763
0.263818
0.248082
0.240537
0.330226
0.328276
0.324205
0.317688
0.308357
0.295982
0.280763
0.263818
0.248082
0.240537
0.330228
0.328278
0.324207
0.31769
0.30836
0.295984
0.280765
0.26382
0.248084
0.24054
0.330232
0.328283
0.324212
0.317695
0.308364
0.295989
0.280769
0.263825
0.248088
0.240544
0.330239
0.32829
0.324219
0.317702
0.308372
0.295996
0.280776
0.263831
0.248095
0.24055
0.330248
0.328299
0.324229
0.317712
0.308381
0.296006
0.280786
0.26384
0.248103
0.240558
0.330258
0.328311
0.324242
0.317725
0.308394
0.296018
0.280797
0.263851
0.248114
0.240569
5.35404
3.54
2.61942
2.31695
2.55382
3.38003
4.97255
7.68202
12.1596
19.6878
5.35398
3.53995
2.61937
2.31689
2.55375
3.37995
4.97244
7.68187
12.1594
19.6875
5.35394
3.53992
2.61933
2.31685
2.55371
3.37989
4.97236
7.68177
12.1592
19.6873
5.35392
3.5399
2.61931
2.31683
2.55368
3.37985
4.97231
7.6817
12.1591
19.6872
5.35391
3.53989
2.61931
2.31682
2.55367
3.37983
4.97229
7.68167
12.1591
19.6871
5.35393
3.5399
2.61931
2.31682
2.55367
3.37983
4.97229
7.68167
12.1591
19.6871
5.35395
3.53992
2.61933
2.31684
2.55368
3.37985
4.97231
7.6817
12.1591
19.6872
5.354
3.53995
2.61936
2.31687
2.55371
3.37988
4.97235
7.68175
12.1592
19.6873
5.35406
3.54
2.6194
2.3169
2.55374
3.37992
4.9724
7.68183
12.1593
19.6875
5.35413
3.54005
2.61944
2.31694
2.55378
3.37997
4.97246
7.68191
12.1594
19.6876
4.24518
3.04725
2.35787
2.13503
2.36918
3.11767
4.52019
6.81501
10.3452
15.4745
4.24513
3.0472
2.35783
2.13498
2.36912
3.11759
4.52009
6.81488
10.345
15.4742
4.2451
3.04717
2.3578
2.13494
2.36907
3.11754
4.52001
6.81478
10.3449
15.4741
4.24508
3.04715
2.35778
2.13492
2.36905
3.1175
4.51997
6.81472
10.3448
15.474
4.24507
3.04715
2.35777
2.13491
2.36903
3.11748
4.51994
6.81469
10.3448
15.4739
4.24508
3.04715
2.35778
2.13492
2.36904
3.11748
4.51994
6.81469
10.3448
15.4739
4.24511
3.04717
2.35779
2.13493
2.36905
3.1175
4.51997
6.81472
10.3448
15.474
4.24515
3.04721
2.35782
2.13496
2.36908
3.11753
4.52001
6.81477
10.3449
15.4741
4.24521
3.04725
2.35786
2.13499
2.36912
3.11758
4.52006
6.81485
10.345
15.4742
4.24528
3.04731
2.35791
2.13504
2.36917
3.11764
4.52014
6.81495
10.3451
15.4744
3.14357
2.4133
1.96369
1.83406
2.05366
2.6773
3.79874
5.5471
8.05175
11.328
3.14353
2.41326
1.96365
1.83402
2.0536
2.67724
3.79865
5.54699
8.05161
11.3279
3.1435
2.41323
1.96363
1.83399
2.05357
2.67719
3.79859
5.5469
8.0515
11.3277
3.14348
2.41322
1.96361
1.83397
2.05354
2.67716
3.79855
5.54685
8.05143
11.3276
3.14348
2.41321
1.9636
1.83396
2.05353
2.67714
3.79853
5.54683
8.0514
11.3276
3.14349
2.41322
1.96361
1.83396
2.05353
2.67715
3.79853
5.54683
8.0514
11.3276
3.14351
2.41324
1.96363
1.83398
2.05355
2.67716
3.79855
5.54686
8.05144
11.3277
3.14355
2.41327
1.96365
1.834
2.05357
2.67719
3.79859
5.54691
8.05151
11.3277
3.14359
2.41331
1.96369
1.83404
2.05361
2.67724
3.79864
5.54698
8.05161
11.3279
3.14366
2.41336
1.96374
1.83408
2.05366
2.67729
3.79872
5.54708
8.05174
11.3281
2.25105
1.81648
1.54552
1.48738
1.67945
2.16569
3.00256
4.24989
5.93902
8.0076
2.25102
1.81645
1.54549
1.48734
1.6794
2.16563
3.00249
4.2498
5.93891
8.00746
2.25099
1.81642
1.54546
1.48732
1.67937
2.16559
3.00244
4.24973
5.93883
8.00736
2.25098
1.81641
1.54545
1.4873
1.67935
2.16556
3.00241
4.24969
5.93877
8.00729
2.25097
1.81641
1.54545
1.48729
1.67934
2.16555
3.00239
4.24967
5.93875
8.00726
2.25098
1.81641
1.54545
1.4873
1.67934
2.16555
3.00239
4.24967
5.93875
8.00727
2.251
1.81643
1.54546
1.48731
1.67936
2.16557
3.00241
4.2497
5.93878
8.00731
2.25103
1.81646
1.54549
1.48733
1.67938
2.1656
3.00245
4.24974
5.93884
8.00739
2.25107
1.81649
1.54552
1.48736
1.67941
2.16564
3.0025
4.24981
5.93893
8.0075
2.25112
1.81654
1.54556
1.48741
1.67946
2.16569
3.00256
4.2499
5.93904
8.00765
1.57444
1.31964
1.16549
1.15115
1.30839
1.66836
2.26264
3.115
4.22197
5.52354
1.57441
1.31962
1.16546
1.15112
1.30835
1.66832
2.26258
3.11493
4.22188
5.52343
1.57439
1.3196
1.16544
1.1511
1.30833
1.66829
2.26254
3.11488
4.22182
5.52336
1.57438
1.31959
1.16543
1.15109
1.30831
1.66827
2.26251
3.11485
4.22178
5.52331
1.57438
1.31958
1.16543
1.15108
1.3083
1.66826
2.2625
3.11483
4.22176
5.52329
1.57439
1.31959
1.16543
1.15109
1.30831
1.66826
2.2625
3.11484
4.22176
5.52329
1.5744
1.3196
1.16544
1.1511
1.30832
1.66827
2.26252
3.11486
4.22179
5.52333
1.57443
1.31962
1.16546
1.15112
1.30834
1.6683
2.26255
3.11489
4.22184
5.52339
1.57446
1.31965
1.16549
1.15114
1.30837
1.66833
2.26259
3.11495
4.22191
5.52348
1.5745
1.31969
1.16552
1.15118
1.3084
1.66838
2.26265
3.11502
4.222
5.5236
1.08025
0.933632
0.850788
0.858859
0.98082
1.23699
1.64398
2.20908
2.92016
3.7344
1.08023
0.933611
0.850767
0.858835
0.980791
1.23696
1.64393
2.20902
2.9201
3.73432
1.08021
0.933597
0.850752
0.858818
0.980771
1.23693
1.6439
2.20898
2.92005
3.73426
1.0802
0.933589
0.850743
0.858808
0.980758
1.23692
1.64388
2.20896
2.92002
3.73422
1.0802
0.933588
0.85074
0.858805
0.980753
1.23691
1.64387
2.20895
2.92001
3.73421
1.08021
0.933592
0.850744
0.858807
0.980755
1.23691
1.64388
2.20895
2.92001
3.73422
1.08022
0.933602
0.850754
0.858817
0.980765
1.23692
1.64389
2.20897
2.92003
3.73424
1.08024
0.933619
0.850769
0.858832
0.980782
1.23694
1.64391
2.209
2.92007
3.73429
1.08026
0.933642
0.850791
0.858854
0.980806
1.23697
1.64395
2.20904
2.92013
3.73436
1.0803
0.933672
0.850819
0.858883
0.980838
1.23701
1.644
2.2091
2.9202
3.73445
0.730593
0.649077
0.608123
0.625543
0.716759
0.894304
1.1663
1.53305
1.9823
2.48577
0.730577
0.649061
0.608107
0.625525
0.716736
0.894277
1.16627
1.53301
1.98225
2.48571
0.730566
0.64905
0.608095
0.625511
0.716721
0.894257
1.16624
1.53298
1.98222
2.48567
0.73056
0.649044
0.608089
0.625504
0.716711
0.894245
1.16623
1.53296
1.98219
2.48564
0.73056
0.649043
0.608087
0.625501
0.716707
0.894241
1.16622
1.53296
1.98218
2.48563
0.730564
0.649047
0.60809
0.625503
0.71671
0.894243
1.16623
1.53296
1.98219
2.48564
0.730573
0.649055
0.608097
0.625511
0.716718
0.894252
1.16624
1.53297
1.98221
2.48566
0.730587
0.649068
0.60811
0.625524
0.716731
0.894268
1.16626
1.533
1.98224
2.4857
0.730606
0.649086
0.608127
0.625541
0.716751
0.894291
1.16628
1.53303
1.98228
2.48575
0.730631
0.649109
0.608149
0.625564
0.716776
0.894321
1.16632
1.53308
1.98234
2.48582
0.492418
0.450805
0.434199
0.454536
0.522134
0.644559
0.825216
1.06125
1.34135
1.64554
0.492406
0.450793
0.434186
0.454521
0.522117
0.644538
0.82519
1.06122
1.34132
1.6455
0.492398
0.450785
0.434177
0.454511
0.522105
0.644524
0.825172
1.0612
1.34129
1.64547
0.492394
0.45078
0.434172
0.454505
0.522097
0.644515
0.825161
1.06118
1.34127
1.64545
0.492394
0.450779
0.434171
0.454503
0.522095
0.644511
0.825157
1.06118
1.34127
1.64544
0.492397
0.450782
0.434174
0.454505
0.522097
0.644513
0.825159
1.06118
1.34127
1.64545
0.492404
0.450789
0.43418
0.454511
0.522104
0.644521
0.825168
1.06119
1.34129
1.64546
0.492415
0.450799
0.43419
0.454522
0.522115
0.644534
0.825184
1.06121
1.34131
1.64549
0.492429
0.450813
0.434203
0.454536
0.52213
0.644552
0.825206
1.06124
1.34134
1.64553
0.492448
0.45083
0.434221
0.454554
0.52215
0.644576
0.825235
1.06127
1.34139
1.64558
0.340427
0.324782
0.322556
0.343543
0.39553
0.483346
0.607765
0.763898
0.939425
1.11435
0.340418
0.324772
0.322546
0.343532
0.395517
0.483329
0.607746
0.763875
0.939398
1.11432
0.340412
0.324766
0.322539
0.343524
0.395507
0.483318
0.607732
0.763859
0.939379
1.1143
0.340409
0.324763
0.322536
0.343519
0.395502
0.483311
0.607724
0.763849
0.939368
1.11429
0.340409
0.324762
0.322535
0.343518
0.3955
0.483309
0.607721
0.763845
0.939363
1.11429
0.340411
0.324764
0.322537
0.34352
0.395502
0.483311
0.607723
0.763848
0.939367
1.11429
0.340417
0.32477
0.322542
0.343525
0.395507
0.483317
0.60773
0.763857
0.939378
1.1143
0.340425
0.324778
0.32255
0.343533
0.395517
0.483328
0.607743
0.763873
0.939397
1.11432
0.340436
0.324789
0.322561
0.343545
0.395529
0.483343
0.607761
0.763894
0.939423
1.11436
0.34045
0.324802
0.322575
0.343559
0.395546
0.483362
0.607784
0.763922
0.939456
1.11439
0.260174
0.262209
0.267832
0.289097
0.333436
0.404606
0.502101
0.619446
0.741041
0.835641
0.260167
0.262202
0.267825
0.289088
0.333426
0.404594
0.502087
0.61943
0.741022
0.835621
0.260163
0.262197
0.26782
0.289082
0.333418
0.404585
0.502076
0.619417
0.741007
0.835605
0.26016
0.262194
0.267817
0.289078
0.333414
0.40458
0.502069
0.619409
0.740998
0.835595
0.26016
0.262194
0.267816
0.289077
0.333412
0.404578
0.502066
0.619406
0.740995
0.835592
0.260162
0.262196
0.267818
0.289079
0.333414
0.40458
0.502068
0.619409
0.740998
0.835595
0.260167
0.262201
0.267822
0.289084
0.333419
0.404585
0.502075
0.619417
0.741008
0.835606
0.260174
0.262208
0.267829
0.289091
0.333427
0.404595
0.502087
0.61943
0.741024
0.835624
0.260183
0.262217
0.267839
0.289101
0.333439
0.404608
0.502103
0.619449
0.741046
0.835649
0.260194
0.262228
0.267851
0.289114
0.333453
0.404625
0.502122
0.619473
0.741074
0.83568
33.1414
38.7131
41.5516
43.1758
44.1552
44.7564
45.1245
45.3448
45.4681
45.5234
33.141
38.7126
41.5511
43.1753
44.1547
44.7559
45.124
45.3443
45.4677
45.523
33.1407
38.7123
41.5508
43.175
44.1544
44.7555
45.1236
45.3439
45.4674
45.5228
33.1406
38.7122
41.5506
43.1748
44.1542
44.7553
45.1234
45.3438
45.4672
45.5226
33.1405
38.7121
41.5505
43.1747
44.1541
44.7553
45.1234
45.3437
45.4672
45.5226
33.1405
38.7121
41.5506
43.1748
44.1541
44.7553
45.1234
45.3438
45.4672
45.5227
33.1406
38.7122
41.5507
43.1749
44.1543
44.7555
45.1236
45.3439
45.4674
45.5228
33.1408
38.7124
41.5509
43.1752
44.1546
44.7558
45.1239
45.3442
45.4677
45.5231
33.141
38.7127
41.5513
43.1755
44.1549
44.7561
45.1243
45.3446
45.4681
45.5236
33.1413
38.7131
41.5516
43.1759
44.1554
44.7566
45.1247
45.3451
45.4686
45.524
22.0219
26.3779
29.0473
30.677
31.6792
32.2969
32.6747
32.9002
33.0263
33.0827
22.0216
26.3776
29.0469
30.6767
31.6789
32.2965
32.6743
32.8998
33.0259
33.0824
22.0214
26.3773
29.0467
30.6764
31.6786
32.2962
32.674
32.8996
33.0257
33.0822
22.0212
26.3772
29.0465
30.6762
31.6784
32.296
32.6738
32.8994
33.0255
33.0821
22.0212
26.3771
29.0464
30.6762
31.6784
32.296
32.6738
32.8994
33.0255
33.082
22.0212
26.3771
29.0465
30.6762
31.6784
32.296
32.6738
32.8994
33.0256
33.0821
22.0213
26.3772
29.0466
30.6763
31.6785
32.2962
32.674
32.8996
33.0257
33.0823
22.0214
26.3774
29.0468
30.6765
31.6788
32.2964
32.6742
32.8999
33.026
33.0825
22.0216
26.3777
29.047
30.6768
31.6791
32.2967
32.6746
32.9002
33.0263
33.0829
22.0219
26.378
29.0474
30.6772
31.6795
32.2972
32.675
32.9006
33.0268
33.0833
14.9993
17.9419
20.0093
21.383
22.2711
22.8348
23.1858
23.3975
23.5166
23.5701
14.9991
17.9416
20.009
21.3828
22.2708
22.8345
23.1855
23.3972
23.5164
23.5699
14.9989
17.9414
20.0088
21.3826
22.2706
22.8343
23.1853
23.397
23.5162
23.5697
14.9988
17.9413
20.0087
21.3824
22.2705
22.8342
23.1851
23.3969
23.5161
23.5696
14.9988
17.9413
20.0087
21.3824
22.2705
22.8341
23.1851
23.3969
23.516
23.5696
14.9988
17.9413
20.0087
21.3824
22.2705
22.8342
23.1851
23.3969
23.5161
23.5697
14.9989
17.9414
20.0088
21.3825
22.2706
22.8343
23.1853
23.3971
23.5162
23.5698
14.999
17.9415
20.0089
21.3827
22.2708
22.8345
23.1855
23.3973
23.5164
23.57
14.9992
17.9417
20.0092
21.3829
22.2711
22.8348
23.1858
23.3976
23.5167
23.5703
14.9994
17.942
20.0095
21.3833
22.2714
22.8351
23.1861
23.398
23.5171
23.5707
10.2106
12.1264
13.5963
14.6439
15.3569
15.8262
16.1259
16.31
16.4148
16.4621
10.2104
12.1262
13.5961
14.6437
15.3566
15.8259
16.1257
16.3098
16.4146
16.462
10.2103
12.1261
13.5959
14.6436
15.3565
15.8258
16.1255
16.3096
16.4144
16.4619
10.2102
12.126
13.5959
14.6435
15.3564
15.8257
16.1254
16.3095
16.4143
16.4618
10.2102
12.126
13.5958
14.6434
15.3563
15.8256
16.1254
16.3095
16.4143
16.4618
10.2102
12.126
13.5958
14.6435
15.3564
15.8257
16.1254
16.3096
16.4144
16.4618
10.2102
12.126
13.5959
14.6435
15.3565
15.8258
16.1255
16.3097
16.4145
16.4619
10.2103
12.1261
13.596
14.6437
15.3566
15.8259
16.1257
16.3098
16.4147
16.4621
10.2105
12.1263
13.5962
14.6439
15.3568
15.8262
16.1259
16.3101
16.4149
16.4623
10.2106
12.1265
13.5965
14.6441
15.3571
15.8265
16.1262
16.3104
16.4152
16.4627
6.8812
8.11036
9.1082
9.8584
10.3923
10.7564
10.9954
11.1452
11.2317
11.2711
6.88107
8.11022
9.10805
9.85824
10.3921
10.7562
10.9952
11.145
11.2315
11.271
6.88099
8.11012
9.10794
9.85812
10.392
10.7561
10.9951
11.1449
11.2314
11.2709
6.88093
8.11006
9.10787
9.85805
10.3919
10.756
10.995
11.1449
11.2314
11.2709
6.88091
8.11003
9.10785
9.85803
10.3919
10.756
10.995
11.1448
11.2314
11.2709
6.88092
8.11004
9.10787
9.85805
10.3919
10.756
10.995
11.1449
11.2314
11.2709
6.88096
8.1101
9.10793
9.85811
10.392
10.7561
10.9951
11.145
11.2315
11.271
6.88103
8.11018
9.10803
9.85823
10.3921
10.7562
10.9952
11.1451
11.2316
11.2711
6.88114
8.11031
9.10817
9.85839
10.3923
10.7564
10.9954
11.1453
11.2318
11.2713
6.88129
8.11048
9.10836
9.85859
10.3925
10.7566
10.9957
11.1455
11.2321
11.2716
4.57552
5.35431
6.01075
6.52454
6.904
7.1712
7.35128
7.46653
7.53407
7.56515
4.57543
5.35421
6.01064
6.52442
6.90387
7.17108
7.35115
7.4664
7.53395
7.56506
4.57536
5.35414
6.01056
6.52434
6.90379
7.17099
7.35106
7.46632
7.53387
7.56499
4.57532
5.35409
6.01051
6.52429
6.90373
7.17094
7.35101
7.46627
7.53383
7.56495
4.57531
5.35408
6.0105
6.52427
6.90372
7.17092
7.351
7.46626
7.53382
7.56495
4.57532
5.35409
6.01051
6.52429
6.90374
7.17094
7.35102
7.46629
7.53385
7.56498
4.57535
5.35413
6.01056
6.52434
6.90379
7.17101
7.35109
7.46636
7.53392
7.56505
4.57541
5.3542
6.01063
6.52443
6.90389
7.1711
7.35119
7.46646
7.53403
7.56516
4.57549
5.3543
6.01074
6.52455
6.90402
7.17124
7.35133
7.46661
7.53418
7.56531
4.5756
5.35442
6.01089
6.52471
6.90419
7.17142
7.35152
7.4668
7.53437
7.5655
3.00165
3.48619
3.90595
4.24512
4.50358
4.69082
4.82011
4.90453
4.95474
4.97806
3.00159
3.48611
3.90587
4.24504
4.50349
4.69073
4.82002
4.90444
4.95465
4.97799
3.00154
3.48606
3.90581
4.24498
4.50343
4.69066
4.81996