/*--------------------------------*- C++ -*----------------------------------*\
  =========                 |
  \\      /  F ield         | OpenFOAM: The Open Source CFD Toolbox
   \\    /   O peration     | Website:  https://openfoam.org
    \\  /    A nd           | Version:  6
     \\/     M anipulation  |
\*---------------------------------------------------------------------------*/
FoamFile
{
    version     2.0;
    format      ascii;
    class       volScalarField;
    location    "1";
    object      T;
}
// * * * * * * * * * * * * * * * * * * * * * * * * * * * * * * * * * * * * * //

dimensions      [0 0 0 1 0 0 0];

internalField   nonuniform List<scalar> 
7000
(
106.804
106.803
106.802
106.8
106.798
106.795
106.793
106.791
106.789
106.788
106.804
106.803
106.802
106.8
106.798
106.795
106.793
106.791
106.789
106.788
106.804
106.803
106.802
106.8
106.798
106.795
106.793
106.791
106.789
106.788
106.804
106.803
106.802
106.8
106.798
106.795
106.793
106.791
106.789
106.788
106.804
106.803
106.802
106.8
106.798
106.795
106.793
106.791
106.789
106.788
106.804
106.803
106.802
106.8
106.798
106.795
106.793
106.791
106.789
106.788
106.804
106.803
106.802
106.8
106.798
106.795
106.793
106.791
106.789
106.788
106.804
106.803
106.802
106.8
106.798
106.795
106.793
106.791
106.789
106.788
106.804
106.803
106.802
106.8
106.798
106.795
106.793
106.791
106.789
106.788
106.804
106.803
106.802
106.8
106.798
106.795
106.793
106.791
106.789
106.788
100.43
100.428
100.424
100.418
100.411
100.404
100.397
100.39
100.385
100.382
100.43
100.428
100.424
100.418
100.411
100.404
100.397
100.39
100.385
100.382
100.43
100.428
100.424
100.418
100.411
100.404
100.396
100.39
100.385
100.382
100.43
100.428
100.424
100.418
100.411
100.404
100.396
100.39
100.385
100.382
100.43
100.428
100.424
100.418
100.411
100.404
100.396
100.39
100.385
100.382
100.43
100.428
100.424
100.418
100.411
100.404
100.396
100.39
100.385
100.382
100.43
100.428
100.424
100.418
100.411
100.404
100.396
100.39
100.385
100.382
100.43
100.428
100.424
100.418
100.411
100.404
100.396
100.39
100.385
100.382
100.43
100.428
100.424
100.418
100.411
100.404
100.396
100.39
100.385
100.382
100.43
100.428
100.424
100.418
100.411
100.404
100.397
100.39
100.385
100.382
94.1093
94.106
94.0996
94.0905
94.0792
94.0667
94.054
94.0426
94.0339
94.0292
94.1093
94.106
94.0996
94.0905
94.0792
94.0667
94.054
94.0426
94.0339
94.0292
94.1093
94.106
94.0996
94.0904
94.0792
94.0667
94.054
94.0426
94.0339
94.0292
94.1093
94.106
94.0996
94.0904
94.0792
94.0667
94.054
94.0426
94.0339
94.0291
94.1093
94.106
94.0996
94.0904
94.0792
94.0666
94.054
94.0426
94.0339
94.0291
94.1093
94.106
94.0996
94.0904
94.0792
94.0666
94.054
94.0426
94.0339
94.0291
94.1093
94.106
94.0996
94.0904
94.0792
94.0666
94.054
94.0426
94.0339
94.0291
94.1093
94.106
94.0996
94.0904
94.0792
94.0667
94.054
94.0426
94.0339
94.0292
94.1093
94.106
94.0996
94.0904
94.0792
94.0667
94.054
94.0426
94.0339
94.0292
94.1093
94.106
94.0996
94.0905
94.0792
94.0667
94.054
94.0426
94.0339
94.0292
87.8784
87.874
87.8652
87.8526
87.837
87.8193
87.8011
87.7844
87.7714
87.7642
87.8784
87.8739
87.8652
87.8526
87.8369
87.8192
87.8011
87.7843
87.7713
87.7642
87.8784
87.8739
87.8652
87.8526
87.8369
87.8192
87.801
87.7843
87.7713
87.7642
87.8784
87.8739
87.8652
87.8526
87.8369
87.8192
87.801
87.7843
87.7713
87.7642
87.8784
87.8739
87.8652
87.8526
87.8369
87.8192
87.801
87.7843
87.7713
87.7642
87.8784
87.8739
87.8652
87.8526
87.8369
87.8192
87.801
87.7843
87.7713
87.7641
87.8784
87.8739
87.8652
87.8526
87.8369
87.8192
87.801
87.7843
87.7713
87.7642
87.8784
87.8739
87.8652
87.8526
87.8369
87.8192
87.801
87.7843
87.7713
87.7642
87.8784
87.8739
87.8652
87.8526
87.8369
87.8192
87.801
87.7843
87.7713
87.7642
87.8784
87.8739
87.8652
87.8526
87.8369
87.8192
87.8011
87.7843
87.7714
87.7642
81.7713
81.7659
81.7552
81.7396
81.7198
81.697
81.673
81.6501
81.6318
81.6215
81.7713
81.7658
81.7551
81.7396
81.7198
81.697
81.6729
81.6501
81.6318
81.6215
81.7713
81.7658
81.7551
81.7395
81.7198
81.697
81.6729
81.6501
81.6318
81.6214
81.7713
81.7658
81.7551
81.7395
81.7198
81.697
81.6729
81.6501
81.6318
81.6214
81.7712
81.7658
81.7551
81.7395
81.7198
81.697
81.6729
81.6501
81.6318
81.6214
81.7712
81.7658
81.7551
81.7395
81.7198
81.697
81.6729
81.6501
81.6318
81.6214
81.7712
81.7658
81.7551
81.7395
81.7198
81.697
81.6729
81.6501
81.6318
81.6214
81.7712
81.7658
81.7551
81.7395
81.7198
81.697
81.6729
81.6501
81.6318
81.6214
81.7713
81.7658
81.7551
81.7395
81.7198
81.697
81.6729
81.6501
81.6318
81.6215
81.7713
81.7658
81.7551
81.7396
81.7198
81.697
81.6729
81.6501
81.6318
81.6215
75.8208
75.8148
75.8029
75.7853
75.7624
75.735
75.7048
75.6748
75.6493
75.6343
75.8207
75.8147
75.8029
75.7853
75.7624
75.735
75.7048
75.6747
75.6493
75.6343
75.8207
75.8147
75.8028
75.7852
75.7623
75.735
75.7048
75.6747
75.6493
75.6343
75.8207
75.8147
75.8028
75.7852
75.7623
75.735
75.7048
75.6747
75.6493
75.6343
75.8207
75.8147
75.8028
75.7852
75.7623
75.7349
75.7048
75.6747
75.6493
75.6343
75.8207
75.8147
75.8028
75.7852
75.7623
75.7349
75.7048
75.6747
75.6493
75.6343
75.8207
75.8147
75.8028
75.7852
75.7623
75.7349
75.7048
75.6747
75.6493
75.6343
75.8207
75.8147
75.8028
75.7852
75.7623
75.735
75.7048
75.6747
75.6493
75.6343
75.8207
75.8147
75.8028
75.7852
75.7623
75.735
75.7048
75.6747
75.6493
75.6343
75.8207
75.8147
75.8029
75.7853
75.7624
75.735
75.7048
75.6747
75.6493
75.6343
70.0576
70.0518
70.0401
70.0223
69.9982
69.9678
69.9319
69.8931
69.8573
69.8344
70.0576
70.0518
70.0401
70.0223
69.9982
69.9678
69.9319
69.8931
69.8573
69.8343
70.0576
70.0517
70.04
70.0223
69.9982
69.9677
69.9318
69.893
69.8573
69.8343
70.0575
70.0517
70.04
70.0222
69.9981
69.9677
69.9318
69.893
69.8572
69.8343
70.0575
70.0517
70.04
70.0222
69.9981
69.9677
69.9318
69.893
69.8572
69.8343
70.0575
70.0517
70.04
70.0222
69.9981
69.9677
69.9318
69.893
69.8572
69.8343
70.0575
70.0517
70.04
70.0222
69.9981
69.9677
69.9318
69.893
69.8572
69.8343
70.0575
70.0517
70.04
70.0222
69.9981
69.9677
69.9318
69.893
69.8573
69.8343
70.0575
70.0517
70.04
70.0223
69.9982
69.9678
69.9318
69.8931
69.8573
69.8343
70.0576
70.0518
70.0401
70.0223
69.9982
69.9678
69.9319
69.8931
69.8573
69.8343
64.51
64.5055
64.4962
64.4814
64.4598
64.4299
64.3902
64.3413
64.2891
64.2501
64.5099
64.5055
64.4962
64.4813
64.4597
64.4298
64.3902
64.3413
64.289
64.2501
64.5099
64.5054
64.4961
64.4813
64.4597
64.4298
64.3901
64.3412
64.289
64.2501
64.5099
64.5054
64.4961
64.4813
64.4597
64.4298
64.3901
64.3412
64.289
64.25
64.5099
64.5054
64.4961
64.4813
64.4597
64.4298
64.3901
64.3412
64.289
64.25
64.5099
64.5054
64.4961
64.4813
64.4597
64.4298
64.3901
64.3412
64.289
64.25
64.5099
64.5054
64.4961
64.4813
64.4597
64.4298
64.3901
64.3412
64.289
64.25
64.5099
64.5054
64.4961
64.4813
64.4597
64.4298
64.3901
64.3412
64.289
64.2501
64.5099
64.5054
64.4961
64.4813
64.4597
64.4298
64.3902
64.3413
64.289
64.2501
64.5099
64.5055
64.4962
64.4813
64.4597
64.4298
64.3902
64.3413
64.2891
64.2501
59.2026
59.201
59.1974
59.1905
59.1778
59.1555
59.1181
59.0596
58.98
58.903
59.2025
59.201
59.1974
59.1904
59.1778
59.1555
59.118
59.0596
58.98
58.9029
59.2025
59.2009
59.1973
59.1904
59.1777
59.1555
59.118
59.0595
58.9799
58.9029
59.2025
59.2009
59.1973
59.1904
59.1777
59.1554
59.118
59.0595
58.9799
58.9029
59.2024
59.2009
59.1973
59.1904
59.1777
59.1554
59.118
59.0595
58.9799
58.9029
59.2024
59.2009
59.1973
59.1904
59.1777
59.1554
59.118
59.0595
58.9799
58.9029
59.2024
59.2009
59.1973
59.1904
59.1777
59.1554
59.118
59.0595
58.9799
58.9029
59.2025
59.2009
59.1973
59.1904
59.1777
59.1554
59.118
59.0595
58.9799
58.9029
59.2025
59.2009
59.1973
59.1904
59.1777
59.1555
59.118
59.0595
58.9799
58.9029
59.2025
59.201
59.1974
59.1904
59.1778
59.1555
59.1181
59.0596
58.98
58.903
54.1557
54.1592
54.1657
54.1737
54.18
54.1784
54.1577
54.099
53.9774
53.7942
54.1557
54.1592
54.1657
54.1737
54.18
54.1784
54.1576
54.099
53.9773
53.7941
54.1557
54.1592
54.1657
54.1736
54.1799
54.1783
54.1576
54.0989
53.9773
53.7941
54.1556
54.1591
54.1656
54.1736
54.1799
54.1783
54.1576
54.0989
53.9773
53.7941
54.1556
54.1591
54.1656
54.1736
54.1799
54.1783
54.1576
54.0989
53.9773
53.7941
54.1556
54.1591
54.1656
54.1736
54.1799
54.1783
54.1576
54.0989
53.9773
53.7941
54.1556
54.1591
54.1656
54.1736
54.1799
54.1783
54.1576
54.0989
53.9773
53.7941
54.1556
54.1592
54.1656
54.1736
54.1799
54.1783
54.1576
54.0989
53.9773
53.7941
54.1557
54.1592
54.1657
54.1736
54.1799
54.1783
54.1576
54.0989
53.9773
53.7941
54.1557
54.1592
54.1657
54.1737
54.18
54.1784
54.1577
54.099
53.9774
53.7942
49.3849
49.3959
49.4177
49.4493
49.4882
49.528
49.5542
49.5334
49.3829
48.862
49.3849
49.3959
49.4176
49.4493
49.4882
49.528
49.5541
49.5334
49.3828
48.8619
49.3848
49.3958
49.4176
49.4493
49.4882
49.5279
49.5541
49.5333
49.3828
48.8619
49.3848
49.3958
49.4176
49.4492
49.4881
49.5279
49.554
49.5333
49.3827
48.8619
49.3848
49.3958
49.4176
49.4492
49.4881
49.5279
49.554
49.5333
49.3827
48.8618
49.3848
49.3958
49.4176
49.4492
49.4881
49.5279
49.554
49.5333
49.3827
48.8618
49.3848
49.3958
49.4176
49.4492
49.4881
49.5279
49.554
49.5333
49.3827
48.8619
49.3848
49.3958
49.4176
49.4492
49.4881
49.5279
49.5541
49.5333
49.3828
48.8619
49.3848
49.3958
49.4176
49.4493
49.4882
49.5279
49.5541
49.5334
49.3828
48.8619
49.3849
49.3959
49.4177
49.4493
49.4882
49.528
49.5541
49.5334
49.3829
48.862
44.8998
44.9207
44.963
45.0274
45.1141
45.221
45.3413
45.459
45.5424
45.5504
44.8998
44.9206
44.9629
45.0273
45.114
45.2209
45.3413
45.4589
45.5423
45.5503
44.8997
44.9206
44.9629
45.0273
45.114
45.2209
45.3412
45.4589
45.5423
45.5503
44.8997
44.9205
44.9628
45.0273
45.114
45.2209
45.3412
45.4588
45.5422
45.5502
44.8997
44.9205
44.9628
45.0273
45.1139
45.2209
45.3412
45.4588
45.5422
45.5502
44.8997
44.9205
44.9628
45.0273
45.1139
45.2209
45.3412
45.4588
45.5422
45.5502
44.8997
44.9205
44.9628
45.0273
45.114
45.2209
45.3412
45.4588
45.5422
45.5502
44.8997
44.9206
44.9629
45.0273
45.114
45.2209
45.3412
45.4588
45.5422
45.5502
44.8997
44.9206
44.9629
45.0273
45.114
45.2209
45.3413
45.4589
45.5423
45.5503
44.8998
44.9206
44.9629
45.0274
45.1141
45.221
45.3413
45.4589
45.5423
45.5503
40.7044
40.737
40.8038
40.9082
41.0546
41.2483
41.4952
41.8027
42.1867
42.6957
40.7043
40.7369
40.8038
40.9082
41.0546
41.2483
41.4951
41.8027
42.1867
42.6956
40.7043
40.7369
40.8037
40.9081
41.0545
41.2482
41.4951
41.8026
42.1866
42.6956
40.7043
40.7368
40.8037
40.9081
41.0545
41.2482
41.495
41.8026
42.1866
42.6955
40.7043
40.7368
40.8037
40.9081
41.0545
41.2482
41.495
41.8026
42.1866
42.6955
40.7043
40.7368
40.8037
40.9081
41.0545
41.2482
41.495
41.8026
42.1866
42.6955
40.7043
40.7368
40.8037
40.9081
41.0545
41.2482
41.495
41.8026
42.1866
42.6955
40.7043
40.7369
40.8037
40.9081
41.0545
41.2482
41.4951
41.8026
42.1866
42.6955
40.7043
40.7369
40.8038
40.9082
41.0546
41.2483
41.4951
41.8026
42.1867
42.6956
40.7044
40.7369
40.8038
40.9082
41.0546
41.2483
41.4952
41.8027
42.1867
42.6956
36.7973
36.8425
36.9358
37.0836
37.2952
37.5837
37.9669
38.47
39.1323
40.022
36.7973
36.8424
36.9358
37.0836
37.2952
37.5837
37.9669
38.47
39.1323
40.0219
36.7972
36.8424
36.9357
37.0835
37.2951
37.5836
37.9668
38.4699
39.1322
40.0219
36.7972
36.8423
36.9357
37.0835
37.2951
37.5836
37.9668
38.4699
39.1322
40.0218
36.7972
36.8423
36.9357
37.0835
37.2951
37.5836
37.9668
38.4699
39.1322
40.0218
36.7972
36.8423
36.9357
37.0835
37.2951
37.5836
37.9668
38.4699
39.1322
40.0218
36.7972
36.8423
36.9357
37.0835
37.2951
37.5836
37.9668
38.4699
39.1322
40.0218
36.7972
36.8424
36.9357
37.0835
37.2951
37.5836
37.9668
38.4699
39.1322
40.0219
36.7972
36.8424
36.9358
37.0835
37.2951
37.5836
37.9669
38.47
39.1322
40.0219
36.7973
36.8424
36.9358
37.0836
37.2952
37.5837
37.9669
38.47
39.1323
40.022
33.1728
33.2301
33.3493
33.5393
33.8143
34.1943
34.7068
35.3881
36.2865
37.4658
33.1727
33.2301
33.3492
33.5392
33.8142
34.1943
34.7067
35.3881
36.2865
37.4657
33.1727
33.23
33.3492
33.5392
33.8142
34.1942
34.7067
35.388
36.2864
37.4657
33.1726
33.23
33.3492
33.5392
33.8141
34.1942
34.7067
35.388
36.2864
37.4656
33.1726
33.23
33.3492
33.5392
33.8141
34.1942
34.7067
35.388
36.2864
37.4656
33.1726
33.23
33.3492
33.5392
33.8141
34.1942
34.7067
35.388
36.2864
37.4656
33.1726
33.23
33.3492
33.5392
33.8141
34.1942
34.7067
35.388
36.2864
37.4656
33.1727
33.23
33.3492
33.5392
33.8142
34.1942
34.7067
35.388
36.2864
37.4657
33.1727
33.2301
33.3492
33.5392
33.8142
34.1943
34.7067
35.388
36.2864
37.4657
33.1727
33.2301
33.3493
33.5393
33.8142
34.1943
34.7068
35.3881
36.2865
37.4658
29.8218
29.8898
30.0313
30.2578
30.5876
31.0467
31.6704
32.5037
33.6002
35.0165
29.8218
29.8897
30.0312
30.2578
30.5875
31.0466
31.6703
32.5036
33.6002
35.0164
29.8217
29.8897
30.0312
30.2577
30.5875
31.0466
31.6703
32.5036
33.6001
35.0164
29.8217
29.8897
30.0312
30.2577
30.5875
31.0466
31.6702
32.5035
33.6001
35.0163
29.8217
29.8896
30.0311
30.2577
30.5875
31.0466
31.6702
32.5035
33.6001
35.0163
29.8217
29.8896
30.0311
30.2577
30.5874
31.0466
31.6702
32.5035
33.6001
35.0163
29.8217
29.8897
30.0312
30.2577
30.5875
31.0466
31.6702
32.5035
33.6001
35.0163
29.8217
29.8897
30.0312
30.2577
30.5875
31.0466
31.6703
32.5036
33.6001
35.0164
29.8218
29.8897
30.0312
30.2577
30.5875
31.0466
31.6703
32.5036
33.6002
35.0164
29.8218
29.8897
30.0313
30.2578
30.5876
31.0467
31.6704
32.5037
33.6002
35.0165
26.7339
26.8097
26.9676
27.2209
27.5909
28.1086
28.8167
29.7703
31.0343
32.6687
26.7339
26.8096
26.9675
27.2208
27.5909
28.1086
28.8166
29.7703
31.0343
32.6686
26.7338
26.8096
26.9675
27.2208
27.5908
28.1085
28.8166
29.7702
31.0342
32.6685
26.7338
26.8096
26.9675
27.2208
27.5908
28.1085
28.8165
29.7702
31.0342
32.6685
26.7338
26.8095
26.9674
27.2208
27.5908
28.1085
28.8165
29.7702
31.0342
32.6685
26.7338
26.8095
26.9674
27.2208
27.5908
28.1085
28.8165
29.7702
31.0342
32.6685
26.7338
26.8096
26.9675
27.2208
27.5908
28.1085
28.8165
29.7702
31.0342
32.6685
26.7338
26.8096
26.9675
27.2208
27.5908
28.1085
28.8166
29.7702
31.0342
32.6685
26.7339
26.8096
26.9675
27.2208
27.5908
28.1086
28.8166
29.7703
31.0342
32.6686
26.7339
26.8097
26.9676
27.2209
27.5909
28.1086
28.8167
29.7703
31.0343
32.6687
23.8982
23.9781
24.1446
24.4116
24.8021
25.3503
26.1054
27.1362
28.5333
30.3929
23.8982
23.978
24.1445
24.4116
24.8021
25.3502
26.1053
27.1362
28.5332
30.3929
23.8981
23.978
24.1445
24.4115
24.802
25.3502
26.1053
27.1361
28.5331
30.3928
23.8981
23.978
24.1444
24.4115
24.802
25.3502
26.1052
27.1361
28.5331
30.3928
23.8981
23.978
24.1444
24.4115
24.802
25.3501
26.1052
27.1361
28.5331
30.3928
23.8981
23.978
24.1444
24.4115
24.802
25.3501
26.1052
27.1361
28.5331
30.3928
23.8981
23.978
24.1444
24.4115
24.802
25.3502
26.1052
27.1361
28.5331
30.3928
23.8981
23.978
24.1445
24.4115
24.802
25.3502
26.1053
27.1361
28.5331
30.3928
23.8982
23.978
24.1445
24.4116
24.8021
25.3502
26.1053
27.1362
28.5332
30.3929
23.8982
23.9781
24.1445
24.4116
24.8021
25.3503
26.1053
27.1362
28.5333
30.3929
21.3048
21.3847
21.5509
21.8167
22.2042
22.7472
23.4976
24.5363
25.9953
28.0829
21.3048
21.3847
21.5508
21.8166
22.2041
22.7472
23.4975
24.5363
25.9952
28.0828
21.3048
21.3846
21.5508
21.8166
22.2041
22.7471
23.4975
24.5362
25.9952
28.0828
21.3047
21.3846
21.5508
21.8166
22.204
22.7471
23.4975
24.5362
25.9952
28.0827
21.3047
21.3846
21.5507
21.8165
22.204
22.7471
23.4975
24.5362
25.9951
28.0827
21.3047
21.3846
21.5507
21.8165
22.204
22.7471
23.4975
24.5362
25.9951
28.0827
21.3047
21.3846
21.5508
21.8165
22.204
22.7471
23.4975
24.5362
25.9952
28.0827
21.3047
21.3846
21.5508
21.8166
22.2041
22.7471
23.4975
24.5362
25.9952
28.0828
21.3048
21.3847
21.5508
21.8166
22.2041
22.7472
23.4975
24.5363
25.9952
28.0828
21.3048
21.3847
21.5509
21.8167
22.2042
22.7472
23.4976
24.5363
25.9953
28.0829
18.9457
19.0216
19.1788
19.4285
19.789
20.288
20.9683
21.9027
23.2396
25.3763
18.9456
19.0215
19.1788
19.4285
19.789
20.2879
20.9683
21.9026
23.2395
25.3762
18.9456
19.0215
19.1787
19.4285
19.7889
20.2879
20.9682
21.9026
23.2395
25.3762
18.9456
19.0215
19.1787
19.4284
19.7889
20.2879
20.9682
21.9026
23.2395
25.3762
18.9456
19.0215
19.1787
19.4284
19.7889
20.2878
20.9682
21.9026
23.2394
25.3762
18.9456
19.0215
19.1787
19.4284
19.7889
20.2878
20.9682
21.9026
23.2394
25.3762
18.9456
19.0215
19.1787
19.4284
19.7889
20.2879
20.9682
21.9026
23.2395
25.3762
18.9456
19.0215
19.1787
19.4285
19.7889
20.2879
20.9682
21.9026
23.2395
25.3762
18.9456
19.0215
19.1788
19.4285
19.789
20.2879
20.9683
21.9026
23.2395
25.3763
18.9456
19.0216
19.1788
19.4285
19.789
20.288
20.9683
21.9027
23.2396
25.3763
47.1362
47.478
49.3275
52.5104
57.0292
63.0083
70.7032
80.5663
93.4215
110.926
47.1362
47.4779
49.3274
52.5103
57.0291
63.0082
70.7031
80.5662
93.4214
110.926
47.1361
47.4778
49.3273
52.5102
57.029
63.0081
70.703
80.5661
93.4213
110.926
47.1361
47.4778
49.3273
52.5102
57.029
63.0081
70.7029
80.5661
93.4213
110.926
47.1361
47.4778
49.3272
52.5101
57.029
63.0081
70.7029
80.566
93.4213
110.926
47.1361
47.4778
49.3272
52.5101
57.0289
63.0081
70.7029
80.566
93.4213
110.926
47.1361
47.4778
49.3272
52.5101
57.029
63.0081
70.7029
80.5661
93.4213
110.926
47.1361
47.4778
49.3273
52.5102
57.029
63.0081
70.7029
80.5661
93.4213
110.926
47.1361
47.4778
49.3273
52.5102
57.029
63.0082
70.703
80.5662
93.4214
110.926
47.1362
47.4779
49.3274
52.5103
57.0291
63.0082
70.7031
80.5662
93.4215
110.926
45.5439
46.4929
48.5578
51.7749
56.2022
61.9549
69.2219
78.2812
89.4927
103.147
45.5438
46.4928
48.5577
51.7748
56.2021
61.9548
69.2218
78.2811
89.4926
103.147
45.5438
46.4927
48.5577
51.7747
56.202
61.9547
69.2217
78.281
89.4925
103.147
45.5437
46.4927
48.5576
51.7747
56.202
61.9547
69.2217
78.2809
89.4924
103.147
45.5437
46.4927
48.5576
51.7747
56.202
61.9546
69.2217
78.2809
89.4924
103.147
45.5437
46.4926
48.5576
51.7746
56.202
61.9546
69.2217
78.2809
89.4924
103.147
45.5437
46.4927
48.5576
51.7747
56.202
61.9547
69.2217
78.2809
89.4924
103.147
45.5437
46.4927
48.5576
51.7747
56.202
61.9547
69.2217
78.2809
89.4925
103.147
45.5438
46.4927
48.5577
51.7748
56.2021
61.9548
69.2218
78.281
89.4925
103.147
45.5438
46.4928
48.5578
51.7748
56.2021
61.9548
69.2219
78.2811
89.4926
103.147
43.4811
44.9185
47.2016
50.4304
54.6834
60.0496
66.6359
74.5516
83.8441
94.3177
43.4811
44.9184
47.2015
50.4303
54.6833
60.0495
66.6358
74.5515
83.844
94.3175
43.481
44.9184
47.2014
50.4302
54.6833
60.0494
66.6357
74.5514
83.8439
94.3175
43.481
44.9183
47.2014
50.4302
54.6832
60.0494
66.6357
74.5514
83.8438
94.3174
43.4809
44.9183
47.2013
50.4301
54.6832
60.0494
66.6357
74.5514
83.8438
94.3174
43.4809
44.9183
47.2013
50.4301
54.6832
60.0493
66.6356
74.5513
83.8438
94.3174
43.481
44.9183
47.2013
50.4301
54.6832
60.0494
66.6357
74.5514
83.8438
94.3174
43.481
44.9183
47.2014
50.4302
54.6832
60.0494
66.6357
74.5514
83.8439
94.3174
43.481
44.9184
47.2014
50.4302
54.6833
60.0495
66.6358
74.5515
83.8439
94.3175
43.4811
44.9185
47.2015
50.4303
54.6834
60.0496
66.6359
74.5516
83.844
94.3176
41.2603
43.0296
45.4671
48.6635
52.6852
57.5866
63.4081
70.1541
77.7401
85.8954
41.2602
43.0295
45.467
48.6634
52.6851
57.5865
63.408
70.154
77.74
85.8953
41.2602
43.0295
45.4669
48.6634
52.685
57.5864
63.4079
70.1539
77.7399
85.8952
41.2601
43.0294
45.4669
48.6633
52.685
57.5863
63.4078
70.1539
77.7398
85.8952
41.2601
43.0294
45.4668
48.6633
52.685
57.5863
63.4078
70.1538
77.7398
85.8951
41.2601
43.0294
45.4668
48.6633
52.685
57.5863
63.4078
70.1538
77.7398
85.8951
41.2601
43.0294
45.4669
48.6633
52.685
57.5863
63.4078
70.1539
77.7398
85.8952
41.2602
43.0295
45.4669
48.6633
52.685
57.5864
63.4079
70.1539
77.7399
85.8952
41.2602
43.0295
45.467
48.6634
52.6851
57.5864
63.4079
70.154
77.7399
85.8953
41.2603
43.0296
45.467
48.6635
52.6852
57.5865
63.408
70.1541
77.74
85.8954
39.0079
41.0069
43.5425
46.6736
50.4407
54.8652
59.9428
65.6256
71.7937
78.2187
39.0078
41.0068
43.5424
46.6735
50.4406
54.8651
59.9427
65.6255
71.7936
78.2186
39.0078
41.0068
43.5423
46.6734
50.4405
54.8651
59.9426
65.6254
71.7935
78.2185
39.0077
41.0067
43.5423
46.6734
50.4405
54.865
59.9426
65.6254
71.7935
78.2185
39.0077
41.0067
43.5422
46.6734
50.4404
54.865
59.9425
65.6254
71.7934
78.2185
39.0077
41.0067
43.5422
46.6734
50.4404
54.865
59.9425
65.6254
71.7934
78.2185
39.0077
41.0067
43.5423
46.6734
50.4404
54.865
59.9426
65.6254
71.7935
78.2185
39.0078
41.0067
43.5423
46.6734
50.4405
54.8651
59.9426
65.6254
71.7935
78.2185
39.0078
41.0068
43.5424
46.6735
50.4406
54.8651
59.9427
65.6255
71.7936
78.2186
39.0079
41.0069
43.5424
46.6736
50.4406
54.8652
59.9428
65.6256
71.7937
78.2187
36.8005
38.983
41.5913
44.6493
48.171
52.1516
56.5583
61.32
66.3173
71.3798
36.8004
38.9829
41.5912
44.6492
48.1709
52.1515
56.5582
61.3199
66.3171
71.3797
36.8004
38.9828
41.5911
44.6492
48.1709
52.1514
56.5581
61.3198
66.3171
71.3796
36.8003
38.9828
41.5911
44.6491
48.1708
52.1514
56.5581
61.3197
66.317
71.3795
36.8003
38.9828
41.5911
44.6491
48.1708
52.1514
56.5581
61.3197
66.317
71.3795
36.8003
38.9828
41.5911
44.6491
48.1708
52.1514
56.5581
61.3197
66.317
71.3795
36.8003
38.9828
41.5911
44.6491
48.1708
52.1514
56.5581
61.3197
66.317
71.3795
36.8003
38.9828
41.5911
44.6492
48.1709
52.1514
56.5581
61.3198
66.3171
71.3796
36.8004
38.9829
41.5912
44.6492
48.1709
52.1515
56.5582
61.3199
66.3171
71.3797
36.8005
38.983
41.5913
44.6493
48.171
52.1516
56.5583
61.32
66.3173
71.3798
34.6956
37.0676
39.7581
42.7616
46.0733
49.6708
53.503
57.4849
61.5005
65.4217
34.6955
37.0676
39.758
42.7615
46.0732
49.6707
53.5029
57.4848
61.5004
65.4216
34.6955
37.0675
39.7579
42.7615
46.0731
49.6706
53.5028
57.4847
61.5003
65.4215
34.6954
37.0675
39.7579
42.7614
46.0731
49.6706
53.5028
57.4847
61.5003
65.4215
34.6954
37.0674
39.7579
42.7614
46.0731
49.6705
53.5028
57.4847
61.5002
65.4214
34.6954
37.0674
39.7579
42.7614
46.0731
49.6705
53.5028
57.4847
61.5002
65.4214
34.6954
37.0675
39.7579
42.7614
46.0731
49.6706
53.5028
57.4847
61.5003
65.4215
34.6955
37.0675
39.7579
42.7615
46.0731
49.6706
53.5028
57.4847
61.5003
65.4215
34.6955
37.0675
39.758
42.7615
46.0732
49.6707
53.5029
57.4848
61.5004
65.4216
34.6956
37.0676
39.7581
42.7616
46.0733
49.6708
53.503
57.4849
61.5005
65.4217
32.743
35.3653
38.177
41.1638
44.3185
47.6119
50.9798
54.3197
57.4999
60.3961
32.7429
35.3652
38.1769
41.1637
44.3184
47.6118
50.9797
54.3196
57.4998
60.396
32.7429
35.3651
38.1769
41.1636
44.3183
47.6117
50.9797
54.3195
57.4998
60.3959
32.7428
35.3651
38.1768
41.1636
44.3183
47.6117
50.9796
54.3195
57.4997
60.3959
32.7428
35.3651
38.1768
41.1636
44.3183
47.6117
50.9796
54.3195
57.4997
60.3959
32.7428
35.3651
38.1768
41.1636
44.3183
47.6117
50.9796
54.3195
57.4997
60.3959
32.7428
35.3651
38.1768
41.1636
44.3183
47.6117
50.9796
54.3195
57.4997
60.3959
32.7429
35.3651
38.1769
41.1637
44.3183
47.6117
50.9797
54.3196
57.4998
60.3959
32.7429
35.3652
38.177
41.1637
44.3184
47.6118
50.9798
54.3196
57.4998
60.396
32.743
35.3653
38.177
41.1638
44.3185
47.6119
50.9799
54.3197
57.4999
60.3961
31.0091
34.0002
36.9831
39.9935
43.0513
46.133
49.164
52.0147
54.5014
56.4149
31.009
34.0002
36.983
39.9934
43.0512
46.1329
49.1639
52.0146
54.5013
56.4148
31.009
34.0001
36.9829
39.9934
43.0512
46.1328
49.1639
52.0145
54.5012
56.4147
31.009
34.0001
36.9829
39.9933
43.0511
46.1328
49.1638
52.0145
54.5012
56.4146
31.0089
34.0001
36.9829
39.9933
43.0511
46.1328
49.1638
52.0145
54.5011
56.4146
31.0089
34.0001
36.9829
39.9933
43.0511
46.1328
49.1638
52.0145
54.5011
56.4146
31.009
34.0001
36.9829
39.9933
43.0511
46.1328
49.1638
52.0145
54.5012
56.4147
31.009
34.0001
36.9829
39.9934
43.0512
46.1329
49.1639
52.0146
54.5012
56.4147
31.0091
34.0002
36.983
39.9934
43.0513
46.1329
49.1639
52.0146
54.5013
56.4148
31.0091
34.0003
36.9831
39.9935
43.0514
46.133
49.164
52.0147
54.5014
56.4149
29.6925
33.1652
36.3202
39.369
42.3848
45.3573
48.2057
50.7715
52.7902
53.8092
29.6924
33.1651
36.3202
39.3689
42.3847
45.3573
48.2056
50.7714
52.7901
53.8092
29.6924
33.1651
36.3201
39.3689
42.3847
45.3572
48.2055
50.7714
52.7901
53.8091
29.6924
33.165
36.3201
39.3688
42.3846
45.3572
48.2055
50.7713
52.79
53.809
29.6924
33.165
36.3201
39.3688
42.3846
45.3572
48.2055
50.7713
52.79
53.809
29.6924
33.165
36.3201
39.3688
42.3846
45.3572
48.2055
50.7713
52.79
53.809
29.6924
33.165
36.3201
39.3688
42.3846
45.3572
48.2055
50.7713
52.79
53.809
29.6924
33.1651
36.3202
39.3689
42.3847
45.3572
48.2056
50.7714
52.7901
53.8091
29.6925
33.1651
36.3202
39.3689
42.3848
45.3573
48.2056
50.7715
52.7902
53.8092
29.6925
33.1652
36.3203
39.369
42.3849
45.3574
48.2057
50.7716
52.7903
53.8093
136.936
149.435
157.191
162.683
166.788
169.897
172.219
173.877
174.946
175.47
136.936
149.435
157.191
162.683
166.788
169.897
172.219
173.877
174.946
175.47
136.936
149.435
157.191
162.682
166.788
169.897
172.219
173.877
174.946
175.47
136.936
149.435
157.191
162.682
166.788
169.897
172.219
173.877
174.946
175.47
136.936
149.435
157.191
162.682
166.788
169.897
172.219
173.877
174.946
175.47
136.936
149.435
157.191
162.682
166.788
169.897
172.219
173.877
174.946
175.47
136.936
149.435
157.191
162.682
166.788
169.897
172.219
173.877
174.946
175.47
136.936
149.435
157.191
162.682
166.788
169.897
172.219
173.877
174.946
175.47
136.936
149.435
157.191
162.683
166.788
169.897
172.219
173.877
174.946
175.47
136.936
149.435
157.191
162.683
166.788
169.897
172.219
173.877
174.946
175.47
118.585
129.87
137.914
143.806
148.218
151.542
154.009
155.762
156.889
157.441
118.585
129.87
137.914
143.805
148.218
151.542
154.009
155.762
156.889
157.441
118.585
129.87
137.914
143.805
148.218
151.542
154.009
155.762
156.889
157.441
118.585
129.87
137.914
143.805
148.218
151.542
154.009
155.762
156.889
157.441
118.584
129.87
137.914
143.805
148.218
151.542
154.009
155.762
156.889
157.441
118.584
129.87
137.914
143.805
148.218
151.542
154.009
155.762
156.889
157.441
118.585
129.87
137.914
143.805
148.218
151.542
154.009
155.762
156.889
157.441
118.585
129.87
137.914
143.805
148.218
151.542
154.009
155.762
156.889
157.441
118.585
129.87
137.914
143.805
148.218
151.542
154.009
155.762
156.889
157.441
118.585
129.87
137.914
143.806
148.218
151.542
154.009
155.762
156.889
157.441
105.122
114.287
121.536
127.157
131.491
134.801
137.275
139.039
140.174
140.73
105.122
114.287
121.536
127.157
131.491
134.801
137.275
139.039
140.174
140.73
105.122
114.287
121.536
127.157
131.491
134.801
137.275
139.039
140.174
140.73
105.122
114.287
121.536
127.157
131.491
134.801
137.275
139.039
140.174
140.73
105.122
114.287
121.536
127.157
131.491
134.801
137.275
139.039
140.174
140.73
105.122
114.287
121.536
127.157
131.491
134.801
137.275
139.039
140.174
140.73
105.122
114.287
121.536
127.157
131.491
134.801
137.275
139.039
140.174
140.73
105.122
114.287
121.536
127.157
131.491
134.801
137.275
139.039
140.174
140.73
105.122
114.287
121.536
127.157
131.491
134.801
137.275
139.039
140.174
140.73
105.122
114.287
121.536
127.157
131.491
134.801
137.275
139.039
140.174
140.73
94.0468
101.374
107.546
112.565
116.559
119.674
122.033
123.728
124.824
125.362
94.0467
101.374
107.546
112.565
116.559
119.674
122.033
123.728
124.824
125.362
94.0466
101.374
107.546
112.565
116.559
119.674
122.033
123.728
124.824
125.362
94.0466
101.374
107.546
112.565
116.559
119.674
122.033
123.727
124.824
125.362
94.0465
101.374
107.546
112.565
116.559
119.674
122.033
123.727
124.824
125.362
94.0465
101.374
107.546
112.565
116.559
119.674
122.033
123.727
124.824
125.362
94.0466
101.374
107.546
112.565
116.559
119.674
122.033
123.727
124.824
125.362
94.0466
101.374
107.546
112.565
116.559
119.674
122.033
123.728
124.824
125.362
94.0467
101.374
107.546
112.565
116.559
119.674
122.033
123.728
124.824
125.362
94.0468
101.374
107.546
112.565
116.559
119.674
122.033
123.728
124.824
125.363
84.5483
90.3805
95.479
99.7739
103.291
106.092
108.246
109.811
110.829
111.332
84.5482
90.3804
95.4789
99.7738
103.291
106.092
108.246
109.811
110.829
111.332
84.5481
90.3803
95.4788
99.7737
103.291
106.092
108.246
109.81
110.829
111.332
84.548
90.3803
95.4788
99.7737
103.291
106.092
108.246
109.81
110.829
111.331
84.548
90.3803
95.4788
99.7736
103.291
106.092
108.246
109.81
110.829
111.331
84.548
90.3803
95.4788
99.7736
103.291
106.092
108.246
109.81
110.829
111.331
84.548
90.3803
95.4788
99.7737
103.291
106.092
108.246
109.81
110.829
111.331
84.5481
90.3803
95.4788
99.7737
103.291
106.092
108.246
109.81
110.829
111.332
84.5482
90.3804
95.4789
99.7738
103.291
106.092
108.246
109.811
110.829
111.332
84.5483
90.3805
95.479
99.7739
103.291
106.093
108.246
109.811
110.829
111.332
76.3019
80.8857
84.9898
88.5424
91.5252
93.9512
95.8465
97.2393
98.1536
98.6064
76.3018
80.8856
84.9897
88.5423
91.5251
93.9511
95.8464
97.2392
98.1535
98.6063
76.3017
80.8855
84.9896
88.5422
91.525
93.951
95.8463
97.2391
98.1534
98.6063
76.3017
80.8855
84.9896
88.5421
91.525
93.951
95.8463
97.2391
98.1534
98.6062
76.3016
80.8854
84.9895
88.5421
91.5249
93.9509
95.8463
97.2391
98.1534
98.6062
76.3016
80.8854
84.9896
88.5421
91.5249
93.9509
95.8463
97.2391
98.1534
98.6062
76.3017
80.8855
84.9896
88.5421
91.525
93.951
95.8463
97.2391
98.1534
98.6063
76.3017
80.8855
84.9896
88.5422
91.525
93.951
95.8464
97.2392
98.1535
98.6063
76.3018
80.8856
84.9897
88.5423
91.5251
93.9511
95.8465
97.2392
98.1536
98.6064
76.3019
80.8857
84.9898
88.5424
91.5252
93.9512
95.8466
97.2394
98.1537
98.6065
69.1472
72.6344
75.8248
78.6606
81.1026
83.1319
84.7447
85.945
86.7399
87.1356
69.1471
72.6343
75.8247
78.6605
81.1025
83.1318
84.7446
85.9449
86.7398
87.1355
69.147
72.6342
75.8246
78.6604
81.1024
83.1317
84.7445
85.9448
86.7397
87.1354
69.147
72.6342
75.8245
78.6603
81.1023
83.1317
84.7445
85.9448
86.7397
87.1354
69.1469
72.6342
75.8245
78.6603
81.1023
83.1317
84.7444
85.9448
86.7397
87.1354
69.1469
72.6342
75.8245
78.6603
81.1023
83.1317
84.7444
85.9448
86.7397
87.1354
69.147
72.6342
75.8245
78.6603
81.1023
83.1317
84.7445
85.9448
86.7397
87.1354
69.147
72.6343
75.8246
78.6604
81.1024
83.1318
84.7445
85.9449
86.7398
87.1355
69.1471
72.6343
75.8247
78.6605
81.1025
83.1319
84.7446
85.945
86.7399
87.1356
69.1472
72.6345
75.8248
78.6606
81.1026
83.132
84.7447
85.9451
86.74
87.1357
62.9797
65.4388
67.7812
69.9465
71.8723
73.5139
74.8438
75.8476
76.5188
76.8547
62.9796
65.4387
67.7811