/*--------------------------------*- C++ -*----------------------------------*\
  =========                 |
  \\      /  F ield         | OpenFOAM: The Open Source CFD Toolbox
   \\    /   O peration     | Website:  https://openfoam.org
    \\  /    A nd           | Version:  6
     \\/     M anipulation  |
\*---------------------------------------------------------------------------*/
FoamFile
{
    version     2.0;
    format      ascii;
    class       volScalarField;
    location    "0.05";
    object      p;
}
// * * * * * * * * * * * * * * * * * * * * * * * * * * * * * * * * * * * * * //

dimensions      [0 2 -2 0 0 0 0];

internalField   nonuniform List<scalar> 
56000
(
1.74118e-05
0.00120649
0.0032905
0.00499539
0.00633908
0.00680146
0.00621512
0.00474222
0.00254369
-9.98278e-05
-0.00281931
-0.00523401
-0.00698573
-0.00782163
-0.00763397
-0.00634734
-0.00425087
-0.00199741
0.000296697
0.001404
-0.00102686
-5.06003e-05
0.0042668
0.00537518
0.00665614
0.0072894
0.0064906
0.00487706
0.00260163
-0.000146282
-0.00298751
-0.00551927
-0.00737125
-0.00837775
-0.0084301
-0.00698874
-0.00495796
-0.00325471
0.00130083
0.00222456
-0.00325771
-0.000601724
0.0042056
0.00514238
0.00675161
0.00753358
0.0066234
0.00495823
0.0026413
-0.000183631
-0.0031152
-0.00573028
-0.00763419
-0.00870324
-0.00887161
-0.00727151
-0.00488978
-0.00330948
0.00176616
0.0043854
-0.00634878
-0.00280481
0.00285129
0.00449189
0.00656651
0.00750167
0.00663455
0.00501008
0.00268465
-0.000189329
-0.00317837
-0.00584026
-0.00774644
-0.00876193
-0.00886457
-0.00707471
-0.00418008
-0.00184114
0.00412435
0.00764552
-0.00954319
-0.00508679
0.00149298
0.00369514
0.0060988
0.00725671
0.00654114
0.00500458
0.00270402
-0.000177893
-0.00317974
-0.00584175
-0.00770613
-0.00860584
-0.00851682
-0.00645124
-0.0031658
-0.000202577
0.00673383
0.0111907
-0.0125374
-0.00723401
6.4133e-05
0.00274653
0.00551268
0.00695024
0.00641469
0.00497647
0.00271868
-0.000147743
-0.0031382
-0.00577368
-0.00757246
-0.0083382
-0.0080206
-0.00561531
-0.0019007
0.00160701
0.00930909
0.0146382
-0.0151147
-0.00918911
-0.00131688
0.00181499
0.0049371
0.00663719
0.00627042
0.00493239
0.00272949
-0.000106815
-0.00307146
-0.00566482
-0.00738433
-0.00801284
-0.00747739
-0.00475089
-0.000617214
0.00339887
0.0117171
0.0176891
-0.0171221
-0.0107475
-0.00244087
0.00104724
0.00444981
0.00635748
0.00613219
0.00488543
0.00273769
-6.46568e-05
-0.00299912
-0.0055476
-0.00718998
-0.00769432
-0.00697459
-0.0039904
0.000476425
0.00489663
0.0136821
0.0201178
-0.0184888
-0.0118179
-0.00322385
0.000503117
0.0040958
0.00614844
0.00602661
0.00484895
0.00274431
-3.02126e-05
-0.00293943
-0.00545189
-0.00703475
-0.00744561
-0.00659106
-0.00342567
0.00126877
0.00596124
0.0150561
0.0217968
-0.0191801
-0.0123638
-0.00362784
0.00021884
0.00390865
0.00603699
0.00597016
0.0048295
0.00274816
-1.09534e-05
-0.00290601
-0.00539868
-0.0069495
-0.00731045
-0.00638437
-0.00312433
0.00168669
0.00651598
0.0157637
0.0226539
-0.0191801
-0.0123637
-0.00362781
0.00021888
0.00390871
0.00603705
0.00597023
0.00482958
0.00274824
-1.08792e-05
-0.00290594
-0.00539862
-0.00694944
-0.0073104
-0.00638433
-0.00312429
0.00168673
0.00651601
0.0157637
0.0226539
-0.0184888
-0.0118178
-0.00322378
0.000503225
0.00409594
0.0061486
0.00602679
0.00484914
0.00274449
-3.00394e-05
-0.00293927
-0.00545174
-0.00703462
-0.00744551
-0.00659098
-0.0034256
0.00126884
0.0059613
0.0150562
0.0217969
-0.0171221
-0.0107474
-0.00244073
0.00104744
0.00445005
0.00635776
0.00613248
0.00488573
0.00273798
-6.43729e-05
-0.00299885
-0.00554736
-0.00718978
-0.00769416
-0.00697446
-0.00399029
0.00047652
0.00489672
0.0136822
0.0201178
-0.0151146
-0.00918897
-0.00131666
0.00181526
0.00493741
0.00663753
0.00627077
0.00493275
0.00272984
-0.00010648
-0.00307115
-0.00566455
-0.00738411
-0.00801266
-0.00747726
-0.0047508
-0.000617158
0.00339891
0.0117171
0.0176891
-0.0125373
-0.00723381
6.44176e-05
0.00274684
0.00551301
0.0069506
0.00641506
0.00497685
0.00271904
-0.000147409
-0.00313791
-0.00577344
-0.00757226
-0.00833806
-0.00802052
-0.0056153
-0.00190074
0.00160695
0.00930904
0.0146382
-0.00954302
-0.00508657
0.00149323
0.00369539
0.00609907
0.00725701
0.00654145
0.0050049
0.00270432
-0.000177639
-0.00317954
-0.0058416
-0.00770603
-0.00860579
-0.00851685
-0.00645135
-0.00316597
-0.00020278
0.00673367
0.0111907
-0.00634841
-0.00280446
0.00285153
0.00449204
0.00656669
0.00750188
0.00663478
0.0050103
0.00268484
-0.000189193
-0.0031783
-0.00584025
-0.00774648
-0.00876202
-0.00886471
-0.00707491
-0.00418033
-0.00184138
0.00412412
0.00764541
-0.00325648
-0.000601106
0.00420602
0.00514252
0.00675172
0.00753374
0.00662358
0.0049584
0.00264143
-0.000183562
-0.0031152
-0.00573034
-0.00763429
-0.00870336
-0.00887175
-0.00727167
-0.00488994
-0.00330968
0.00176591
0.00438533
-0.00102267
-4.91673e-05
0.00426758
0.00537563
0.00665651
0.00728982
0.00649104
0.00487749
0.002602
-0.000145983
-0.00298729
-0.00551911
-0.00737112
-0.00837765
-0.00842999
-0.00698862
-0.00495784
-0.00325466
0.00130115
0.00222452
4.20887e-05
0.00121088
0.00329174
0.00499595
0.00633956
0.00680197
0.00621562
0.00474269
0.00254412
-9.9462e-05
-0.002819
-0.00523374
-0.00698548
-0.0078214
-0.00763375
-0.00634712
-0.00425065
-0.00199726
0.000296939
0.00140382
-1.0929
-1.09031
-1.0849
-1.07853
-1.07192
-1.06613
-1.06163
-1.05836
-1.05609
-1.05434
-1.05248
-1.04985
-1.04588
-1.04025
-1.03297
-1.02433
-1.01523
-1.00717
-1.00126
-0.999045
-1.09461
-1.09116
-1.08289
-1.07692
-1.07043
-1.06466
-1.06063
-1.0578
-1.05593
-1.05461
-1.05321
-1.05106
-1.04756
-1.04245
-1.03572
-1.02713
-1.0181
-1.01029
-1.0014
-0.998351
-1.09956
-1.09303
-1.08329
-1.07698
-1.06994
-1.06398
-1.06015
-1.05753
-1.05589
-1.05487
-1.05379
-1.05195
-1.04872
-1.04385
-1.03731
-1.02848
-1.0188
-1.0105
-1.00005
-0.993976
-1.10708
-1.0982
-1.08643
-1.07867
-1.07068
-1.06429
-1.06028
-1.05757
-1.05596
-1.05505
-1.05409
-1.05234
-1.04911
-1.04411
-1.03731
-1.02791
-1.01712
-1.0072
-0.994642
-0.986245
-1.11553
-1.1043
-1.09037
-1.0812
-1.07227
-1.06524
-1.06081
-1.05786
-1.05613
-1.05516
-1.05415
-1.05232
-1.04891
-1.04355
-1.03619
-1.02598
-1.01406
-1.00253
-0.987702
-0.976945
-1.12389
-1.11051
-1.09471
-1.0842
-1.07427
-1.0665
-1.06156
-1.05827
-1.05632
-1.0552
-1.05404
-1.05202
-1.0483
-1.04249
-1.03445
-1.02329
-1.01014
-0.997089
-0.980262
-0.967324
-1.13138
-1.11629
-1.09891
-1.08719
-1.07631
-1.06782
-1.06237
-1.05872
-1.05652
-1.05519
-1.05383
-1.05155
-1.04749
-1.04119
-1.03246
-1.02039
-1.00608
-0.991631
-0.973116
-0.958431
-1.13743
-1.12104
-1.10244
-1.08975
-1.0781
-1.06901
-1.06311
-1.05914
-1.05669
-1.05515
-1.05358
-1.05105
-1.04667
-1.03992
-1.03061
-1.01776
-1.00251
-0.986927
-0.967099
-0.951097
-1.14164
-1.12439
-1.10497
-1.09161
-1.07941
-1.0699
-1.06368
-1.05945
-1.05681
-1.0551
-1.05337
-1.05065
-1.04602
-1.03893
-1.02918
-1.01579
-0.999862
-0.983504
-0.962785
-0.945902
-1.14381
-1.12613
-1.10629
-1.09259
-1.08011
-1.07037
-1.06398
-1.05962
-1.05687
-1.05508
-1.05326
-1.05043
-1.04566
-1.0384
-1.02841
-1.01473
-0.998459
-0.981703
-0.960536
-0.943214
-1.14381
-1.12613
-1.10629
-1.09259
-1.08011
-1.07037
-1.06398
-1.05962
-1.05687
-1.05508
-1.05326
-1.05043
-1.04566
-1.0384
-1.02841
-1.01473
-0.998459
-0.981703
-0.960536
-0.943214
-1.14164
-1.12439
-1.10497
-1.09161
-1.07941
-1.0699
-1.06368
-1.05945
-1.05681
-1.0551
-1.05337
-1.05065
-1.04602
-1.03893
-1.02918
-1.01579
-0.999862
-0.983504
-0.962785
-0.945902
-1.13743
-1.12104
-1.10244
-1.08975
-1.0781
-1.06901
-1.06311
-1.05914
-1.05669
-1.05515
-1.05358
-1.05105
-1.04667
-1.03992
-1.03061
-1.01776
-1.00251
-0.986927
-0.967099
-0.951097
-1.13138
-1.11629
-1.09891
-1.08719
-1.07631
-1.06782
-1.06237
-1.05872
-1.05652
-1.05519
-1.05383
-1.05155
-1.04749
-1.04119
-1.03246
-1.02039
-1.00608
-0.991631
-0.973116
-0.958431
-1.12389
-1.11051
-1.09471
-1.0842
-1.07427
-1.0665
-1.06156
-1.05827
-1.05632
-1.0552
-1.05404
-1.05201
-1.0483
-1.04249
-1.03445
-1.02329
-1.01014
-0.997089
-0.980262
-0.967324
-1.11553
-1.1043
-1.09037
-1.0812
-1.07227
-1.06524
-1.06081
-1.05786
-1.05613
-1.05516
-1.05415
-1.05232
-1.04891
-1.04355
-1.03619
-1.02598
-1.01406
-1.00253
-0.987702
-0.976945
-1.10708
-1.0982
-1.08643
-1.07867
-1.07068
-1.06429
-1.06028
-1.05757
-1.05596
-1.05505
-1.05409
-1.05234
-1.04911
-1.04411
-1.03731
-1.02792
-1.01712
-1.0072
-0.994642
-0.986245
-1.09956
-1.09303
-1.08329
-1.07698
-1.06994
-1.06398
-1.06015
-1.05752
-1.05589
-1.05487
-1.05379
-1.05195
-1.04872
-1.04385
-1.03731
-1.02848
-1.0188
-1.0105
-1.00005
-0.993976
-1.09461
-1.09116
-1.08289
-1.07692
-1.07043
-1.06466
-1.06063
-1.0578
-1.05593
-1.05461
-1.05321
-1.05106
-1.04756
-1.04245
-1.03572
-1.02713
-1.0181
-1.01029
-1.0014
-0.998351
-1.09289
-1.09031
-1.0849
-1.07853
-1.07192
-1.06613
-1.06163
-1.05836
-1.05609
-1.05434
-1.05248
-1.04985
-1.04588
-1.04025
-1.03297
-1.02433
-1.01523
-1.00717
-1.00126
-0.999046
-2.18437
-2.18015
-2.17112
-2.15989
-2.14798
-2.137
-2.12774
-2.12023
-2.11412
-2.10869
-2.10297
-2.09596
-2.08682
-2.07505
-2.06076
-2.04459
-2.02809
-2.01371
-2.00367
-2.00007
-2.18698
-2.18064
-2.16804
-2.15699
-2.14525
-2.13449
-2.12599
-2.11923
-2.11386
-2.10921
-2.10433
-2.09818
-2.0899
-2.07906
-2.06567
-2.04977
-2.03335
-2.01887
-2.005
-1.99927
-2.19507
-2.18405
-2.16885
-2.1569
-2.14435
-2.13336
-2.12514
-2.11875
-2.11382
-2.10971
-2.10539
-2.09982
-2.09203
-2.08161
-2.06849
-2.05227
-2.03485
-2.01916
-2.00249
-1.99211
-2.20757
-2.19253
-2.17397
-2.15972
-2.1457
-2.13396
-2.12541
-2.11889
-2.11401
-2.11006
-2.10593
-2.10049
-2.09271
-2.08206
-2.06845
-2.05124
-2.03202
-2.0137
-1.99347
-1.97908
-2.22181
-2.20281
-2.18072
-2.16412
-2.14849
-2.13567
-2.12641
-2.11946
-2.11436
-2.11029
-2.10605
-2.10043
-2.0923
-2.08103
-2.06644
-2.0478
-2.02658
-2.00552
-1.98152
-1.9631
-2.23603
-2.21343
-2.18819
-2.16933
-2.152
-2.13792
-2.12779
-2.12026
-2.11476
-2.11038
-2.10584
-2.09984
-2.09116
-2.07907
-2.06328
-2.043
-2.01966
-1.99594
-1.96852
-1.94642
-2.24884
-2.22334
-2.19542
-2.17452
-2.15559
-2.1403
-2.12929
-2.12113
-2.11516
-2.11038
-2.10544
-2.09897
-2.08964
-2.07667
-2.05969
-2.03781
-2.01246
-1.98634
-1.95601
-1.93091
-2.25924
-2.23152
-2.20153
-2.17898
-2.15874
-2.14244
-2.13066
-2.12192
-2.11549
-2.11033
-2.10499
-2.09805
-2.08812
-2.07435
-2.05632
-2.03309
-2.0061
-1.97803
-1.94543
-1.91805
-2.26653
-2.23732
-2.20592
-2.18223
-2.16107
-2.14404
-2.13169
-2.12252
-2.11574
-2.11026
-2.10461
-2.0973
-2.08692
-2.07254
-2.05374
-2.02954
-2.00139
-1.97196
-1.93782
-1.90892
-2.27027
-2.24032
-2.20821
-2.18394
-2.1623
-2.14489
-2.13224
-2.12283
-2.11586
-2.11022
-2.1044
-2.09689
-2.08625
-2.07156
-2.05234
-2.02764
-1.99888
-1.96877
-1.93384
-1.90418
-2.27027
-2.24032
-2.20821
-2.18394
-2.1623
-2.14489
-2.13224
-2.12283
-2.11586
-2.11022
-2.1044
-2.09689
-2.08625
-2.07156
-2.05234
-2.02764
-1.99888
-1.96877
-1.93384
-1.90418
-2.26653
-2.23732
-2.20592
-2.18223
-2.16107
-2.14404
-2.13169
-2.12252
-2.11574
-2.11026
-2.10461
-2.0973
-2.08692
-2.07254
-2.05374
-2.02954
-2.00139
-1.97196
-1.93782
-1.90892
-2.25924
-2.23152
-2.20153
-2.17898
-2.15874
-2.14244
-2.13066
-2.12192
-2.11549
-2.11033
-2.10499
-2.09805
-2.08812
-2.07435
-2.05632
-2.03309
-2.0061
-1.97803
-1.94543
-1.91805
-2.24884
-2.22333
-2.19542
-2.17452
-2.15559
-2.1403
-2.12929
-2.12113
-2.11516
-2.11038
-2.10544
-2.09897
-2.08964
-2.07667
-2.05969
-2.03781
-2.01246
-1.98634
-1.95601
-1.93091
-2.23603
-2.21343
-2.18819
-2.16933
-2.152
-2.13792
-2.12779
-2.12026
-2.11476
-2.11038
-2.10584
-2.09984
-2.09116
-2.07907
-2.06329
-2.043
-2.01966
-1.99594
-1.96852
-1.94642
-2.22181
-2.20281
-2.18072
-2.16412
-2.14849
-2.13567
-2.12641
-2.11946
-2.11436
-2.11028
-2.10605
-2.10043
-2.0923
-2.08103
-2.06644
-2.0478
-2.02658
-2.00552
-1.98152
-1.9631
-2.20757
-2.19253
-2.17397
-2.15972
-2.14569
-2.13396
-2.12541
-2.11889
-2.11401
-2.11006
-2.10593
-2.10049
-2.09271
-2.08206
-2.06845
-2.05124
-2.03202
-2.0137
-1.99347
-1.97908
-2.19507
-2.18405
-2.16885
-2.1569
-2.14435
-2.13336
-2.12514
-2.11875
-2.11382
-2.10971
-2.10539
-2.09982
-2.09203
-2.08161
-2.06849
-2.05227
-2.03485
-2.01916
-2.00249
-1.99211
-2.18698
-2.18064
-2.16804
-2.15699
-2.14525
-2.13449
-2.12599
-2.11923
-2.11386
-2.10921
-2.10433
-2.09818
-2.0899
-2.07906
-2.06567
-2.04977
-2.03335
-2.01887
-2.005
-1.99927
-2.18436
-2.18014
-2.17112
-2.15989
-2.14798
-2.137
-2.12774
-2.12023
-2.11412
-2.10869
-2.10297
-2.09596
-2.08682
-2.07505
-2.06076
-2.04459
-2.02809
-2.01371
-2.00367
-2.00007
-3.27374
-3.26751
-3.25439
-3.23795
-3.22063
-3.20466
-3.19116
-3.18019
-3.17126
-3.1633
-3.1549
-3.14459
-3.13111
-3.11372
-3.09251
-3.06844
-3.04381
-3.02217
-3.00712
-3.00163
-3.27767
-3.26774
-3.25016
-3.23366
-3.21656
-3.20104
-3.1886
-3.17874
-3.17091
-3.16412
-3.15697
-3.14796
-3.13581
-3.11981
-3.09991
-3.07641
-3.05187
-3.02971
-3.00971
-3.00034
-3.28964
-3.27306
-3.25153
-3.23344
-3.21524
-3.19943
-3.18736
-3.17804
-3.17089
-3.16489
-3.15859
-3.15043
-3.13904
-3.12366
-3.10414
-3.0802
-3.05423
-3.02994
-3.00553
-2.98936
-3.30803
-3.28542
-3.25894
-3.23758
-3.21728
-3.20037
-3.18779
-3.17829
-3.1712
-3.16543
-3.15938
-3.1514
-3.14
-3.12428
-3.10397
-3.07851
-3.04988
-3.0217
-2.99189
-2.96952
-3.329
-3.30052
-3.26891
-3.24409
-3.22142
-3.2029
-3.18928
-3.17916
-3.17173
-3.16575
-3.15952
-3.15125
-3.13931
-3.12264
-3.10084
-3.07319
-3.0415
-3.00917
-2.9737
-2.94522
-3.34992
-3.31617
-3.27991
-3.25176
-3.2266
-3.20625
-3.19136
-3.18036
-3.17233
-3.16588
-3.15917
-3.1503
-3.1375
-3.11957
-3.09596
-3.06582
-3.0309
-2.99452
-2.95389
-2.91987
-3.36879
-3.33073
-3.29054
-3.25939
-3.23191
-3.20979
-3.1936
-3.18167
-3.17292
-3.16586
-3.15854
-3.14893
-3.13514
-3.11586
-3.09042
-3.05787
-3.01993
-2.9799
-2.93488
-2.89633
-3.3841
-3.34277
-3.29952
-3.26597
-3.23656
-3.21296
-3.19564
-3.18285
-3.17342
-3.16577
-3.15783
-3.1475
-3.13279
-3.11229
-3.08525
-3.05066
-3.01022
-2.96726
-2.91881
-2.87683
-3.39483
-3.3513
-3.30597
-3.27076
-3.24
-3.21532
-3.19717
-3.18374
-3.17378
-3.16565
-3.15723
-3.14634
-3.13093
-3.10951
-3.0813
-3.04524
-3.00304
-2.95804
-2.90725
-2.86298
-3.40035
-3.35572
-3.30934
-3.27327
-3.24182
-3.21658
-3.19799
-3.18421
-3.17397
-3.16558
-3.1569
-3.1457
-3.1299
-3.108
-3.07917
-3.04234
-2.99923
-2.95318
-2.90122
-2.85581
-3.40035
-3.35572
-3.30934
-3.27327
-3.24182
-3.21658
-3.19799
-3.18421
-3.17397
-3.16558
-3.1569
-3.1457
-3.1299
-3.108
-3.07917
-3.04235
-2.99923
-2.95318
-2.90122
-2.85581
-3.39483
-3.3513
-3.30597
-3.27075
-3.24
-3.21532
-3.19717
-3.18374
-3.17378
-3.16565
-3.15723
-3.14634
-3.13093
-3.10951
-3.0813
-3.04524
-3.00304
-2.95804
-2.90725
-2.86298
-3.3841
-3.34277
-3.29952
-3.26597
-3.23656
-3.21295
-3.19564
-3.18285
-3.17342
-3.16577
-3.15783
-3.1475
-3.13279
-3.11229
-3.08525
-3.05066
-3.01022
-2.96726
-2.91881
-2.87683
-3.36879
-3.33073
-3.29054
-3.25939
-3.2319
-3.20979
-3.1936
-3.18167
-3.17292
-3.16586
-3.15854
-3.14893
-3.13514
-3.11586
-3.09042
-3.05787
-3.01993
-2.9799
-2.93488
-2.89633
-3.34992
-3.31617
-3.27991
-3.25176
-3.2266
-3.20625
-3.19135
-3.18036
-3.17233
-3.16588
-3.15917
-3.1503
-3.1375
-3.11958
-3.09596
-3.06582
-3.0309
-2.99452
-2.95389
-2.91987
-3.329
-3.30052
-3.26891
-3.24408
-3.22142
-3.2029
-3.18928
-3.17916
-3.17173
-3.16575
-3.15952
-3.15125
-3.13931
-3.12264
-3.10084
-3.07319
-3.04151
-3.00917
-2.9737
-2.94522
-3.30803
-3.28542
-3.25894
-3.23757
-3.21728
-3.20037
-3.18778
-3.17829
-3.1712
-3.16543
-3.15938
-3.1514
-3.14
-3.12428
-3.10397
-3.07851
-3.04988
-3.0217
-2.99189
-2.96952
-3.28964
-3.27306
-3.25153
-3.23344
-3.21524
-3.19943
-3.18736
-3.17804
-3.17089
-3.16489
-3.15859
-3.15043
-3.13904
-3.12366
-3.10414
-3.0802
-3.05423
-3.02994
-3.00553
-2.98936
-3.27767
-3.26774
-3.25016
-3.23366
-3.21656
-3.20104
-3.1886
-3.17874
-3.17091
-3.16412
-3.15697
-3.14796
-3.13581
-3.11981
-3.09992
-3.07641
-3.05188
-3.02971
-3.00971
-3.00034
-3.27374
-3.26751
-3.25439
-3.23795
-3.22063
-3.20466
-3.19116
-3.18019
-3.17126
-3.1633
-3.1549
-3.14459
-3.13111
-3.11372
-3.09251
-3.06844
-3.04381
-3.02217
-3.00712
-3.00163
-4.35993
-4.35114
-4.33324
-4.31113
-4.28828
-4.26763
-4.25064
-4.23739
-4.22713
-4.21833
-4.209
-4.19701
-4.1805
-4.15831
-4.13037
-4.09793
-4.0641
-4.03376
-4.01234
-4.0042
-4.36577
-4.35125
-4.32778
-4.30527
-4.28271
-4.26276
-4.24719
-4.23545
-4.22671
-4.21953
-4.21192
-4.20175
-4.18713
-4.16689
-4.14079
-4.10928
-4.07558
-4.04418
-4.01628
-4.00176
-4.38267
-4.359
-4.32989
-4.30498
-4.28095
-4.26064
-4.24553
-4.23452
-4.2267
-4.22062
-4.21417
-4.20518
-4.19163
-4.17227
-4.14664
-4.11455
-4.07884
-4.04413
-4.00964
-3.98536
-4.40825
-4.37606
-4.34006
-4.31068
-4.28382
-4.26197
-4.24613
-4.23487
-4.22715
-4.22134
-4.21523
-4.20646
-4.19287
-4.17299
-4.1462
-4.11189
-4.07242
-4.03215
-3.98981
-3.9564
-4.43728
-4.3969
-4.3538
-4.31966
-4.28952
-4.26545
-4.24819
-4.23606
-4.22785
-4.22175
-4.21535
-4.20615
-4.19177
-4.17053
-4.14159
-4.10411
-4.0602
-4.01394
-3.96349
-3.92122
-4.46614
-4.41844
-4.36892
-4.33018
-4.29661
-4.27004
-4.25102
-4.2377
-4.22865
-4.22188
-4.21479
-4.20472
-4.1891
-4.16604
-4.13451
-4.09346
-4.04491
-3.99282
-3.93495
-3.88475
-4.49209
-4.43842
-4.38346
-4.34061
-4.30385
-4.27487
-4.25409
-4.23947
-4.22943
-4.2218
-4.21384
-4.2027
-4.18567
-4.16069
-4.12653
-4.08204
-4.02916
-3.97185
-3.90769
-3.85103
-4.51311
-4.45491
-4.39574
-4.34959
-4.3102
-4.27919
-4.25687
-4.24107
-4.23008
-4.22161
-4.21279
-4.20063
-4.18228
-4.15555
-4.11913
-4.07173
-4.01528
-3.95378
-3.88473
-3.82319
-4.52783
-4.46659
-4.40455
-4.35612
-4.31489
-4.28241
-4.25895
-4.24227
-4.23055
-4.22142
-4.21192
-4.19897
-4.17961
-4.15158
-4.11348
-4.06399
-4.00502
-3.94061
-3.86825
-3.80346
-4.5354
-4.47264
-4.40915
-4.35955
-4.31737
-4.28413
-4.26007
-4.24291
-4.2308
-4.22131
-4.21143
-4.19805
-4.17815
-4.14943
-4.11044
-4.05986
-3.99959
-3.93369
-3.85966
-3.79325
-4.5354
-4.47264
-4.40915
-4.35955
-4.31737
-4.28413
-4.26007
-4.24291
-4.2308
-4.22131
-4.21143
-4.19805
-4.17815
-4.14943
-4.11044
-4.05986
-3.99959
-3.93369
-3.85966
-3.79325
-4.52783
-4.46659
-4.40455
-4.35612
-4.31489
-4.28241
-4.25895
-4.24227
-4.23055
-4.22142
-4.21192
-4.19897
-4.17961
-4.15158
-4.11348
-4.06399
-4.00502
-3.94061
-3.86825
-3.80346
-4.51311
-4.45491
-4.39574
-4.34959
-4.3102
-4.27919
-4.25687
-4.24107
-4.23008
-4.22161
-4.21279
-4.20063
-4.18228
-4.15555
-4.11913
-4.07173
-4.01528
-3.95378
-3.88473
-3.82319
-4.49209
-4.43842
-4.38346
-4.34061
-4.30385
-4.27487
-4.25409
-4.23947
-4.22943
-4.22179
-4.21384
-4.2027
-4.18567
-4.16069
-4.12653
-4.08204
-4.02916
-3.97185
-3.90769
-3.85103
-4.46614
-4.41844
-4.36892
-4.33017
-4.29661
-4.27004
-4.25102
-4.2377
-4.22865
-4.22188
-4.21479
-4.20472
-4.1891
-4.16605
-4.13451
-4.09346
-4.04491
-3.99282
-3.93495
-3.88475
-4.43728
-4.3969
-4.3538
-4.31965
-4.28952
-4.26545
-4.24819
-4.23606
-4.22785
-4.22175
-4.21535
-4.20615
-4.19177
-4.17053
-4.14159
-4.10411
-4.0602
-4.01394
-3.96349
-3.92122
-4.40825
-4.37606
-4.34006
-4.31068
-4.28382
-4.26197
-4.24613
-4.23487
-4.22715
-4.22134
-4.21523
-4.20646
-4.19287
-4.17299
-4.1462
-4.11189
-4.07242
-4.03215
-3.98981
-3.9564
-4.38266
-4.359
-4.32989
-4.30497
-4.28095
-4.26064
-4.24552
-4.23451
-4.2267
-4.22061
-4.21417
-4.20518
-4.19163
-4.17227
-4.14664
-4.11455
-4.07884
-4.04413
-4.00964
-3.98536
-4.36577
-4.35124
-4.32778
-4.30527
-4.2827
-4.26276
-4.24719
-4.23544
-4.22671
-4.21953
-4.21192
-4.20175
-4.18713
-4.16689
-4.14079
-4.10928
-4.07558
-4.04418
-4.01628
-4.00176
-4.35993
-4.35114
-4.33324
-4.31112
-4.28828
-4.26763
-4.25064
-4.23739
-4.22713
-4.21833
-4.209
-4.19701
-4.1805
-4.15831
-4.13037
-4.09793
-4.0641
-4.03377
-4.01234
-4.0042
-5.44111
-5.42907
-5.40551
-5.37714
-5.34868
-5.32385
-5.30447
-5.2906
-5.28113
-5.27393
-5.26619
-5.25492
-5.23738
-5.21171
-5.1775
-5.13618
-5.09174
-5.05074
-5.02098
-5.00902
-5.44965
-5.42923
-5.39869
-5.36952
-5.34141
-5.31758
-5.30002
-5.28811
-5.28065
-5.27559
-5.27014
-5.26132
-5.24634
-5.22334
-5.19163
-5.15172
-5.10747
-5.0647
-5.02635
-5.00447
-5.47287
-5.44012
-5.4018
-5.36922
-5.33919
-5.31489
-5.29789
-5.28693
-5.28068
-5.27704
-5.27314
-5.26587
-5.25233
-5.2305
-5.19939
-5.15869
-5.11168
-5.06399
-5.01606
-4.98026
-5.50737
-5.46296
-5.41533
-5.37682
-5.34306
-5.3167
-5.29871
-5.2874
-5.28126
-5.27796
-5.27445
-5.26745
-5.25381
-5.23123
-5.19845
-5.15461
-5.10233
-5.04685
-4.98774
-4.93878
-5.5462
-5.49071
-5.43358
-5.38872
-5.35058
-5.32127
-5.30139
-5.28894
-5.28214
-5.27842
-5.2745
-5.26686
-5.2521
-5.22761
-5.19182
-5.14352
-5.085
-5.02107
-4.95053
-4.88902
-5.58458
-5.51928
-5.45357
-5.40257
-5.35989
-5.32727
-5.30509
-5.29106
-5.28312
-5.27849
-5.27363
-5.26478
-5.2483
-5.22128
-5.18187
-5.12858
-5.06355
-4.99144
-4.9105
-4.83791
-5.61896
-5.54566
-5.4727
-5.41626
-5.36937
-5.33358
-5.30907
-5.29333
-5.28407
-5.27829
-5.27223
-5.26193
-5.24349
-5.2138
-5.17076
-5.1127
-5.04164
-4.96224
-4.87253
-4.79094
-5.64674
-5.56739
-5.48882
-5.42802
-5.37768
-5.33921
-5.31268
-5.29538
-5.28487
-5.27797
-5.27073
-5.25903
-5.23879
-5.2067
-5.16051
-5.09841
-5.0224
-4.93718
-4.84069
-4.75235
-5.66615
-5.58276
-5.50038
-5.43656
-5.38379
-5.34341
-5.31538
-5.29691
-5.28544
-5.27766
-5.26951
-5.25672
-5.23511
-5.20123
-5.15273
-5.08773
-5.00823
-4.91897
-4.8179
-4.72509
-5.67612
-5.5907
-5.5064
-5.44105
-5.38702
-5.34564
-5.31682
-5.29773
-5.28574
-5.27748
-5.26883
-5.25545
-5.2331
-5.19826
-5.14855
-5.08204
-5.00074
-4.90942
-4.80605
-4.711
-5.67612
-5.5907
-5.5064
-5.44105
-5.38702
-5.34564
-5.31682
-5.29773
-5.28574
-5.27748
-5.26883
-5.25545
-5.2331
-5.19826
-5.14855
-5.08204
-5.00074
-4.90942
-4.80605
-4.711
-5.66615
-5.58276
-5.50038
-5.43656
-5.38379
-5.34341
-5.31538
-5.29691
-5.28544
-5.27766
-5.26951
-5.25672
-5.23511
-5.20123
-5.15273
-5.08773
-5.00823
-4.91897
-4.8179
-4.72509
-5.64674
-5.56739
-5.48882
-5.42802
-5.37768
-5.33921
-5.31268
-5.29538
-5.28487
-5.27797
-5.27073
-5.25903
-5.23879
-5.2067
-5.16051
-5.09841
-5.0224
-4.93718
-4.84069
-4.75235
-5.61896
-5.54566
-5.4727
-5.41626
-5.36937
-5.33358
-5.30907
-5.29333
-5.28407
-5.27829
-5.27223
-5.26193
-5.24349
-5.2138
-5.17076
-5.1127
-5.04164
-4.96224
-4.87253
-4.79094
-5.58458
-5.51928
-5.45357
-5.40257
-5.35989
-5.32727
-5.30509
-5.29106
-5.28312
-5.27849
-5.27363
-5.26478
-5.2483
-5.22128
-5.18187
-5.12858
-5.06355
-4.99144
-4.9105
-4.83791
-5.5462
-5.49071
-5.43358
-5.38872
-5.35058
-5.32127
-5.30139
-5.28894
-5.28214
-5.27842
-5.2745
-5.26686
-5.2521
-5.22761
-5.19182
-5.14352
-5.085
-5.02107
-4.95053
-4.88902
-5.50737
-5.46296
-5.41533
-5.37682
-5.34306
-5.31669
-5.29871
-5.2874
-5.28126
-5.27796
-5.27445
-5.26745
-5.25381
-5.23123
-5.19845
-5.15461
-5.10234
-5.04685
-4.98774
-4.93878
-5.47287
-5.44012
-5.4018
-5.36921
-5.33919
-5.31489
-5.29788
-5.28693
-5.28068
-5.27704
-5.27314
-5.26587
-5.25233
-5.2305
-5.19939
-5.15869
-5.11168
-5.06399
-5.01606
-4.98026
-5.44965
-5.42922
-5.39869
-5.36952
-5.3414
-5.31758
-5.30002
-5.28811
-5.28065
-5.27559
-5.27014
-5.26132
-5.24634
-5.22334
-5.19163
-5.15172
-5.10747
-5.0647
-5.02635
-5.00447
-5.44111
-5.42906
-5.40551
-5.37714
-5.34868
-5.32385
-5.30446
-5.29059
-5.28113
-5.27393
-5.26619
-5.25492
-5.23738
-5.21171
-5.1775
-5.13618
-5.09174
-5.05075
-5.02098
-5.00902
-6.51454
-6.49837
-6.46812
-6.43285
-6.39877
-6.37052
-6.35031
-6.33813
-6.3324
-6.33019
-6.32764
-6.32057
-6.305
-6.27801
-6.23851
-6.18793
-6.13119
-6.07691
-6.03603
-6.01858
-6.52681
-6.49883
-6.45979
-6.42322
-6.38955
-6.36265
-6.34473
-6.33504
-6.33188
-6.33241
-6.33282
-6.32894
-6.31678
-6.29336
-6.25723
-6.2087
-6.15225
-6.09524
-6.04285
-6.01038
-6.55809
-6.51374
-6.46423
-6.42298
-6.38686
-6.35933
-6.34207
-6.33357
-6.33195
-6.33429
-6.33667
-6.33479
-6.32451
-6.3026
-6.26721
-6.21761
-6.15737
-6.09326
-6.02713
-5.97487
-6.60363
-6.54369
-6.48185
-6.4329
-6.39194
-6.36171
-6.34314
-6.33417
-6.33265
-6.33539
-6.33823
-6.33664
-6.32615
-6.30317
-6.2654
-6.2114
-6.14389
-6.06893
-5.98702
-5.91601
-6.65441
-6.5798
-6.50552
-6.44827
-6.40162
-6.36757
-6.34655
-6.33609
-6.33369
-6.33585
-6.33811
-6.33562
-6.32356
-6.29794
-6.25602
-6.19583
-6.11962
-6.03291
-5.93507
-5.84648
-6.70427
-6.61679
-6.53127
-6.46605
-6.41351
-6.37521
-6.35122
-6.33872
-6.33485
-6.33579
-6.33678
-6.33265
-6.31824
-6.28916
-6.24228
-6.17524
-6.09003
-5.99197
-5.87973
-5.77582
-6.74872
-6.65078
-6.55582
-6.48355
-6.42559
-6.38321
-6.35624
-6.34153
-6.33595
-6.33539
-6.33479
-6.32871
-6.31166
-6.27896
-6.22713
-6.15354
-6.06005
-5.95197
-5.82765
-5.7114
-6.78452
-6.67868
-6.57644
-6.49855
-6.43615
-6.39034
-6.36078
-6.34408
-6.33688
-6.33486
-6.33271
-6.32476
-6.30529
-6.26935
-6.21323
-6.13415
-6.03388
-5.91781
-5.78422
-5.65877
-6.80949
-6.69838
-6.5912
-6.50943
-6.44391
-6.39565
-6.36417
-6.34598
-6.33754
-6.33437
-6.33103
-6.32164
-6.30033
-6.26197
-6.20274
-6.11972
-6.01468
-5.8931
-5.75326
-5.62172
-6.82229
-6.70855
-6.59889
-6.51513
-6.44801
-6.39846
-6.36598
-6.34699
-6.33788
-6.3341
-6.33009
-6.31993
-6.29763
-6.25799
-6.19712
-6.11205
-6.00456
-5.88017
-5.73719
-5.60264
-6.82229
-6.70855
-6.59889
-6.51513
-6.448
-6.39846
-6.36598
-6.34699
-6.33788
-6.3341
-6.33009
-6.31993
-6.29763
-6.25799
-6.19712
-6.11205
-6.00456
-5.88017
-5.73719
-5.60264
-6.80949
-6.69838
-6.5912
-6.50943
-6.44391
-6.39565
-6.36417
-6.34597
-6.33754
-6.33437
-6.33103
-6.32164
-6.30033
-6.26197
-6.20274
-6.11972
-6.01469
-5.8931
-5.75326
-5.62172
-6.78452
-6.67868
-6.57644
-6.49854
-6.43615
-6.39034
-6.36077
-6.34407
-6.33688
-6.33485
-6.33271
-6.32476
-6.30529
-6.26935
-6.21323
-6.13415
-6.03388
-5.91781
-5.78422
-5.65877
-6.74872
-6.65077
-6.55582
-6.48355
-6.42559
-6.38321
-6.35624
-6.34153
-6.33595
-6.33539
-6.33479
-6.32871
-6.31166
-6.27896
-6.22713
-6.15354
-6.06005
-5.95197
-5.82765
-5.7114
-6.70427
-6.61679
-6.53127
-6.46605
-6.41351
-6.37521
-6.35122
-6.33872
-6.33485
-6.33579
-6.33678
-6.33265
-6.31824
-6.28916
-6.24228
-6.17524
-6.09003
-5.99197
-5.87973
-5.77582
-6.65441
-6.5798
-6.50552
-6.44827
-6.40161
-6.36757
-6.34655
-6.33609
-6.33369
-6.33585
-6.33811
-6.33562
-6.32356
-6.29795
-6.25602
-6.19583
-6.11962
-6.03291
-5.93507
-5.84648
-6.60363
-6.54369
-6.48185
-6.4329
-6.39193
-6.36171
-6.34314
-6.33417
-6.33265
-6.33539
-6.33823
-6.33664
-6.32615
-6.30317
-6.2654
-6.2114
-6.14389
-6.06893
-5.98702
-5.91601
-6.55809
-6.51373
-6.46422
-6.42298
-6.38686
-6.35933
-6.34207
-6.33357
-6.33195
-6.33429
-6.33666
-6.33479
-6.32451
-6.3026
-6.26721
-6.21761
-6.15737
-6.09326
-6.02713
-5.97487
-6.52681
-6.49883
-6.45978
-6.42322
-6.38955
-6.36265
-6.34473
-6.33504
-6.33188
-6.33241
-6.33282
-6.32894
-6.31678
-6.29336
-6.25723
-6.2087
-6.15225
-6.09524
-6.04285
-6.01038
-6.51454
-6.49837
-6.46811
-6.43285
-6.39877
-6.37052
-6.35031
-6.33813
-6.3324
-6.33018
-6.32764
-6.32057
-6.305
-6.27801
-6.23851
-6.18793
-6.13119
-6.07691
-6.03603
-6.01858
-7.57626
-7.55491
-7.51675
-7.47393
-7.4344
-7.40388
-7.385
-7.37766
-7.37967
-7.38709
-7.39475
-7.39685
-7.38774
-7.36289
-7.32005
-7.26027
-7.18935
-7.11841
-7.06257
-7.03715
-7.5935
-7.55599
-7.50676
-7.46202
-7.42297
-7.39418
-7.37814
-7.37389
-7.3791
-7.38997
-7.40137
-7.40756
-7.40288
-7.38274
-7.34439
-7.28752
-7.21705
-7.14212
-7.07067
-7.02295
-7.63493
-7.57595
-7.51292
-7.46195
-7.41977
-7.39017
-7.37488
-7.37208
-7.3792
-7.39231
-7.40616
-7.41488
-7.41259
-7.39437
-7.3569
-7.29855
-7.22291
-7.13789
-7.04689
-6.97105
-7.69406
-7.6146
-7.53551
-7.47466
-7.4263
-7.39323
-7.37624
-7.3728
-7.38
-7.39356
-7.40793
-7.41692
-7.41425
-7.39449
-7.35369
-7.28922
-7.20354
-7.10347
-6.9903
-6.88792
-7.75932
-7.66078
-7.56564
-7.49415
-7.43852
-7.40058
-7.38046
-7.37512
-7.38118
-7.39395
-7.4075
-7.41524
-7.41042
-7.38705
-7.34054
-7.26757
-7.16986
-7.05351
-6.91824
-6.79137
-7.82295
-7.7078
-7.59822
-7.51655
-7.45343
-7.4101
-7.38624
-7.37831
-7.38248
-7.39367
-7.40554
-7.41108
-7.40309
-7.37505
-7.32182
-7.2395
-7.12946
-6.99748
-6.84237
-6.69444
-7.8794
-7.75079
-7.62913
-7.53849
-7.46852
-7.42005
-7.39243
-7.38172
-7.38372
-7.39298
-7.40278
-7.40574
-7.39425
-7.36134
-7.30144
-7.21026
-7.08894
-6.94325
-6.77163
-6.60687
-7.9247
-7.78598
-7.65502
-7.55725
-7.48168
-7.4289
-7.39802
-7.3848
-7.38476
-7.39214
-7.39995
-7.40048
-7.38577
-7.34855
-7.2829
-7.1843
-7.05379
-6.89724
-6.71302
-6.53578
-7.95623
-7.81076
-7.67352
-7.57083
-7.49133
-7.43547
-7.4022
-7.3871
-7.38549
-7.39143
-7.39768
-7.39634
-7.37921
-7.33879
-7.26897
-7.16508
-7.02813
-6.86411
-6.67142
-6.48599
-7.97236
-7.82354
-7.68314
-7.57795
-7.49643
-7.43896
-7.40442
-7.38832
-7.38588
-7.39102
-7.39643
-7.39408
-7.37565
-7.33354
-7.26153
-7.15489
-7.01463
-6.84681
-6.64989
-6.4604
-7.97236
-7.82354
-7.68314
-7.57795
-7.49643
-7.43896
-7.40442
-7.38832
-7.38588
-7.39102
-7.39643
-7.39408
-7.37565
-7.33354
-7.26153
-7.15489
-7.01463
-6.84681
-6.64989
-6.4604
-7.95623
-7.81076
-7.67352
-7.57083
-7.49133
-7.43547
-7.40219
-7.3871
-7.38549
-7.39143
-7.39768
-7.39634
-7.37921
-7.33879
-7.26897
-7.16508
-7.02813
-6.86411
-6.67142
-6.48599
-7.9247
-7.78598
-7.65502
-7.55725
-7.48168
-7.4289
-7.39802
-7.3848
-7.38476
-7.39214
-7.39995
-7.40048
-7.38577
-7.34855
-7.2829
-7.1843
-7.05379
-6.89724
-6.71302
-6.53578
-7.8794
-7.75079
-7.62913
-7.53849
-7.46852
-7.42005
-7.39243
-7.38172
-7.38372
-7.39297
-7.40278
-7.40574
-7.39425
-7.36134
-7.30144
-7.21026
-7.08894
-6.94325
-6.77163
-6.60687
-7.82295
-7.7078
-7.59822
-7.51655
-7.45343
-7.4101
-7.38624
-7.37831
-7.38248
-7.39367
-7.40554
-7.41108
-7.40309
-7.37505
-7.32182
-7.23951
-7.12946
-6.99748
-6.84237
-6.69443
-7.75932
-7.66078
-7.56564
-7.49415
-7.43852
-7.40057
-7.38046
-7.37512
-7.38118
-7.39395
-7.4075
-7.41524
-7.41042
-7.38705
-7.34054
-7.26757
-7.16986
-7.05351
-6.91824
-6.79137
-7.69406
-7.6146
-7.53551
-7.47466
-7.4263
-7.39323
-7.37623
-7.3728
-7.38
-7.39356
-7.40793
-7.41692
-7.41425
-7.39449
-7.35369
-7.28922
-7.20354
-7.10347
-6.9903
-6.88792
-7.63493
-7.57595
-7.51292
-7.46195
-7.41977
-7.39017
-7.37488
-7.37208
-7.3792
-7.39231
-7.40616
-7.41488
-7.41259
-7.39437
-7.35691
-7.29855
-7.22291
-7.13789
-7.04689
-6.97105
-7.5935
-7.55599
-7.50676
-7.46202
-7.42297
-7.39418
-7.37814
-7.37388
-7.3791
-7.38997
-7.40137
-7.40756
-7.40288
-7.38274
-7.34439
-7.28752
-7.21705
-7.14212