/*--------------------------------*- C++ -*----------------------------------*\
  =========                 |
  \\      /  F ield         | OpenFOAM: The Open Source CFD Toolbox
   \\    /   O peration     | Website:  https://openfoam.org
    \\  /    A nd           | Version:  6
     \\/     M anipulation  |
\*---------------------------------------------------------------------------*/
FoamFile
{
    version     2.0;
    format      ascii;
    class       surfaceScalarField;
    location    "0.05";
    object      phi;
}
// * * * * * * * * * * * * * * * * * * * * * * * * * * * * * * * * * * * * * //

dimensions      [0 3 -1 0 0 0 0];

internalField   nonuniform List<scalar> 
162000
(
1.88672e-11
8.05141e-11
1.30833e-06
1.23303e-10
1.25513e-10
2.89493e-06
3.36127e-10
1.05634e-10
4.01431e-06
6.17736e-10
9.01342e-11
4.85782e-06
9.43799e-10
6.44386e-11
5.50824e-06
1.27925e-09
3.99975e-11
6.00925e-06
1.58371e-09
2.42018e-11
6.38701e-06
1.82582e-09
1.18505e-11
6.65824e-06
1.98039e-09
2.40427e-12
6.83364e-06
2.03001e-09
-4.60418e-12
6.91964e-06
1.96805e-09
-1.12088e-11
6.91922e-06
1.79979e-09
-1.95581e-11
6.83231e-06
1.54257e-09
-3.15868e-11
6.65578e-06
1.22358e-09
-4.74973e-11
6.38315e-06
8.78089e-10
-6.73177e-11
6.00374e-06
5.51008e-10
-9.52916e-11
5.50102e-06
2.80187e-10
-1.22436e-10
4.84916e-06
8.86139e-11
-1.35524e-10
4.00498e-06
7.53922e-12
-1.46428e-10
2.88647e-06
-8.68766e-11
1.30352e-06
1.19814e-10
1.83736e-10
2.89518e-06
4.98397e-10
3.09215e-10
7.09253e-06
1.11155e-09
3.00428e-10
1.02598e-05
1.90921e-09
2.52969e-10
1.27083e-05
2.80469e-09
1.88479e-10
1.46165e-05
3.70446e-09
1.27193e-10
1.6094e-05
4.51931e-09
7.80929e-11
1.72112e-05
5.1673e-09
3.92521e-11
1.80147e-05
5.5828e-09
9.03492e-12
1.85349e-05
5.72246e-09
-1.57672e-11
1.87902e-05
5.56912e-09
-4.0131e-11
1.87895e-05
5.13456e-09
-6.92116e-11
1.85323e-05
4.46011e-09
-1.07579e-10
1.80098e-05
3.61476e-09
-1.57461e-10
1.72033e-05
2.68906e-09
-2.1867e-10
1.60824e-05
1.78323e-09
-2.90114e-10
1.46011e-05
9.99205e-10
-3.5835e-10
1.26896e-05
4.23121e-10
-3.97679e-10
1.02399e-05
9.12599e-11
-3.80634e-10
7.07505e-06
-2.10933e-10
2.88621e-06
2.23675e-10
2.64843e-10
4.0152e-06
8.71401e-10
4.65217e-10
1.0261e-05
1.87169e-09
4.7916e-10
1.5166e-05
3.12793e-09
4.15233e-10
1.90414e-05
4.51402e-09
3.19579e-10
2.20989e-05
5.89489e-09
2.22966e-10
2.44831e-05
7.13886e-09
1.39759e-10
2.62935e-05
8.12669e-09
7.16828e-11
2.7599e-05
8.76257e-09
1.67894e-11
2.84457e-05
8.98258e-09
-3.02962e-11
2.8862e-05
8.76074e-09
-7.72379e-11
2.88611e-05
8.11303e-09
-1.31984e-10
2.84428e-05
7.09837e-09
-2.01369e-10
2.75933e-05
5.8158e-09
-2.88852e-10
2.62838e-05
4.39612e-09
-3.92961e-10
2.44683e-05
2.98719e-09
-5.06593e-10
2.20789e-05
1.73781e-09
-6.07823e-10
1.90169e-05
7.76907e-10
-6.56787e-10
1.51399e-05
1.85938e-10
-5.98161e-10
1.02384e-05
-3.19294e-10
4.00394e-06
3.19886e-10
3.05751e-10
4.85971e-06
1.20347e-09
5.60313e-10
1.27115e-05
2.54088e-09
5.98659e-10
1.90437e-05
4.19426e-09
5.31214e-10
2.41355e-05
5.99999e-09
4.18506e-10
2.81987e-05
7.78714e-09
2.98487e-10
3.13905e-05
9.39061e-09
1.90159e-10
3.38258e-05
1.06621e-08
9.87884e-11
3.55875e-05
1.14827e-08
2.27988e-11
3.67323e-05
1.17724e-08
-4.43115e-11
3.72958e-05
1.1498e-08
-1.11831e-10
3.7295e-05
1.06782e-08
-1.89448e-10
3.67294e-05
9.38455e-09
-2.85212e-10
3.55816e-05
7.73859e-09
-4.02836e-10
3.38154e-05
5.90213e-09
-5.39052e-10
3.13741e-05
4.06068e-09
-6.81221e-10
2.8176e-05
2.40392e-09
-8.00281e-10
2.41075e-05
1.10204e-09
-8.46332e-10
1.90136e-05
2.77993e-10
-7.46909e-10
1.26853e-05
-3.84049e-10
4.84679e-06
3.96027e-10
3.0915e-10
5.51133e-06
1.47591e-09
5.85315e-10
1.46222e-05
3.09588e-09
6.41472e-10
2.21043e-05
5.08114e-09
5.80314e-10
2.82019e-05
7.23576e-09
4.65521e-10
3.31145e-05
9.35892e-09
3.37425e-10
3.69994e-05
1.12584e-08
2.17651e-10
3.99775e-05
1.27629e-08
1.13955e-10
4.21384e-05
1.37354e-08
2.55279e-11
4.35454e-05
1.40836e-08
-5.42039e-11
4.4239e-05
1.37683e-08
-1.34928e-10
4.42383e-05
1.28097e-08
-2.26811e-10
4.35429e-05
1.12891e-08
-3.38014e-10
4.21326e-05
9.34513e-09
-4.71741e-10
3.99667e-05
7.16404e-09
-6.23058e-10
3.69821e-05
4.96194e-09
-7.75648e-10
3.30899e-05
2.9628e-09
-8.96446e-10
2.81711e-05
1.37264e-09
-9.31661e-10
2.20709e-05
3.52052e-10
-8.04175e-10
1.45931e-05
-4.01696e-10
5.49697e-06
4.53536e-10
2.81617e-10
6.01355e-06
1.68844e-09
5.45491e-10
1.61022e-05
3.53375e-09
6.09323e-10
2.44915e-05
5.78542e-09
5.59773e-10
3.13968e-05
8.2207e-09
4.55255e-10
3.70027e-05
1.06139e-08
3.33933e-10
4.14608e-05
1.27508e-08
2.17388e-10
4.48921e-05
1.44421e-08
1.14328e-10
4.7389e-05
1.55364e-08
2.47051e-11
4.90178e-05
1.59316e-08
-5.73421e-11
4.98216e-05
1.55842e-08
-1.40789e-10
4.9821e-05
1.45153e-08
-2.35101e-10
4.90155e-05
1.28134e-08
-3.47642e-10
4.73833e-05
1.06306e-08
-4.8075e-10
4.48812e-05
8.17241e-09
-6.28562e-10
4.14427e-05
5.67981e-09
-7.73679e-10
3.69765e-05
3.40522e-09
-8.83074e-10
3.13638e-05
1.58446e-09
-9.05225e-10
2.44554e-05
4.08114e-10
-7.68403e-10
1.60706e-05
-3.76011e-10
5.99788e-06
4.95525e-10
2.30146e-10
6.39244e-06
1.84592e-09
4.53429e-10
1.72216e-05
3.86222e-09
5.13549e-10
2.63047e-05
6.31833e-09
4.77195e-10
3.3835e-05
8.96999e-09
3.91985e-10
3.99835e-05
1.15717e-08
2.90003e-10
4.48948e-05
1.38919e-08
1.90038e-10
4.86874e-05
1.57272e-08
1.00183e-10
5.14537e-05
1.69154e-08
2.08838e-11
5.32611e-05
1.73469e-08
-5.25154e-11
5.41539e-05
1.69746e-08
-1.27411e-10
5.41533e-05
1.58205e-08
-2.11635e-10
5.32589e-05
1.39786e-08
-3.11111e-10
5.1448e-05
1.16112e-08
-4.27303e-10
4.86762e-05
8.93897e-09
-5.54467e-10
4.48759e-05
6.22233e-09
-6.76799e-10
3.99559e-05
3.73644e-09
-7.65453e-10
3.37999e-05
1.74085e-09
-7.7669e-10
2.62661e-05
4.4876e-10
-6.51309e-10
1.71877e-05
-3.13868e-10
6.37557e-06
5.24087e-10
1.6198e-10
6.6646e-06
1.95555e-09
3.22956e-10
1.80269e-05
4.09383e-09
3.69217e-10
2.76123e-05
6.69718e-09
3.45764e-10
3.55988e-05
9.50549e-09
2.85958e-10
4.21464e-05
1.22585e-08
2.12802e-10
4.73935e-05
1.47118e-08
1.40067e-10
5.14555e-05
1.66517e-08
7.39231e-11
5.44235e-05
1.79079e-08
1.49475e-11
5.63651e-05
1.83655e-08
-4.00503e-11
5.73248e-05
1.79749e-08
-9.62944e-11
5.73243e-05
1.67587e-08
-1.59329e-10
5.63629e-05
1.48148e-08
-2.3326e-10
5.44178e-05
1.23131e-08
-3.18863e-10
5.14439e-05
9.48536e-09
-4.11583e-10
4.73739e-05
6.60662e-09
-4.99498e-10
4.21175e-05
3.96878e-09
-5.61385e-10
3.55619e-05
1.8489e-09
-5.65653e-10
2.75717e-05
4.76048e-10
-4.70435e-10
1.79911e-05
-2.2429e-10
6.64675e-06
5.4162e-10
8.34608e-11
6.84073e-06
2.0243e-09
1.67561e-10
1.85485e-05
4.24059e-09
1.92605e-10
2.84606e-05
6.93882e-09
1.81193e-10
3.6745e-05
9.84851e-09
1.50448e-10
4.35547e-05
1.26997e-08
1.12341e-10
4.90235e-05
1.52395e-08
7.41302e-11
5.32639e-05
1.72474e-08
3.914e-11
5.6366e-05
1.85477e-08
7.75257e-12
5.83971e-05
1.90221e-08
-2.16453e-11
5.94015e-05
1.86194e-08
-5.17482e-11
5.9401e-05
1.73626e-08
-8.54194e-11
5.83949e-05
1.53521e-08
-1.2475e-10
5.63602e-05
1.27629e-08
-1.70057e-10
5.3252e-05
9.83427e-09
-2.18826e-10
4.90032e-05
6.85068e-09
-2.64667e-10
4.35249e-05
4.11514e-09
-2.96362e-10
3.67068e-05
1.91608e-09
-2.97394e-10
2.84185e-05
4.92556e-10
-2.46147e-10
1.85113e-05
-1.16629e-10
6.82216e-06
5.49948e-10
-1.21981e-15
6.92727e-06
2.05734e-09
-3.38285e-15
1.88049e-05
4.31155e-09
-5.72898e-15
2.88778e-05
7.05616e-09
-7.93516e-15
3.73095e-05
1.00156e-08
-9.70141e-15
4.4249e-05
1.29149e-08
-1.07404e-14
4.98279e-05
1.54974e-08
-1.08969e-14
5.41571e-05
1.75386e-08
-1.01682e-14
5.73262e-05
1.88606e-08
-8.68683e-15
5.94019e-05
1.93433e-08
-6.67338e-15
6.04287e-05
1.89345e-08
-4.37043e-15
6.04282e-05
1.76576e-08
-2.00488e-15
5.93997e-05
1.56143e-08
1.99731e-16
5.73203e-05
1.2982e-08
1.97559e-15
5.41451e-05
1.00038e-08
3.0446e-15
4.98073e-05
6.9688e-09
3.27533e-15
4.42187e-05
4.18558e-09
2.73864e-15
3.72706e-05
1.94815e-09
1.67383e-15
2.88349e-05
5.00311e-10
2.99976e-16
1.8767e-05
6.66223e-17
6.90833e-06
5.49948e-10
-8.34634e-11
6.92727e-06
2.05734e-09
-1.67568e-10
1.88049e-05
4.31155e-09
-1.92617e-10
2.88778e-05
7.05616e-09
-1.81209e-10
3.73095e-05
1.00156e-08
-1.50468e-10
4.4249e-05
1.29149e-08
-1.12363e-10
4.98279e-05
1.54974e-08
-7.41517e-11
5.41571e-05
1.75386e-08
-3.91599e-11
5.73262e-05
1.88606e-08
-7.76945e-12
5.94019e-05
1.93433e-08
2.16325e-11
6.04287e-05
1.89345e-08
5.17399e-11
6.04282e-05
1.76576e-08
8.54158e-11
5.93997e-05
1.56143e-08
1.24751e-10
5.73203e-05
1.2982e-08
1.70061e-10
5.41451e-05
1.00038e-08
2.18833e-10
4.98073e-05
6.9688e-09
2.64674e-10
4.42187e-05
4.18558e-09
2.96367e-10
3.72706e-05
1.94815e-09
2.97398e-10
2.88349e-05
5.00311e-10
2.46148e-10
1.8767e-05
1.16629e-10
6.90833e-06
5.4162e-10
-1.61983e-10
6.84073e-06
2.02431e-09
-3.22964e-10
1.85485e-05
4.24059e-09
-3.6923e-10
2.84606e-05
6.93883e-09
-3.45781e-10
3.6745e-05
9.84852e-09
-2.85978e-10
4.35547e-05
1.26997e-08
-2.12823e-10
4.90235e-05
1.52395e-08
-1.40087e-10
5.32639e-05
1.72474e-08
-7.39417e-11
5.6366e-05
1.85477e-08
-1.4963e-11
5.83971e-05
1.90222e-08
4.00388e-11
5.94015e-05
1.86194e-08
9.62874e-11
5.9401e-05
1.73626e-08
1.59326e-10
5.83949e-05
1.53521e-08
2.33262e-10
5.63602e-05
1.27629e-08
3.18868e-10
5.3252e-05
9.83429e-09
4.11591e-10
4.90032e-05
6.8507e-09
4.99506e-10
4.35249e-05
4.11515e-09
5.61392e-10
3.67068e-05
1.91609e-09
5.65658e-10
2.84185e-05
4.92558e-10
4.70437e-10
1.85113e-05
2.24291e-10
6.82216e-06
5.24089e-10
-2.30151e-10
6.6646e-06
1.95555e-09
-4.53439e-10
1.80269e-05
4.09384e-09
-5.13564e-10
2.76123e-05
6.6972e-09
-4.77213e-10
3.55988e-05
9.50551e-09
-3.92003e-10
4.21464e-05
1.22585e-08
-2.90022e-10
4.73935e-05
1.47119e-08
-1.90056e-10
5.14555e-05
1.66518e-08
-1.00199e-10
5.44235e-05
1.79079e-08
-2.08968e-11
5.63651e-05
1.83655e-08
5.25063e-11
5.73249e-05
1.79749e-08
1.27406e-10
5.73243e-05
1.67587e-08
2.11633e-10
5.63629e-05
1.48148e-08
3.11113e-10
5.44178e-05
1.23131e-08
4.27309e-10
5.14439e-05
9.48539e-09
5.54475e-10
4.73739e-05
6.60664e-09
6.76808e-10
4.21175e-05
3.96879e-09
7.65462e-10
3.55619e-05
1.84891e-09
7.76697e-10
2.75717e-05
4.7605e-10
6.51314e-10
1.79911e-05
3.13871e-10
6.64675e-06
4.95529e-10
-2.81626e-10
6.39244e-06
1.84593e-09
-5.45507e-10
1.72216e-05
3.86224e-09
-6.09342e-10
2.63047e-05
6.31835e-09
-5.59792e-10
3.3835e-05
8.97003e-09
-4.55272e-10
3.99835e-05
1.15717e-08
-3.33949e-10
4.48948e-05
1.3892e-08
-2.17403e-10
4.86874e-05
1.57273e-08
-1.1434e-10
5.14537e-05
1.69154e-08
-2.47145e-11
5.32611e-05
1.73469e-08
5.73362e-11
5.41539e-05
1.69746e-08
1.40786e-10
5.41533e-05
1.58206e-08
2.35101e-10
5.32589e-05
1.39787e-08
3.47646e-10
5.1448e-05
1.16113e-08
4.80756e-10
4.86762e-05
8.939e-09
6.2857e-10
4.4876e-05
6.22236e-09
7.7369e-10
3.99559e-05
3.73646e-09
8.83086e-10
3.37999e-05
1.74087e-09
9.05237e-10
2.62661e-05
4.48763e-10
7.68412e-10
1.71877e-05
3.76016e-10
6.37557e-06
4.53545e-10
-3.09167e-10
6.01356e-06
1.68846e-09
-5.8534e-10
1.61022e-05
3.53378e-09
-6.41496e-10
2.44915e-05
5.78546e-09
-5.80333e-10
3.13968e-05
8.22074e-09
-4.65536e-10
3.70027e-05
1.0614e-08
-3.37437e-10
4.14608e-05
1.27509e-08
-2.17661e-10
4.48921e-05
1.44422e-08
-1.13963e-10
4.7389e-05
1.55365e-08
-2.55333e-11
4.90178e-05
1.59317e-08
5.42014e-11
4.98216e-05
1.55842e-08
1.34928e-10
4.9821e-05
1.45154e-08
2.26813e-10
4.90155e-05
1.28135e-08
3.38018e-10
4.73833e-05
1.06307e-08
4.71746e-10
4.48812e-05
8.17246e-09
6.23066e-10
4.14427e-05
5.67985e-09
7.7566e-10
3.69766e-05
3.40525e-09
8.96461e-10
3.13638e-05
1.58447e-09
9.31677e-10
2.44554e-05
4.08118e-10
8.04188e-10
1.60706e-05
4.01703e-10
5.99788e-06
3.96042e-10
-3.05787e-10
5.51133e-06
1.47594e-09
-5.60352e-10
1.46222e-05
3.09591e-09
-5.98691e-10
2.21043e-05
5.08118e-09
-5.31235e-10
2.82019e-05
7.23581e-09
-4.1852e-10
3.31145e-05
9.35897e-09
-2.98498e-10
3.69994e-05
1.12584e-08
-1.90167e-10
3.99775e-05
1.2763e-08
-9.87946e-11
4.21384e-05
1.37355e-08
-2.28028e-11
4.35455e-05
1.40836e-08
4.43096e-11
4.4239e-05
1.37683e-08
1.11831e-10
4.42383e-05
1.28098e-08
1.89449e-10
4.35429e-05
1.12892e-08
2.85213e-10
4.21326e-05
9.34519e-09
4.02837e-10
3.99667e-05
7.16409e-09
5.39057e-10
3.69821e-05
4.96198e-09
6.8123e-10
3.30899e-05
2.96282e-09
8.00295e-10
2.81711e-05
1.37265e-09
8.46348e-10
2.20709e-05
3.52055e-10
7.46922e-10
1.45931e-05
3.84056e-10
5.49697e-06
3.19912e-10
-2.6492e-10
4.85971e-06
1.20351e-09
-4.65278e-10
1.27115e-05
2.54093e-09
-4.79203e-10
1.90437e-05
4.19431e-09
-4.15257e-10
2.41355e-05
6.00003e-09
-3.19593e-10
2.81987e-05
7.78719e-09
-2.22976e-10
3.13905e-05
9.39067e-09
-1.39766e-10
3.38258e-05
1.06622e-08
-7.16887e-11
3.55875e-05
1.14827e-08
-1.67938e-11
3.67323e-05
1.17724e-08
3.0293e-11
3.72958e-05
1.14981e-08
7.72354e-11
3.7295e-05
1.06783e-08
1.31981e-10
3.67295e-05
9.38462e-09
2.01366e-10
3.55816e-05
7.73864e-09
2.88848e-10
3.38154e-05
5.90217e-09
3.92959e-10
3.13741e-05
4.06071e-09
5.06596e-10
2.8176e-05
2.40394e-09
6.0783e-10
2.41075e-05
1.10205e-09
6.56797e-10
1.90136e-05
2.77994e-10
5.98171e-10
1.26853e-05
3.19298e-10
4.84679e-06
2.23725e-10
-1.83902e-10
4.0152e-06
8.71464e-10
-3.09339e-10
1.0261e-05
1.87174e-09
-3.00489e-10
1.5166e-05
3.12798e-09
-2.53001e-10
1.90414e-05
4.51406e-09
-1.885e-10
2.20989e-05
5.89494e-09
-1.27208e-10
2.44831e-05
7.13892e-09
-7.81056e-11
2.62935e-05
8.12675e-09
-3.92633e-11
2.75991e-05
8.76263e-09
-9.04511e-12
2.84457e-05
8.98265e-09
1.57576e-11
2.8862e-05
8.7608e-09
4.01215e-11
2.88611e-05
8.11309e-09
6.92018e-11
2.84429e-05
7.09842e-09
1.07569e-10
2.75933e-05
5.81584e-09
1.57451e-10
2.62838e-05
4.39616e-09
2.18662e-10
2.44683e-05
2.98721e-09
2.90107e-10
2.20789e-05
1.73783e-09
3.58347e-10
1.90169e-05
7.76913e-10
3.97679e-10
1.51399e-05
1.85936e-10
3.80628e-10
1.02384e-05
2.10934e-10
4.00394e-06
1.19987e-10
-8.10221e-11
2.89518e-06
4.98518e-10
-1.25688e-10
7.09253e-06
1.11161e-09
-1.05678e-10
1.02598e-05
1.90925e-09
-9.01549e-11
1.27083e-05
2.80473e-09
-6.44482e-11
1.46165e-05
3.7045e-09
-4.00014e-11
1.6094e-05
4.51935e-09
-2.42032e-11
1.72112e-05
5.16735e-09
-1.18509e-11
1.80147e-05
5.58285e-09
-2.40432e-12
1.85349e-05
5.72251e-09
4.60388e-12
1.87902e-05
5.56917e-09
1.1208e-11
1.87895e-05
5.13461e-09
1.9557e-11
1.85323e-05
4.46015e-09
3.15856e-11
1.80098e-05
3.6148e-09
4.74963e-11
1.72033e-05
2.68908e-09
6.73173e-11
1.60824e-05
1.78324e-09
9.5292e-11
1.46011e-05
9.99209e-10
1.22437e-10
1.26896e-05
4.23116e-10
1.35524e-10
1.02399e-05
9.1265e-11
1.4643e-10
7.07505e-06
8.68786e-11
2.88621e-06
1.93719e-11
1.30833e-06
1.23472e-10
2.89493e-06
3.362e-10
4.01431e-06
6.1777e-10
4.85782e-06
9.4382e-10
5.50824e-06
1.27927e-09
6.00925e-06
1.58373e-09
6.38701e-06
1.82584e-09
6.65824e-06
1.98041e-09
6.83364e-06
2.03004e-09
6.91964e-06
1.96807e-09
6.91922e-06
1.79981e-09
6.83231e-06
1.54259e-09
6.65578e-06
1.2236e-09
6.38315e-06
8.78097e-10
6.00374e-06
5.5101e-10
5.50102e-06
2.80187e-10
4.84916e-06
8.86106e-11
4.00498e-06
7.54416e-12
2.88647e-06
1.30352e-06
-1.13436e-11
1.92997e-10
1.30815e-06
1.18175e-10
3.21399e-10
2.89448e-06
4.62132e-10
3.11443e-10
4.01365e-06
9.79129e-10
2.73974e-10
4.85703e-06
1.61511e-09
2.1418e-10
5.50739e-06
2.29094e-09
1.53292e-10
6.00842e-06
2.91778e-09
1.02857e-10
6.38628e-06
3.41885e-09
5.87038e-11
6.65768e-06
3.7322e-09
1.97076e-11
6.83331e-06
3.81671e-09
-1.59689e-11
6.91957e-06
3.65818e-09
-5.20252e-11
6.91943e-06
3.27226e-09
-9.22252e-11
6.83278e-06
2.70453e-09
-1.39732e-10
6.65649e-06
2.02594e-09
-1.95146e-10
6.38402e-06
1.32577e-09
-2.57383e-10
6.0047e-06
7.04585e-10
-3.2702e-10
5.50197e-06
2.45369e-10
-3.87218e-10
4.85001e-06
-9.33605e-12
-4.10458e-10
4.00565e-06
-5.15611e-11
-3.84477e-10
2.88689e-06
-2.05209e-10
1.30367e-06
1.43721e-10
4.76398e-10
2.89475e-06
7.63157e-10
8.50259e-10
7.09138e-06
1.89812e-09
8.93162e-10
1.02581e-05
3.47163e-09
8.0023e-10
1.27062e-05
5.31393e-09
6.46265e-10
1.46143e-05
7.21718e-09
4.80589e-10
1.60918e-05
8.96763e-09
3.26263e-10
1.72092e-05
1.03659e-08
1.86332e-10
1.80131e-05
1.12503e-08
5.89486e-11
1.85339e-05
1.15143e-08
-6.20362e-11
1.879e-05
1.11187e-08
-1.85634e-10
1.879e-05
1.00995e-08
-3.20869e-10
1.85336e-05
8.56787e-09
-4.74777e-10
1.80117e-05
6.70294e-09
-6.4915e-10
1.72056e-05
4.73214e-09
-8.38439e-10
1.6085e-05
2.89862e-09
-1.02843e-09
1.46036e-05
1.42541e-09
-1.18095e-09
1.26918e-05
4.65568e-10
-1.22919e-09
1.02417e-05
3.65697e-11
-1.08317e-09
7.07618e-06
-5.55303e-10
2.88659e-06
3.49893e-10
7.2497e-10
4.01461e-06
1.5308e-09
1.34578e-09
1.02594e-05
3.50493e-09
1.47107e-09
1.51634e-05
6.10717e-09
1.35198e-09
1.90382e-05
9.07533e-09
1.11757e-09
2.20955e-05
1.20994e-08
8.47363e-10
2.44797e-05
1.48602e-08
5.81375e-10
2.62905e-05
1.70624e-08
3.31979e-10
2.75967e-05
1.84653e-08
9.87476e-11
2.84443e-05
1.89088e-08
-1.27222e-10
2.88616e-05
1.83314e-08
-3.59224e-10
2.88618e-05
1.6782e-08
-6.10519e-10
2.84447e-05
1.44209e-08
-8.90559e-10
2.75961e-05
1.15089e-08
-1.19998e-09
2.62872e-05
8.37958e-09
-1.5256e-09
2.44722e-05
5.39642e-09
-1.83535e-09
2.20827e-05
2.89808e-09
-2.0636e-09
1.90203e-05
1.13506e-09
-2.10226e-09
1.51425e-05
2.0174e-10
-1.7978e-09
1.024e-05
-8.98146e-10
4.00448e-06
5.62428e-10
8.78597e-10
4.859e-06
2.28844e-09
1.68635e-09
1.27094e-05
5.05837e-09
1.89391e-09
1.90405e-05
8.6176e-09
1.77543e-09
2.41316e-05
1.26137e-08
1.49305e-09
2.81943e-05
1.66459e-08
1.14775e-09
3.13861e-05
2.03072e-08
7.93755e-10
3.3822e-05
2.32235e-08
4.52483e-10
3.55844e-05
2.50904e-08
1.26326e-10
3.67304e-05
2.57033e-08
-1.94231e-10
3.72952e-05
2.49816e-08
-5.24466e-10
3.72959e-05
2.29826e-08
-8.79577e-10
3.67317e-05
1.99038e-08
-1.26925e-09
3.5585e-05
1.60697e-08
-1.69117e-09
3.38197e-05
1.19003e-08
-2.12388e-09
3.13789e-05
7.85947e-09
-2.51905e-09
2.81807e-05
4.39033e-09
-2.78839e-09
2.41117e-05
1.84152e-09
-2.79343e-09
1.90168e-05
3.91614e-10
-2.33912e-09
1.26872e-05
-1.13947e-09
4.84743e-06
7.4882e-10
9.24866e-10
5.51053e-06
2.96345e-09
1.82094e-09
1.46198e-05
6.44554e-09
2.08588e-09
2.21006e-05
1.08553e-08
1.98614e-09
2.81972e-05
1.5758e-08
1.69252e-09
3.31094e-05
2.06728e-08
1.3146e-09
3.69943e-05
2.51186e-08
9.14524e-10
3.99729e-05
2.86558e-08
5.19918e-10
4.21347e-05
3.09271e-08
1.36211e-10
4.35432e-05
3.1692e-08
-2.44992e-10
4.42383e-05
3.0853e-08
-6.38667e-10
4.42392e-05
2.84732e-08
-1.05967e-09
4.35454e-05
2.47793e-08
-1.5162e-09
4.21365e-05
2.01473e-08
-2.00251e-09
3.99717e-05
1.50681e-08
-2.49069e-09
3.69876e-05
1.00911e-08
-2.9219e-09
3.30953e-05
5.75176e-09
-3.19521e-09
2.81759e-05
2.48907e-09
-3.15857e-09
2.20746e-05
5.64502e-10
-2.60312e-09
1.45953e-05
-1.24258e-09
5.49764e-06
9.01663e-10
8.70083e-10
6.01271e-06
3.52716e-09
1.74518e-09
1.60996e-05
7.61177e-09
2.02906e-09
2.44874e-05
1.27427e-08
1.95552e-09
3.13917e-05
1.84133e-08
1.68331e-09
3.6997e-05
2.40743e-08
1.3176e-09
4.14551e-05
2.91815e-08
9.20514e-10
4.4887e-05
3.32413e-08
5.21689e-10
4.73849e-05
3.58535e-08
1.28612e-10
4.90152e-05
3.67477e-08
-2.65092e-10
4.98207e-05
3.58126e-08
-6.72407e-10
4.9822e-05
3.31157e-08
-1.10615e-09
4.90182e-05
2.89067e-08
-1.57222e-09
4.73876e-05
2.36035e-08
-2.0623e-09
4.48865e-05
1.77557e-08
-2.54583e-09
4.14486e-05
1.19847e-08
-2.96151e-09
3.69824e-05
6.90513e-09
-3.20826e-09
3.13689e-05
3.03505e-09
-3.13852e-09
2.44592e-05
7.0784e-10
-2.55506e-09
1.60728e-05
-1.20105e-09
5.99854e-06
1.02045e-09
7.2942e-10
6.39156e-06
3.97075e-09
1.48316e-09
1.72189e-05
8.53707e-09
1.74321e-09
2.63004e-05
1.4248e-08
1.69507e-09
3.38296e-05
2.05376e-08
1.46992e-09
3.99774e-05
2.68001e-08
1.15706e-09
4.48887e-05
3.244e-08
8.1076e-10
4.86819e-05
3.69205e-08
4.581e-10
5.14492e-05
3.98067e-08
1.06987e-10
5.32583e-05
4.08046e-08
-2.46801e-10
5.41529e-05
3.97925e-08
-6.13292e-10
5.41543e-05
3.68406e-08
-1.00232e-09
5.32617e-05
3.22171e-08
-1.41749e-09
5.14525e-05
2.63732e-08
-1.84976e-09
4.86818e-05
1.99059e-08
-2.27056e-09
4.48821e-05
1.34949e-08
-2.62473e-09
3.9962e-05
7.82002e-09
-2.82362e-09
3.38052e-05
3.46431e-09
-2.74079e-09
2.62701e-05
8.18895e-10
-2.21106e-09
1.719e-05
-1.02742e-09
6.37622e-06
1.10624e-09
5.22992e-10
6.6637e-06
4.29586e-09
1.07347e-09
1.80241e-05
9.22078e-09
1.27102e-09
2.76079e-05
1.5366e-08
1.24348e-09
3.55931e-05
2.21206e-08
1.08378e-09
4.214e-05
2.88353e-08
8.56378e-10
4.73871e-05
3.4876e-08
6.01237e-10
5.14496e-05
3.96726e-08
3.38868e-10
5.44188e-05
4.27644e-08
7.58058e-11
5.63621e-05
4.38399e-08
-1.90355e-10
5.73237e-05
4.27689e-08
-4.66311e-10
5.73252e-05
3.96246e-08
-7.58581e-10
5.63658e-05
3.46887e-08
-1.069e-09
5.44223e-05
2.84377e-08
-1.38998e-09
5.14497e-05
2.15044e-08
-1.69946e-09
4.73803e-05
1.46132e-08
-1.95596e-09
4.21238e-05
8.49323e-09
-2.09401e-09
3.55673e-05
3.77701e-09
-2.02164e-09
2.75757e-05
8.98262e-10
-1.62072e-09
1.79934e-05
-7.47073e-10
6.64736e-06
1.16155e-09
2.72513e-10
6.83982e-06
4.50802e-09
5.62413e-10
1.85457e-05
9.66984e-09
6.68769e-10
2.8456e-05
1.61034e-08
6.56616e-10
3.67392e-05
2.31675e-08
5.73977e-10
4.35482e-05
3.01837e-08
4.54552e-10
4.90169e-05
3.64916e-08
3.19473e-10
5.32579e-05
4.14989e-08
1.79764e-10
5.63612e-05
4.47276e-08
3.9105e-11
5.83939e-05
4.58543e-08
-1.03554e-10
5.94003e-05
4.47436e-08
-2.51535e-10
5.94019e-05
4.14702e-08
-4.08059e-10
5.83978e-05
3.63252e-08
-5.73835e-10
5.63649e-05
2.98023e-08
-7.44539e-10
5.32579e-05
2.25584e-08
-9.0819e-10
4.90097e-05
1.53478e-08
-1.04257e-09
4.35312e-05
8.93306e-09
-1.11297e-09
3.67122e-05
3.97956e-09
-1.0711e-09
2.84225e-05
9.48804e-10
-8.55539e-10
1.85136e-05
-3.92509e-10
6.82275e-06
1.18861e-09
-5.32351e-15
6.92635e-06
4.61256e-09
-1.57813e-14
1.8802e-05
9.89197e-09
-2.44192e-14
2.88732e-05
1.64692e-08
-3.1054e-14
3.73036e-05
2.36877e-08
-3.49123e-14
4.42424e-05
3.08545e-08
-3.55005e-14
4.98211e-05
3.7296e-08
-3.26922e-14
5.4151e-05
4.24086e-08
-2.67267e-14
5.73212e-05
4.57056e-08
-1.81701e-14
5.93987e-05
4.68577e-08
-7.83982e-15
6.04274e-05
4.57269e-08
3.29077e-15
6.0429e-05
4.23887e-08
1.41886e-14
5.94026e-05
3.7139e-08
2.38122e-14
5.7325e-05
3.048e-08
3.11417e-14
5.4151e-05
2.30808e-08
3.52778e-14
4.98137e-05
1.5711e-08
3.56244e-14
4.4225e-05
9.14974e-09
3.21178e-14
3.7276e-05
4.07879e-09
2.50495e-14
2.88389e-05
9.73308e-10
1.50818e-14
1.87692e-05
5.60558e-15
6.90891e-06
1.18861e-09
-2.72524e-10
6.92635e-06
4.61256e-09
-5.62445e-10
1.8802e-05
9.89197e-09
-6.68818e-10
2.88732e-05
1.64692e-08
-6.56678e-10
3.73036e-05
2.36877e-08
-5.74047e-10
4.42424e-05
3.08545e-08
-4.54623e-10
4.98211e-05
3.7296e-08
-3.19538e-10
5.4151e-05
4.24086e-08
-1.79817e-10
5.73212e-05
4.57056e-08
-3.91409e-11
5.93987e-05
4.68577e-08
1.03538e-10
6.04274e-05
4.57269e-08
2.51542e-10
6.0429e-05
4.23887e-08
4.08087e-10
5.94026e-05
3.7139e-08
5.73883e-10
5.7325e-05
3.04801e-08
7.44601e-10
5.4151e-05
2.30809e-08
9.0826e-10
4.98138e-05
1.5711e-08
1.04264e-09
4.4225e-05
9.14974e-09
1.11304e-09
3.7276e-05
4.07879e-09
1.07115e-09
2.88389e-05
9.73308e-10
8.5557e-10
1.87692e-05
3.9252e-10
6.90891e-06
1.16155e-09
-5.23003e-10
6.83982e-06
4.50803e-09
-1.0735e-09
1.85457e-05
9.66985e-09
-1.27107e-09
2.8456e-05
1.61035e-08
-1.24355e-09
3.67392e-05
2.31675e-08
-1.08385e-09
4.35482e-05
3.01838e-08
-8.56448e-10
4.90169e-05
3.64916e-08
-6.01301e-10
5.32579e-05
4.1499e-08
-3.38921e-10
5.63612e-05
4.47277e-08
-7.58415e-11
5.83939e-05
4.58544e-08
1.9034e-10
5.94003e-05
4.47437e-08
4.66317e-10
5.94019e-05
4.14702e-08
7.58608e-10
5.83978e-05
3.63253e-08
1.06905e-09
5.63649e-05
2.98024e-08
1.39004e-09
5.32579e-05
2.25584e-08
1.69953e-09
4.90097e-05
1.53478e-08
1.95603e-09
4.35312e-05
8.93307e-09
2.09408e-09
3.67122e-05
3.97957e-09
2.02169e-09
2.84225e-05
9.48806e-10
1.62075e-09
1.85136e-05
7.47085e-10
6.82275e-06
1.10625e-09
-7.29434e-10
6.6637e-06
4.29587e-09
-1.48319e-09
1.80242e-05
9.22081e-09
-1.74326e-09
2.76079e-05
1.53661e-08
-1.69513e-09
3.55931e-05
2.21207e-08
-1.46999e-09
4.214e-05
2.88354e-08
-1.15712e-09
4.73871e-05
3.48761e-08
-8.10822e-10
5.14496e-05
3.96727e-08
-4.5815e-10
5.44188e-05
4.27645e-08
-1.07021e-10
5.63621e-05
4.384e-08
2.46786e-10
5.73237e-05
4.2769e-08
6.13297e-10
5.73252e-05
3.96247e-08
1.00234e-09
5.63658e-05
3.46887e-08
1.41753e-09
5.44223e-05
2.84378e-08
1.84981e-09
5.14497e-05
2.15044e-08
2.27063e-09
4.73803e-05
1.46132e-08
2.62479e-09
4.21238e-05
8.49326e-09
2.82369e-09
3.55673e-05
3.77702e-09
2.74084e-09
2.75757e-05
8.98266e-10
2.21109e-09
1.79934e-05
1.02744e-09
6.64736e-06
1.02046e-09
-8.70101e-10
6.39156e-06
3.97077e-09
-1.74522e-09
1.72189e-05
8.5371e-09
-2.02912e-09
2.63004e-05
1.4248e-08
-1.95558e-09
3.38296e-05
2.05377e-08
-1.68337e-09
3.99774e-05
2.68002e-08
-1.31766e-09
4.48887e-05
3.24401e-08
-9.20572e-10
4.86819e-05
3.69206e-08
-5.21735e-10
5.14493e-05
3.98068e-08
-1.28644e-10
5.32583e-05
4.08048e-08
2.65078e-10
5.41529e-05
3.97926e-08
6.72411e-10
5.41543e-05
3.68407e-08
1.10617e-09
5.32617e-05
3.22172e-08
1.57226e-09
5.14525e-05
2.63734e-08
2.06235e-09
4.86819e-05
1.9906e-08
2.54589e-09
4.48821e-05
1.3495e-08
2.96158e-09
3.9962e-05
7.82006e-09
3.20832e-09
3.38052e-05
3.46433e-09
3.13858e-09
2.62701e-05
8.189e-10
2.5551e-09
1.719e-05
1.20106e-09
6.37622e-06
9.01674e-10
-9.2489e-10
6.01271e-06
3.52719e-09
-1.82098e-09
1.60996e-05
7.61182e-09
-2.08594e-09
2.44874e-05
1.27427e-08
-1.9862e-09
3.13917e-05
1.84134e-08
-1.69257e-09
3.6997e-05
2.40744e-08
-1.31466e-09
4.14551e-05
2.91816e-08
-9.14573e-10
4.4887e-05
3.32415e-08
-5.19958e-10
4.73849e-05
3.58537e-08
-1.36238e-10
4.90152e-05
3.67478e-08
2.4498e-10
4.98207e-05
3.58128e-08
6.3867e-10
4.9822e-05
3.31159e-08
1.05968e-09
4.90182e-05
2.89069e-08
1.51623e-09
4.73876e-05
2.36037e-08
2.00255e-09
4.48866e-05
1.77558e-08
2.49074e-09
4.14486e-05
1.19848e-08
2.92196e-09
3.69824e-05
6.90517e-09
3.19527e-09
3.13689e-05
3.03507e-09
3.15862e-09
2.44593e-05
7.07845e-10
2.60316e-09
1.60728e-05
1.2426e-09
5.99855e-06
7.48837e-10
-8.78633e-10
5.51053e-06
2.96349e-09
-1.6864e-09
1.46198e-05
6.4456e-09
-1.89397e-09
2.21006e-05
1.08554e-08
-1.77548e-09
2.81972e-05
1.57581e-08
-1.49309e-09
3.31094e-05
2.06729e-08
-1.14779e-09
3.69943e-05
2.51187e-08
-7.93792e-10
3.99729e-05
2.86559e-08
-4.52512e-10
4.21348e-05
3.09273e-08
-1.26345e-10
4.35432e-05
3.16922e-08
1.94224e-10
4.42383e-05
3.08532e-08
5.24471e-10
4.42392e-05
2.84734e-08
8.79594e-10
4.35454e-05
2.47795e-08
1.26928e-09
4.21365e-05
2.01474e-08
1.69121e-09
3.99717e-05
1.50682e-08
2.12392e-09
3.69876e-05
1.00912e-08
2.5191e-09
3.30953e-05
5.7518e-09
2.78844e-09
2.81759e-05
2.48909e-09
2.79347e-09
2.20746e-05
5.64507e-10
2.33915e-09
1.45953e-05
1.13948e-09
5.49764e-06
5.62452e-10
-7.25025e-10
4.859e-06
2.28848e-09
-1.34583e-09
1.27094e-05
5.05842e-09
-1.47112e-09
1.90405e-05
8.61767e-09
-1.35202e-09
2.41316e-05
1.26138e-08
-1.1176e-09
2.81943e-05
1.6646e-08
-8.47386e-10
3.13861e-05
2.03073e-08
-5.81394e-10
3.3822e-05
2.32237e-08
-3.31992e-10
3.55844e-05
2.50905e-08
-9.87533e-11
3.67304e-05
2.57035e-08
1.27224e-10
3.72952e-05
2.49818e-08
3.59235e-10
3.72959e-05
2.29828e-08
6.10537e-10
3.67317e-05
1.99039e-08
8.90582e-10
3.5585e-05
1.60699e-08
1.20001e-09
3.38197e-05
1.19004e-08
1.52564e-09
3.13789e-05
7.85954e-09
1.83539e-09
2.81807e-05
4.39037e-09
2.06365e-09
2.41117e-05
1.84154e-09
2.1023e-09
1.90168e-05
3.91618e-10
1.79783e-09
1.26872e-05
8.98161e-10
4.84743e-06
3.49933e-10
-4.76491e-10
4.01461e-06
1.53086e-09
-8.50334e-10
1.02594e-05
3.505e-09
-8.93202e-10
1.51634e-05
6.10724e-09
-8.00248e-10
1.90382e-05
9.07541e-09
-6.46272e-10
2.20955e-05
1.20995e-08
-4.80591e-10
2.44797e-05
1.48604e-08
-3.26261e-10
2.62905e-05
1.70625e-08
-1.86327e-10
2.75967e-05
1.84655e-08
-5.89393e-11
2.84443e-05
1.89089e-08
6.20495e-11
2.88616e-05
1.83315e-08
1.85651e-10
2.88619e-05
1.67821e-08
3.2089e-10
2.84447e-05
1.44211e-08
4.74801e-10
2.75961e-05
1.1509e-08
6.49177e-10
2.62872e-05
8.37965e-09
8.38468e-10
2.44722e-05
5.39647e-09
1.02846e-09
2.20827e-05
2.8981e-09
1.18098e-09
1.90203e-05
1.13507e-09
1.22923e-09
1.51425e-05
2.01741e-10
1.08319e-09
1.024e-05
5.55316e-10
4.00448e-06
1.43807e-10
-1.9313e-10
2.89475e-06
7.63249e-10
-3.21472e-10
7.09138e-06
1.89819e-09
-3.11474e-10
1.02581e-05
3.47168e-09
-2.73989e-10
1.27062e-05
5.31399e-09
-2.14187e-10
1.46143e-05
7.21725e-09
-1.53295e-10
1.60918e-05
8.96771e-09
-1.02857e-10
1.72092e-05
1.0366e-08
-5.87019e-11
1.80131e-05
1.12504e-08
-1.97042e-11
1.85339e-05
1.15144e-08
1.59733e-11
1.879e-05
1.11188e-08
5.20304e-11
1.879e-05
1.00996e-08
9.22313e-11
1.85336e-05
8.56796e-09
1.39739e-10
1.80117e-05
6.70302e-09
1.95154e-10
1.72056e-05
4.73219e-09
2.57393e-10
1.6085e-05
2.89865e-09
3.2703e-10
1.46036e-05
1.42542e-09
3.87228e-10
1.26918e-05
4.65572e-10
4.10467e-10
1.02417e-05
3.65614e-11
3.84482e-10
7.07618e-06
2.05213e-10
2.88659e-06
-1.11986e-11
1.30815e-06
1.18277e-10
2.89448e-06
4.6219e-10
4.01365e-06
9.79164e-10
4.85703e-06
1.61514e-09
5.50739e-06
2.29097e-09
6.00842e-06
2.91782e-09
6.38629e-06
3.41889e-09
6.65768e-06
3.73224e-09
6.83331e-06
3.81675e-09
6.91957e-06
3.65823e-09
6.91943e-06
3.2723e-09
6.83278e-06
2.70456e-09
6.65649e-06
2.02597e-09
6.38402e-06
1.32579e-09
6.0047e-06
7.04595e-10
5.50197e-06
2.45371e-10
4.85001e-06
-9.33794e-12
4.00565e-06
-5.15668e-11
2.88689e-06
1.30367e-06
-3.49349e-11
3.1966e-10
1.30786e-06
1.45647e-10
5.37371e-10
2.89376e-06
6.64176e-10
5.34949e-10
4.0126e-06
1.47264e-09
4.71412e-10
4.85575e-06
2.48165e-09
3.73465e-10
5.50601e-06
3.56229e-09
2.72699e-10
6.00706e-06
4.57174e-09
1.84891e-10
6.38509e-06
5.38257e-09
1.06754e-10
6.65677e-06
5.89134e-09
3.63387e-11
6.83276e-06
6.02918e-09
-2.98357e-11
6.91946e-06
5.77143e-09
-9.74319e-11
6.91979e-06
5.14289e-09
-1.72137e-10
6.83358e-06
4.21849e-09
-2.58636e-10
6.65767e-06
3.11681e-09
-3.58159e-10
6.38548e-06
1.98797e-09
-4.68597e-10
6.00629e-06
9.97489e-10
-5.86618e-10
5.50355e-06
2.83992e-10
-6.86687e-10
4.85141e-06
-8.10232e-11
-7.25061e-10
4.00674e-06
-1.07624e-10
-6.61554e-10
2.88758e-06
-3.47134e-10
1.30391e-06
1.96825e-10
8.00042e-10
2.89408e-06
1.13796e-09
1.4401e-09
7.08954e-06
2.91835e-09
1.53231e-09
1.02553e-05
5.42164e-09
1.3851e-09
1.27027e-05
8.3813e-09
1.13159e-09
1.46105e-05
1.14612e-08
8.52255e-10
1.60881e-05
1.43091e-08
5.8482e-10
1.7206e-05
1.6595e-08
3.37123e-10
1.80106e-05
1.80488e-08
1.06561e-10
1.85324e-05
1.84902e-08
-1.16682e-10
1.87897e-05
1.78503e-08
-3.46478e-10
1.87909e-05
1.61855e-08
-5.96557e-10
1.85356e-05
1.36792e-08
-8.77168e-10
1.80148e-05
1.06298e-08
-1.19014e-09
1.72095e-05
7.41811e-09
-1.52444e-09
1.60892e-05
4.45298e-09
-1.85155e-09
1.46078e-05
2.10462e-09
-2.10553e-09