/*--------------------------------*- C++ -*----------------------------------*\
  =========                 |
  \\      /  F ield         | OpenFOAM: The Open Source CFD Toolbox
   \\    /   O peration     | Website:  https://openfoam.org
    \\  /    A nd           | Version:  6
     \\/     M anipulation  |
\*---------------------------------------------------------------------------*/
FoamFile
{
    version     2.0;
    format      ascii;
    class       volScalarField;
    location    "0.08";
    object      T;
}
// * * * * * * * * * * * * * * * * * * * * * * * * * * * * * * * * * * * * * //

dimensions      [0 0 0 1 0 0 0];

internalField   nonuniform List<scalar> 
7000
(
98.935
98.9349
98.9348
98.9348
98.9347
98.9347
98.9348
98.9348
98.9348
98.9349
98.9349
98.9348
98.9347
98.9346
98.9346
98.9346
98.9346
98.9347
98.9347
98.9348
98.9348
98.9347
98.9346
98.9345
98.9345
98.9345
98.9345
98.9346
98.9346
98.9347
98.9348
98.9346
98.9345
98.9345
98.9345
98.9345
98.9345
98.9345
98.9346
98.9347
98.9347
98.9346
98.9345
98.9345
98.9345
98.9345
98.9345
98.9345
98.9346
98.9347
98.9347
98.9346
98.9345
98.9345
98.9345
98.9345
98.9345
98.9345
98.9346
98.9347
98.9348
98.9346
98.9345
98.9345
98.9345
98.9345
98.9345
98.9346
98.9346
98.9347
98.9348
98.9347
98.9346
98.9345
98.9345
98.9345
98.9346
98.9346
98.9347
98.9347
98.9348
98.9347
98.9346
98.9346
98.9346
98.9346
98.9346
98.9347
98.9347
98.9348
98.9349
98.9348
98.9347
98.9347
98.9347
98.9347
98.9347
98.9347
98.9348
98.9349
77.5095
77.5092
77.5089
77.5088
77.5087
77.5087
77.5088
77.5089
77.509
77.5092
77.5092
77.5088
77.5086
77.5085
77.5084
77.5084
77.5085
77.5086
77.5087
77.5089
77.5089
77.5086
77.5084
77.5083
77.5082
77.5082
77.5083
77.5084
77.5086
77.5088
77.5088
77.5085
77.5083
77.5081
77.5081
77.5081
77.5082
77.5083
77.5084
77.5087
77.5088
77.5084
77.5082
77.5081
77.508
77.508
77.5081
77.5082
77.5084
77.5086
77.5087
77.5084
77.5082
77.5081
77.508
77.508
77.5081
77.5082
77.5084
77.5086
77.5088
77.5085
77.5083
77.5082
77.5081
77.5081
77.5082
77.5083
77.5085
77.5087
77.5089
77.5086
77.5084
77.5083
77.5082
77.5082
77.5083
77.5084
77.5086
77.5089
77.509
77.5088
77.5086
77.5085
77.5084
77.5084
77.5085
77.5086
77.5088
77.509
77.5092
77.509
77.5088
77.5087
77.5086
77.5087
77.5087
77.5089
77.5091
77.5093
58.0624
58.0619
58.0616
58.0614
58.0613
58.0613
58.0614
58.0616
58.0618
58.062
58.0619
58.0615
58.0612
58.061
58.0609
58.0609
58.061
58.0611
58.0614
58.0617
58.0616
58.0612
58.0609
58.0607
58.0606
58.0606
58.0607
58.0609
58.0611
58.0615
58.0614
58.061
58.0607
58.0605
58.0604
58.0604
58.0605
58.0607
58.061
58.0613
58.0614
58.0609
58.0606
58.0604
58.0604
58.0604
58.0605
58.0606
58.0609
58.0613
58.0614
58.0609
58.0606
58.0605
58.0604
58.0604
58.0605
58.0607
58.0609
58.0613
58.0614
58.061
58.0607
58.0606
58.0605
58.0605
58.0606
58.0608
58.0611
58.0614
58.0616
58.0612
58.0609
58.0608
58.0607
58.0607
58.0608
58.061
58.0613
58.0616
58.0618
58.0614
58.0612
58.061
58.061
58.061
58.0611
58.0613
58.0616
58.0619
58.0621
58.0618
58.0615
58.0614
58.0613
58.0614
58.0615
58.0617
58.0619
58.0623
41.5065
41.506
41.5057
41.5055
41.5054
41.5054
41.5054
41.5056
41.5058
41.5061
41.506
41.5056
41.5052
41.505
41.5049
41.5049
41.505
41.5051
41.5054
41.5058
41.5057
41.5052
41.5049
41.5047
41.5046
41.5046
41.5047
41.5048
41.5051
41.5055
41.5055
41.505
41.5047
41.5045
41.5044
41.5044
41.5045
41.5047
41.505
41.5054
41.5054
41.5049
41.5046
41.5044
41.5043
41.5043
41.5044
41.5046
41.5049
41.5053
41.5054
41.5049
41.5046
41.5044
41.5043
41.5043
41.5044
41.5046
41.5049
41.5054
41.5055
41.5051
41.5047
41.5046
41.5045
41.5045
41.5046
41.5048
41.5051
41.5055
41.5057
41.5053
41.505
41.5048
41.5047
41.5047
41.5048
41.505
41.5053
41.5058
41.506
41.5056
41.5053
41.5051
41.5051
41.5051
41.5052
41.5054
41.5057
41.5061
41.5063
41.506
41.5057
41.5056
41.5055
41.5055
41.5056
41.5058
41.5062
41.5066
28.2768
28.2764
28.276
28.2758
28.2757
28.2757
28.2757
28.2758
28.2759
28.2761
28.2764
28.2759
28.2756
28.2754
28.2753
28.2752
28.2753
28.2753
28.2755
28.2758
28.276
28.2756
28.2753
28.2751
28.275
28.2749
28.275
28.2751
28.2753
28.2756
28.2759
28.2754
28.2751
28.2749
28.2748
28.2748
28.2748
28.2749
28.2751
28.2755
28.2758
28.2753
28.275
28.2748
28.2747
28.2747
28.2747
28.2748
28.275
28.2754
28.2758
28.2753
28.275
28.2748
28.2747
28.2747
28.2748
28.2749
28.2751
28.2755
28.2759
28.2755
28.2752
28.275
28.2749
28.2749
28.2749
28.275
28.2752
28.2756
28.2761
28.2757
28.2754
28.2752
28.2751
28.2751
28.2752
28.2753
28.2755
28.2759
28.2764
28.276
28.2757
28.2756
28.2755
28.2755
28.2755
28.2757
28.2759
28.2763
28.2767
28.2764
28.2762
28.2761
28.276
28.276
28.276
28.2762
28.2764
28.2768
18.3436
18.3432
18.3429
18.3428
18.3426
18.3425
18.3424
18.3422
18.342
18.342
18.3432
18.3428
18.3426
18.3424
18.3422
18.3421
18.342
18.3418
18.3417
18.3417
18.343
18.3426
18.3423
18.3421
18.342
18.3419
18.3417
18.3416
18.3414
18.3415
18.3428
18.3424
18.3421
18.342
18.3418
18.3417
18.3416
18.3414
18.3413
18.3414
18.3427
18.3424
18.3421
18.3419
18.3418
18.3417
18.3415
18.3414
18.3413
18.3414
18.3427
18.3424
18.3421
18.3419
18.3418
18.3417
18.3416
18.3414
18.3413
18.3414
18.3429
18.3425
18.3422
18.342
18.3419
18.3418
18.3417
18.3416
18.3415
18.3416
18.343
18.3427
18.3424
18.3423
18.3422
18.3421
18.342
18.3418
18.3417
18.3418
18.3433
18.343
18.3428
18.3426
18.3425
18.3424
18.3423
18.3422
18.342
18.3421
18.3437
18.3434
18.3432
18.3431
18.343
18.3429
18.3428
18.3426
18.3425
18.3426
11.3274
11.3271
11.3269
11.3267
11.3265
11.3262
11.3257
11.3248
11.3237
11.3229
11.3271
11.3268
11.3266
11.3264
11.3262
11.3259
11.3254
11.3245
11.3235
11.3227
11.3269
11.3266
11.3264
11.3262
11.326
11.3257
11.3252
11.3244
11.3233
11.3225
11.3268
11.3265
11.3262
11.3261
11.3259
11.3256
11.3251
11.3243
11.3232
11.3224
11.3267
11.3264
11.3262
11.326
11.3258
11.3255
11.325
11.3242
11.3232
11.3224
11.3267
11.3264
11.3262
11.326
11.3258
11.3256
11.3251
11.3243
11.3232
11.3225
11.3268
11.3265
11.3263
11.3261
11.326
11.3257
11.3252
11.3244
11.3233
11.3226
11.327
11.3267
11.3265
11.3263
11.3262
11.3259
11.3254
11.3246
11.3235
11.3228
11.3272
11.327
11.3268
11.3266
11.3264
11.3262
11.3257
11.3249
11.3238
11.3231
11.3275
11.3273
11.3271
11.327
11.3268
11.3266
11.3261
11.3253
11.3242
11.3235
6.65863
6.6584
6.65821
6.658
6.65768
6.65704
6.65575
6.65336
6.64979
6.64638
6.65842
6.65819
6.658
6.6578
6.65748
6.65684
6.65554
6.65317
6.64962
6.64625
6.65827
6.65805
6.65786
6.65765
6.65733
6.6567
6.65541
6.65304
6.6495
6.64615
6.65818
6.65796
6.65777
6.65757
6.65725
6.65662
6.65533
6.65296
6.64943
6.64609
6.65815
6.65793
6.65774
6.65754
6.65722
6.65659
6.65531
6.65294
6.64942
6.64607
6.65817
6.65795
6.65776
6.65756
6.65725
6.65662
6.65534
6.65298
6.64945
6.64611
6.65824
6.65802
6.65784
6.65765
6.65734
6.65671
6.65543
6.65307
6.64955
6.6462
6.65837
6.65816
6.65799
6.65779
6.65749
6.65686
6.65558
6.65322
6.6497
6.64636
6.65855
6.65836
6.6582
6.65801
6.65771
6.65709
6.65581
6.65345
6.64993
6.64659
6.65878
6.65863
6.65849
6.65831
6.65801
6.65739
6.65611
6.65375
6.65023
6.64689
3.7274
3.72724
3.72707
3.72682
3.72629
3.72507
3.72231
3.71663
3.70675
3.69497
3.72726
3.7271
3.72693
3.72668
3.72615
3.72493
3.72218
3.71651
3.70663
3.69489
3.72716
3.727
3.72684
3.72658
3.72606
3.72484
3.72209
3.71642
3.70656
3.69483
3.72711
3.72695
3.72678
3.72653
3.726
3.72479
3.72204
3.71637
3.70651
3.69479
3.72709
3.72693
3.72676
3.72651
3.72599
3.72477
3.72202
3.71636
3.7065
3.69478
3.7271
3.72694
3.72678
3.72653
3.72601
3.72479
3.72205
3.71639
3.70653
3.69481
3.72716
3.727
3.72684
3.72659
3.72607
3.72486
3.72211
3.71646
3.7066
3.69488
3.72725
3.7271
3.72694
3.7267
3.72618
3.72497
3.72223
3.71657
3.70671
3.69499
3.72738
3.72724
3.72709
3.72685
3.72634
3.72513
3.72239
3.71673
3.70687
3.69515
3.72755
3.72744
3.7273
3.72707
3.72655
3.72534
3.7226
3.71694
3.70709
3.69537
1.98819
1.98807
1.98791
1.9876
1.98682
1.98485
1.97993
1.96835
1.94371
1.90313
1.9881
1.98799
1.98783
1.98751
1.98674
1.98476
1.97984
1.96827
1.94365
1.90308
1.98804
1.98793
1.98777
1.98745
1.98668
1.9847
1.97979
1.96822
1.9436
1.90305
1.98801
1.98789
1.98773
1.98742
1.98665
1.98467
1.97976
1.96819
1.94357
1.90302
1.988
1.98788
1.98772
1.98741
1.98664
1.98466
1.97975
1.96819
1.94357
1.90302
1.98801
1.98789
1.98774
1.98742
1.98665
1.98468
1.97977
1.9682
1.94359
1.90304
1.98805
1.98793
1.98778
1.98746
1.98669
1.98472
1.97981
1.96825
1.94363
1.90308
1.98811
1.988
1.98785
1.98754
1.98677
1.9848
1.97989
1.96832
1.94371
1.90315
1.9882
1.98809
1.98795
1.98764
1.98687
1.9849
1.97999
1.96843
1.94381
1.90326
1.98831
1.98823
1.98809
1.98778
1.98702
1.98505
1.98014
1.96857
1.94395
1.9034
1.01131
1.01123
1.01108
1.01072
1.00978
1.00723
1.00039
0.982045
0.931786
0.785565
1.01126
1.01118
1.01103
1.01067
1.00973
1.00718
1.00034
0.982001
0.931749
0.78554
1.01123
1.01114
1.01099
1.01064
1.0097
1.00715
1.00031
0.981972
0.931724
0.785522
1.01121
1.01112
1.01097
1.01062
1.00968
1.00713
1.00029
0.981956
0.93171
0.785511
1.0112
1.01112
1.01097
1.01061
1.00967
1.00713
1.00029
0.981953
0.931709
0.785511
1.01121
1.01113
1.01098
1.01062
1.00968
1.00714
1.0003
0.981965
0.93172
0.785521
1.01123
1.01115
1.011
1.01065
1.00971
1.00717
1.00033
0.981992
0.931746
0.785543
1.01127
1.01119
1.01105
1.01069
1.00976
1.00721
1.00038
0.982037
0.931789
0.785579
1.01133
1.01125
1.01111
1.01076
1.00982
1.00728
1.00044
0.982103
0.931851
0.785632
1.0114
1.01134
1.0112
1.01085
1.00991
1.00737
1.00053
0.982191
0.931935
0.785705
0.491017
0.490956
0.490826
0.490495
0.489605
0.487227
0.481034
0.465412
0.427577
0.342161
0.490989
0.490928
0.490798
0.490468
0.489578
0.4872
0.481009
0.465388
0.427558
0.342147
0.49097
0.490909
0.490779
0.490449
0.489559
0.487182
0.480992
0.465373
0.427545
0.342138
0.490959
0.490898
0.490768
0.490438
0.489549
0.487173
0.480982
0.465365
0.427538
0.342133
0.490956
0.490895
0.490766
0.490436
0.489547
0.487171
0.480981
0.465364
0.427538
0.342133
0.490962
0.490901
0.490772
0.490442
0.489553
0.487178
0.480988
0.465371
0.427544
0.342138
0.490976
0.490915
0.490787
0.490458
0.489569
0.487194
0.481004
0.465386
0.427559
0.34215
0.490999
0.49094
0.490812
0.490484
0.489596
0.48722
0.481031
0.465412
0.427582
0.342169
0.491033
0.490976
0.49085
0.490522
0.489635
0.487259
0.481069
0.46545
0.427617
0.342198
0.491074
0.491024
0.490901
0.490574
0.489687
0.487312
0.481121
0.4655
0.427664
0.342237
0.227793
0.227751
0.227652
0.227394
0.226715
0.22497
0.220685
0.210755
0.189523
0.149547
0.227778
0.227736
0.227637
0.22738
0.226701
0.224956
0.220672
0.210744
0.189514
0.14954
0.227768
0.227726
0.227628
0.22737
0.226691
0.224947
0.220663
0.210736
0.189507
0.149535
0.227763
0.227721
0.227622
0.227365
0.226686
0.224942
0.220658
0.210732
0.189504
0.149533
0.227761
0.22772
0.227621
0.227364
0.226685
0.224942
0.220658
0.210732
0.189504
0.149533
0.227765
0.227723
0.227624
0.227368
0.226689
0.224946
0.220662
0.210735
0.189507
0.149536
0.227773
0.227731
0.227633
0.227376
0.226698
0.224954
0.220671
0.210744
0.189515
0.149542
0.227786
0.227745
0.227647
0.227391
0.226713
0.224969
0.220685
0.210758
0.189528
0.149552
0.227804
0.227765
0.227668
0.227412
0.226734
0.224991
0.220706
0.210778
0.189546
0.149567
0.227827
0.227791
0.227696
0.227441
0.226763
0.225019
0.220735
0.210805
0.189571
0.149588
0.101087
0.10106
0.100993
0.100822
0.100382
0.0993045
0.0968147
0.0914834
0.0811779
0.0640371
0.10108
0.101053
0.100986
0.100815
0.100375
0.0992979
0.0968084
0.0914778
0.0811732
0.0640337
0.101075
0.101048
0.100982
0.10081
0.100371
0.0992934
0.0968043
0.0914741
0.0811702
0.0640314
0.101072
0.101045
0.100979
0.100807
0.100368
0.0992911
0.0968021
0.0914722
0.0811686
0.0640303
0.101071
0.101045
0.100979
0.100807
0.100368
0.0992908
0.096802
0.0914722
0.0811687
0.0640305
0.101073
0.101047
0.100981
0.100809
0.10037
0.0992929
0.0968041
0.0914742
0.0811706
0.064032
0.101077
0.101051
0.100985
0.100814
0.100375
0.0992976
0.0968087
0.0914786
0.0811745
0.0640352
0.101084
0.101058
0.100992
0.100821
0.100382
0.0993053
0.0968162
0.0914858
0.081181
0.0640404
0.101094
0.101069
0.101003
0.100832
0.100393
0.0993164
0.0968271
0.0914961
0.0811902
0.064048
0.101106
0.101083
0.101018
0.100847
0.100408
0.0993313
0.0968417
0.09151
0.0812028
0.0640583
0.042959
0.0429435
0.0429037
0.0428025
0.0425526
0.0419675
0.0406895
0.0381315
0.0335624
0.026588
0.0429557
0.0429402
0.0429004
0.0427992
0.0425494
0.0419645
0.0406866
0.0381289
0.0335603
0.0265864
0.0429535
0.042938
0.0428982
0.042797
0.0425473
0.0419624
0.0406847
0.0381273
0.0335589
0.0265854
0.0429522
0.0429368
0.042897
0.0427959
0.0425462
0.0419613
0.0406837
0.0381264
0.0335583
0.0265849
0.0429521
0.0429366
0.0428969
0.0427958
0.0425461
0.0419613
0.0406837
0.0381265
0.0335583
0.026585
0.042953
0.0429375
0.0428979
0.0427968
0.0425471
0.0419624
0.0406848
0.0381275
0.0335593
0.0265858
0.0429551
0.0429397
0.0429001
0.0427991
0.0425495
0.0419647
0.0406871
0.0381296
0.0335612
0.0265873
0.0429585
0.0429433
0.0429038
0.0428029
0.0425533
0.0419685
0.0406908
0.0381331
0.0335643
0.0265899
0.0429634
0.0429484
0.0429091
0.0428083
0.0425588
0.0419739
0.0406961
0.0381381
0.0335688
0.0265935
0.0429694
0.0429554
0.0429164
0.0428157
0.0425661
0.0419813
0.0407032
0.0381449
0.0335748
0.0265985
0.0175036
0.0174953
0.0174737
0.01742
0.017292
0.0170049
0.0164079
0.0152786
0.0133822
0.0106582
0.0175021
0.0174938
0.0174722
0.0174186
0.0172906
0.0170035
0.0164066
0.0152775
0.0133813
0.0106575
0.0175011
0.0174928
0.0174712
0.0174176
0.0172897
0.0170026
0.0164058
0.0152767
0.0133806
0.0106571
0.0175006
0.0174923
0.0174707
0.0174171
0.0172892
0.0170021
0.0164054
0.0152764
0.0133804
0.0106569
0.0175005
0.0174922
0.0174707
0.0174171
0.0172892
0.0170022
0.0164054
0.0152764
0.0133804
0.010657
0.017501
0.0174927
0.0174712
0.0174176
0.0172897
0.0170027
0.0164059
0.0152769
0.0133809
0.0106573
0.017502
0.0174937
0.0174722
0.0174187
0.0172908
0.0170038
0.016407
0.0152779
0.0133818
0.0106581
0.0175036
0.0174954
0.017474
0.0174204
0.0172926
0.0170055
0.0164087
0.0152795
0.0133832
0.0106592
0.0175059
0.0174978
0.0174765
0.017423
0.0172952
0.0170081
0.0164112
0.0152818
0.0133853
0.0106609
0.0175088
0.0175011
0.0174799
0.0174264
0.0172986
0.0170115
0.0164145
0.015285
0.013388
0.0106632
0.00684569
0.00684156
0.00683084
0.00680479
0.0067447
0.00661492
0.0063565
0.00589009
0.00514403
0.00411894
0.00684506
0.00684094
0.00683022
0.00680419
0.0067441
0.00661435
0.00635598
0.00588962
0.00514365
0.00411865
0.00684464
0.00684052
0.00682981
0.00680378
0.00674371
0.00661397
0.00635563
0.00588932
0.0051434
0.00411846
0.00684442
0.00684031
0.0068296
0.00680358
0.00674351
0.00661379
0.00635546
0.00588917
0.00514328
0.00411838
0.00684441
0.0068403
0.0068296
0.00680358
0.00674352
0.0066138
0.00635548
0.0058892
0.00514331
0.00411841
0.00684462
0.00684051
0.00682982
0.00680381
0.00674375
0.00661404
0.00635572
0.00588942
0.00514351
0.00411858
0.00684508
0.00684098
0.0068303
0.0068043
0.00674425
0.00661453
0.00635619
0.00588987
0.00514391
0.0041189
0.00684581
0.00684174
0.00683108
0.00680509
0.00674505
0.00661532
0.00635696
0.00589058
0.00514454
0.00411942
0.00684683
0.00684282
0.0068322
0.00680623
0.00674619
0.00661645
0.00635805
0.00589161
0.00514545
0.00412017
0.00684812
0.00684429
0.00683373
0.00680778
0.00674773
0.00661797
0.00635952
0.00589297
0.00514667
0.00412118
0.00257292
0.00257102
0.00256609
0.00255439
0.00252818
0.0024735
0.00236862
0.00218662
0.00190671
0.00153495
0.00257267
0.00257077
0.00256584
0.00255414
0.00252794
0.00247328
0.00236841
0.00218644
0.00190655
0.00153483
0.0025725
0.0025706
0.00256568
0.00255398
0.00252779
0.00247313
0.00236827
0.00218632
0.00190645
0.00153476
0.00257241
0.00257052
0.00256559
0.0025539
0.00252771
0.00247305
0.00236821
0.00218626
0.00190641
0.00153473
0.00257241
0.00257052
0.0025656
0.0025539
0.00252772
0.00247306
0.00236822
0.00218628
0.00190642
0.00153474
0.00257251
0.00257061
0.00256569
0.002554
0.00252782
0.00247317
0.00236832
0.00218637
0.00190651
0.00153482
0.0025727
0.00257081
0.0025659
0.00255421
0.00252803
0.00247338
0.00236852
0.00218656
0.00190668
0.00153495
0.00257302
0.00257114
0.00256623
0.00255455
0.00252837
0.00247371
0.00236885
0.00218686
0.00190695
0.00153517
0.00257346
0.0025716
0.00256671
0.00255504
0.00252886
0.00247419
0.00236931
0.00218729
0.00190733
0.00153549
0.00257401
0.00257222
0.00256736
0.0025557
0.00252951
0.00247484
0.00236993
0.00218787
0.00190784
0.00153591
0.000930358
0.000929535
0.00092742
0.000922506
0.000911803
0.000890142
0.000849939
0.000782549
0.000682493
0.000554174
0.00093026
0.000929438
0.000927324
0.000922411
0.00091171
0.000890054
0.000849858
0.000782478
0.000682433
0.000554128
0.000930195
0.000929374
0.00092726
0.000922349
0.00091165
0.000889997
0.000849805
0.000782431
0.000682395
0.000554098
0.000930163
0.000929342
0.000927229
0.000922318
0.000911621
0.00088997
0.000849781
0.000782411
0.000682379
0.000554087
0.000930165
0.000929344
0.000927232
0.000922322
0.000911626
0.000889976
0.000849788
0.000782419
0.000682387
0.000554094
0.000930204
0.000929384
0.000927273
0.000922364
0.000911669
0.000890019
0.00084983
0.000782458
0.000682422
0.000554124
0.000930285
0.000929467
0.000927358
0.000922451
0.000911756
0.000890104
0.000849913
0.000782535
0.000682491
0.000554181
0.000930414
0.000929599
0.000927494
0.000922589
0.000911894
0.000890241
0.000850044
0.000782657
0.000682598
0.000554271
0.000930593
0.000929788
0.000927689
0.000922787
0.000912092
0.000890435
0.000850231
0.000782831
0.000682752
0.0005544
0.000930819
0.000930043
0.000927953
0.000923053
0.000912357
0.000890695
0.000850481
0.000783063
0.000682958
0.000554571
0.000324019
0.000323684
0.000322831
0.00032089
0.000316768
0.000308657
0.000294066
0.000270476
0.000237188
0.000199068
0.000323983
0.000323648
0.000322795
0.000320855
0.000316733
0.000308625
0.000294036
0.00027045
0.000237166
0.00019905
0.000323959
0.000323625
0.000322772
0.000320832
0.000316711
0.000308604
0.000294017
0.000270433
0.000237152
0.000199039
0.000323947
0.000323613
0.000322761
0.000320821
0.000316701
0.000308594
0.000294008
0.000270426
0.000237146
0.000199035
0.000323949
0.000323615
0.000322763
0.000320823
0.000316704
0.000308597
0.000294011
0.000270429
0.00023715
0.000199038
0.000323964
0.000323631
0.000322779
0.00032084
0.000316721
0.000308614
0.000294028
0.000270445
0.000237164
0.000199051
0.000323996
0.000323663
0.000322812
0.000320874
0.000316754
0.000308648
0.00029406
0.000270475
0.000237191
0.000199074
0.000324047
0.000323715
0.000322865
0.000320928
0.000316808
0.000308701
0.000294111
0.000270522
0.000237233
0.00019911
0.000324117
0.000323789
0.000322942
0.000321005
0.000316885
0.000308776
0.000294184
0.000270589
0.000237293
0.000199162
0.000324205
0.000323888
0.000323045
0.000321108
0.000316988
0.000308877
0.00029428
0.000270679
0.000237373
0.00019923
0.3112
0.124483
0.0502703
0.0226009
0.017268
0.0300761
0.073507
0.187512
0.473788
1.18766
0.311188
0.124477
0.0502675
0.022599
0.0172656
0.0300712
0.0734961
0.187488
0.473738
1.18756
0.31118
0.124474
0.0502658
0.0225979
0.017264
0.0300681
0.0734894
0.187474
0.473708
1.1875
0.311176
0.124472
0.050265
0.0225973
0.0172632
0.0300664
0.0734857
0.187466
0.473691
1.18746
0.311176
0.124472
0.0502651
0.0225973
0.017263
0.0300658
0.0734844
0.187463
0.473686
1.18745
0.311181
0.124475
0.0502663
0.0225979
0.0172633
0.0300662
0.0734851
0.187465
0.47369
1.18746
0.311192
0.12448
0.0502688
0.0225991
0.0172642
0.0300673
0.0734876
0.187471
0.473704
1.18749
0.311209
0.124488
0.0502726
0.022601
0.0172655
0.0300692
0.0734915
0.18748
0.473725
1.18754
0.311234
0.1245
0.050278
0.0226036
0.0172672
0.0300715
0.0734964
0.187491
0.473752
1.18761
0.311266
0.124514
0.0502846
0.0226068
0.0172692
0.0300738
0.073501
0.187502
0.473778
1.18767
0.181645
0.084483
0.0373006
0.0178548
0.0141585
0.0243556
0.0573787
0.138616
0.321232
0.693007
0.181638
0.084479
0.0372985
0.0178533
0.0141565
0.0243516
0.0573703
0.138598
0.321198
0.692946
0.181632
0.0844765
0.0372972
0.0178523
0.0141552
0.0243491
0.057365
0.138587
0.321176
0.692908
0.18163
0.0844752
0.0372966
0.0178519
0.0141545
0.0243477
0.057362
0.138581
0.321165
0.692886
0.18163
0.0844754
0.0372967
0.0178519
0.0141543
0.0243472
0.057361
0.138579
0.321161
0.69288
0.181633
0.0844773
0.0372977
0.0178523
0.0141546
0.0243475
0.0573616
0.138581
0.321164
0.692886
0.181641
0.0844812
0.0372996
0.0178534
0.0141553
0.0243485
0.0573637
0.138585
0.321174
0.692906
0.181652
0.0844873
0.0373027
0.017855
0.0141565
0.0243502
0.057367
0.138593
0.32119
0.692938
0.181669
0.0844962
0.0373072
0.0178573
0.0141581
0.0243523
0.0573714
0.138603
0.321212
0.692983
0.181692
0.0845082
0.0373131
0.0178603
0.0141602
0.024355
0.0573768
0.138615
0.321238
0.693038
0.0908075
0.0473392
0.0228554
0.0118102
0.00983358
0.0166104
0.0372644
0.0844381
0.179731
0.346304
0.0908032
0.0473368
0.0228541
0.0118092
0.00983218
0.0166077
0.0372589
0.0844273
0.179711
0.346272
0.0908004
0.0473353
0.0228532
0.0118085
0.00983127
0.0166059
0.0372553
0.0844203
0.179698
0.346251
0.090799
0.0473345
0.0228528
0.0118082
0.00983077
0.0166049
0.0372533
0.0844164
0.179691
0.34624
0.0907992
0.0473347
0.0228529
0.0118082
0.00983064
0.0166046
0.0372526
0.0844151
0.179689
0.346236
0.0908012
0.0473359
0.0228536
0.0118086
0.00983086
0.0166048
0.037253
0.0844161
0.179691
0.34624
0.0908054
0.0473384
0.0228549
0.0118093
0.00983141
0.0166056
0.0372545
0.0844192
0.179697
0.346251
0.0908122
0.0473423
0.022857
0.0118105
0.00983231
0.0166068
0.037257
0.0844244
0.179708
0.34627
0.090822
0.047348
0.0228601
0.0118122
0.00983357
0.0166085
0.0372604
0.0844316
0.179722
0.346297
0.0908355
0.0473558
0.0228643
0.0118145
0.00983522
0.0166107
0.0372647
0.0844408
0.179741
0.346333
0.0418052
0.0236274
0.0123033
0.00684182
0.00597536
0.00989536
0.0211334
0.0451236
0.0895316
0.159344
0.041803
0.0236261
0.0123025
0.00684119
0.00597448
0.00989373
0.0211302
0.0451177
0.0895215
0.159329
0.0418015
0.0236253
0.012302
0.00684078
0.00597391
0.00989266
0.0211281
0.0451137
0.0895147
0.159318
0.0418009
0.0236249
0.0123018
0.00684057
0.0059736
0.00989205
0.0211269
0.0451115
0.0895109
0.159312
0.041801
0.023625
0.0123018
0.00684058
0.00597352
0.00989185
0.0211265
0.0451108
0.0895097
0.15931
0.0418021
0.0236257
0.0123023
0.00684081
0.00597367
0.00989201
0.0211268
0.0451114
0.0895109
0.159312
0.0418044
0.0236271
0.0123031
0.00684128
0.00597404
0.00989251
0.0211277
0.0451133
0.0895145
0.159319
0.041808
0.0236294
0.0123044
0.00684204
0.00597465
0.00989335
0.0211293
0.0451165
0.0895205
0.159329
0.0418133
0.0236326
0.0123062
0.00684313
0.0059755
0.00989452
0.0211316
0.045121
0.0895291
0.159344
0.0418205
0.0236371
0.0123088
0.0068446
0.00597664
0.00989606
0.0211345
0.045127
0.0895406
0.159364
0.01814
0.0108665
0.00602014
0.00357461
0.00325674
0.00528992
0.010798
0.0218976
0.0410809
0.0690966
0.0181389
0.0108659
0.00601972
0.00357425
0.00325625
0.00528903
0.0107963
0.0218946
0.041076
0.0690894
0.0181382
0.0108655
0.00601946
0.00357402
0.00325593
0.00528844
0.0107952
0.0218926
0.0410727
0.0690845
0.0181379
0.0108653
0.00601934
0.00357391
0.00325575
0.0052881
0.0107945
0.0218914
0.0410708
0.0690817
0.018138
0.0108653
0.00601938
0.00357391
0.00325571
0.00528799
0.0107943
0.0218911
0.0410703
0.0690809
0.0181386
0.0108657
0.00601961
0.00357405
0.0032558
0.00528809
0.0107945
0.0218914
0.0410709
0.069082
0.0181397
0.0108665
0.00602006
0.00357432
0.00325603
0.00528839
0.0107951
0.0218925
0.0410728
0.0690851
0.0181416
0.0108676
0.00602077
0.00357476
0.00325639
0.0052889
0.010796
0.0218943
0.0410761
0.0690904
0.0181442
0.0108694
0.0060218
0.0035754
0.00325692
0.00528962
0.0107973
0.0218968
0.0410807
0.0690981
0.0181478
0.0108717
0.00602319
0.00357625
0.00325761
0.00529057
0.0107991
0.0219002
0.0410869
0.0691085
0.00749
0.00468527
0.00273104
0.00171681
0.00162134
0.00258646
0.00507212
0.00984569
0.0176655
0.0285076
0.00748952
0.00468497
0.00273083
0.00171663
0.00162109
0.00258601
0.00507131
0.00984429
0.0176633
0.0285044
0.00748921
0.00468477
0.0027307
0.00171651
0.00162092
0.00258571
0.00507076
0.00984334
0.0176618
0.0285022
0.00748908
0.00468469
0.00273065
0.00171646
0.00162083
0.00258554
0.00507044
0.00984279
0.0176609
0.028501
0.00748913
0.00468473
0.00273067
0.00171646
0.00162081
0.00258548
0.00507034
0.00984262
0.0176607
0.0285007
0.00748941
0.00468492
0.00273079
0.00171653
0.00162086
0.00258554
0.00507044
0.00984281
0.017661
0.0285012
0.00748996
0.00468529
0.00273102
0.00171668
0.00162098
0.00258571
0.00507074
0.00984336
0.017662
0.0285027
0.00749082
0.00468587
0.00273138
0.00171691
0.00162119
0.00258599
0.00507123
0.00984428
0.0176636
0.0285052
0.00749207
0.0046867
0.0027319
0.00171725
0.00162148
0.00258639
0.00507195
0.00984561
0.0176659
0.0285089
0.00749377
0.00468783
0.00273261
0.00171771
0.00162187
0.00258692
0.00507291
0.00984739
0.017669
0.028514
0.00295732
0.0019128
0.0011631
0.000768099
0.000747487
0.00117293
0.00222085
0.00415424
0.00719085
0.0112457
0.00295712
0.00191267
0.001163
0.000768011
0.000747365
0.00117272
0.00222048
0.00415362
0.00718989
0.0112443
0.00295699
0.00191258
0.00116294
0.000767955
0.000747285
0.00117258
0.00222023
0.0041532
0.00718924
0.0112434
0.00295693
0.00191255
0.00116292
0.000767928
0.000747241
0.0011725
0.00222008
0.00415296
0.00718886
0.0112429
0.00295696
0.00191257
0.00116293
0.000767931
0.000747232
0.00117248
0.00222004
0.00415288
0.00718876
0.0112427
0.00295709
0.00191266
0.00116299
0.000767967
0.000747259
0.00117251
0.00222009
0.00415298
0.00718892
0.011243
0.00295734
0.00191283
0.0011631
0.00076804
0.000747322
0.00117259
0.00222024
0.00415324
0.00718937
0.0112437
0.00295773
0.0019131
0.00116327
0.000768157
0.000747426
0.00117273
0.00222049
0.00415368
0.00719012
0.0112448
0.00295829
0.00191348
0.00116352
0.000768325
0.000747576
0.00117294
0.00222084
0.00415433
0.0071912
0.0112465
0.00295904
0.001914
0.00116386
0.00076855
0.000747775
0.00117321
0.00222132
0.00415519
0.00719268
0.0112488
0.00112153
0.000745669
0.000470196
0.000324216
0.00032359
0.000500143
0.000918058
0.00166327
0.00279415
0.00426036
0.00112144
0.000745612
0.000470155
0.000324177
0.000323535
0.00050005
0.000917897
0.00166301
0.00279376
0.00425982
0.00112139
0.000745576
0.000470129
0.000324151
0.000323498
0.000499987
0.000917788
0.00166283
0.00279349
0.00425945
0.00112137
0.000745562
0.000470118
0.000324139
0.000323478
0.000499952
0.000917726
0.00166273
0.00279333
0.00425924
0.00112138
0.000745572
0.000470124
0.000324141
0.000323475
0.000499942
0.000917708
0.0016627
0.00279329
0.00425919
0.00112144
0.000745612
0.00047015
0.000324158
0.000323488
0.000499957
0.000917733
0.00166274
0.00279337
0.00425931
0.00112155
0.000745687
0.0004702
0.000324192
0.000323519
0.000499998
0.000917802
0.00166286
0.00279357
0.00425961
0.00112171
0.000745804
0.000470278
0.000324247
0.000323569
0.000500066
0.000917918
0.00166306
0.0027939
0.00426011
0.00112195
0.000745973
0.00047039
0.000324325
0.000323641
0.000500165
0.000918086
0.00166336
0.00279438
0.00426084
0.00112228
0.000746199
0.000470541
0.00032443
0.000323736
0.000500296
0.00091831
0.00166375
0.00279504
0.00426183
0.000415823
0.000284953
0.000186235
0.000133775
0.000136571
0.000208023
0.000370839
0.000651888
0.00106376
0.00157759
0.000415789
0.000284929
0.000186217
0.000133757
0.000136547
0.000207982
0.00037077
0.000651778
0.0010636
0.00157738
0.000415768
0.000284914
0.000186206
0.000133746
0.000136531
0.000207955
0.000370724
0.000651704
0.00106349
0.00157723
0.00041576
0.000284909
0.000186201
0.000133741
0.000136522
0.000207939
0.000370698
0.000651663
0.00106343
0.00157715
0.000415766
0.000284914
0.000186204
0.000133742
0.000136521
0.000207935
0.000370691
0.000651652
0.00106342
0.00157713
0.00041579
0.000284931
0.000186216
0.00013375
0.000136527
0.000207943
0.000370703
0.000651673
0.00106345
0.00157718
0.000415835
0.000284964
0.000186238
0.000133766
0.000136542
0.000207962
0.000370734
0.000651727
0.00106354
0.00157731
0.000415905
0.000285014
0.000186273
0.000133791
0.000136565
0.000207994
0.000370788
0.000651817
0.00106368
0.00157752
0.000416005
0.000285086
0.000186322
0.000133826
0.000136599
0.00020804
0.000370864
0.000651947
0.00106389
0.00157783
0.000416138
0.000285182
0.000186388
0.000133874
0.000136643
0.000208101
0.000370966
0.000652121
0.00106417
0.00157825
0.000175309
0.000127926
8.7354e-05
6.53648e-05
6.81199e-05
0.000102333
0.000177395
0.0003023
0.000475413
0.00066395
0.000175295
0.000127916
8.73459e-05
6.53564e-05
6.81081e-05
0.000102314
0.000177363
0.00030225
0.000475343
0.000663862
0.000175285
0.000127909
8.73405e-05
6.53508e-05
6.80998e-05
0.0001023
0.000177341
0.000302215
0.000475292
0.000663797
0.000175282
0.000127907
8.73384e-05
6.53481e-05
6.80954e-05
0.000102292
0.000177328
0.000302195
0.000475264
0.000663761
0.000175285
0.000127909
8.73402e-05
6.53488e-05
6.8095e-05
0.00010229
0.000177325
0.00030219
0.000475258
0.000663754
0.000175297
0.000127918
8.73464e-05
6.53531e-05
6.80985e-05
0.000102295
0.000177331
0.000302202
0.000475276
0.00066378
0.000175318
0.000127935
8.7358e-05
6.53617e-05
6.81066e-05
0.000102305
0.000177349
0.00030223
0.000475319
0.000663841
0.000175352
0.00012796
8.7376e-05
6.53752e-05
6.81195e-05
0.000102323
0.000177377
0.000302277
0.000475392
0.000663942
0.000175398
0.000127996
8.74013e-05
6.53941e-05
6.81378e-05
0.000102348
0.000177418
0.000302344
0.000475497
0.000664087
0.000175459
0.000128042
8.7434e-05
6.54185e-05
6.81612e-05
0.00010238
0.00017747
0.000302431
0.000475633
0.000664279
2.99911
3.55749
3.74944
3.81955
3.84572
3.85551
3.85917
3.86059
3.86122
3.86155
2.9989
3.55725
3.74919
3.81929
3.84546
3.85525
3.85891
3.86034
3.86099
3.86137
2.99878
3.55711
3.74904
3.81914
3.84531
3.8551
3.85877
3.8602
3.86086
3.86126
2.99871
3.55703
3.74896
3.81906
3.84523
3.85502
3.85869
3.86013
3.8608
3.8612
2.99869
3.557
3.74894
3.81903
3.84521
3.85501
3.85868
3.86012
3.86079
3.86119
2.99871
3.55703
3.74897
3.81907
3.84525
3.85504
3.85872
3.86016
3.86084
3.86124
2.99878
3.55711
3.74906
3.81916
3.84535
3.85515
3.85882
3.86027
3.86094
3.86135
2.99889
3.55725
3.74921
3.81932
3.84551
3.85531
3.85899
3.86044
3.86111
3.86152
2.99904
3.55744
3.74942
3.81955
3.84574
3.85555
3.85923
3.86067
3.86135
3.86176
2.99921
3.55766
3.74967
3.81981
3.84601
3.85582
3.8595