/*--------------------------------*- C++ -*----------------------------------*\
  =========                 |
  \\      /  F ield         | OpenFOAM: The Open Source CFD Toolbox
   \\    /   O peration     | Website:  https://openfoam.org
    \\  /    A nd           | Version:  6
     \\/     M anipulation  |
\*---------------------------------------------------------------------------*/
FoamFile
{
    version     2.0;
    format      ascii;
    class       volVectorField;
    location    "0.069";
    object      U;
}
// * * * * * * * * * * * * * * * * * * * * * * * * * * * * * * * * * * * * * //

dimensions      [0 1 -1 0 0 0 0];

internalField   nonuniform List<vector> 
56000
(
(-4.92196e-07 7.48265e-07 0.0523366)
(-6.42751e-07 1.08259e-06 0.115805)
(1.15774e-06 9.58154e-07 0.160584)
(5.24217e-06 8.06965e-07 0.194326)
(1.11863e-05 6.06304e-07 0.220344)
(1.82143e-05 4.25905e-07 0.240383)
(2.53162e-05 2.88156e-07 0.255492)
(3.15076e-05 1.7081e-07 0.266339)
(3.59461e-05 7.28907e-08 0.273351)
(3.80059e-05 -1.3922e-08 0.276787)
(3.73671e-05 -1.01676e-07 0.276766)
(3.40612e-05 -1.999e-07 0.273285)
(2.84878e-05 -3.19616e-07 0.26622)
(2.13936e-05 -4.66557e-07 0.255312)
(1.378e-05 -6.36504e-07 0.240133)
(6.79065e-06 -8.42136e-07 0.220024)
(1.521e-06 -1.04536e-06 0.193951)
(-1.34069e-06 -1.15557e-06 0.160186)
(-1.756e-06 -1.16476e-06 0.115449)
(-5.99528e-07 -6.96593e-07 0.0521369)
(-3.89343e-07 4.02189e-06 0.115815)
(2.01184e-06 7.15775e-06 0.283721)
(1.02765e-05 7.58507e-06 0.410423)
(2.43099e-05 6.82227e-06 0.508365)
(4.27536e-05 5.56502e-06 0.584698)
(6.35188e-05 4.20871e-06 0.643797)
(8.40463e-05 2.9178e-06 0.68848)
(0.000101809 1.72664e-06 0.720611)
(0.000114614 6.22675e-07 0.741409)
(0.000120823 -4.44119e-07 0.751614)
(0.000119567 -1.53772e-06 0.751571)
(0.000110878 -2.71782e-06 0.741273)
(9.57333e-05 -4.03128e-06 0.720362)
(7.59976e-05 -5.49062e-06 0.688094)
(5.4208e-05 -7.04513e-06 0.643255)
(3.32748e-05 -8.56588e-06 0.583999)
(1.60141e-05 -9.76051e-06 0.507543)
(4.42708e-06 -1.00854e-05 0.409564)
(-8.28527e-07 -8.73609e-06 0.282979)
(-7.65287e-07 -4.3913e-06 0.11544)
(-1.03031e-07 7.64115e-06 0.160619)
(6.3207e-06 1.43236e-05 0.410471)
(2.23806e-05 1.58021e-05 0.606682)
(4.71462e-05 1.4671e-05 0.761707)
(7.81451e-05 1.22939e-05 0.884012)
(0.000112161 9.48926e-06 0.979377)
(0.000145334 6.65202e-06 1.05179)
(0.000173884 3.91818e-06 1.104)
(0.000194529 1.29576e-06 1.13785)
(0.000204795 -1.29197e-06 1.15449)
(0.000203344 -3.95586e-06 1.15443)
(0.000190169 -6.80017e-06 1.13769)
(0.000166664 -9.89236e-06 1.10369)
(0.000135552 -1.32173e-05 1.0513)
(0.000100568 -1.66184e-05 0.978672)
(6.6045e-05 -1.97482e-05 0.883092)
(3.62792e-05 -2.19437e-05 0.76062)
(1.44968e-05 -2.20968e-05 0.605547)
(2.3583e-06 -1.86345e-05 0.409503)
(-6.45565e-07 -9.12406e-06 0.160146)
(2.53452e-07 1.0514e-05 0.194402)
(1.1022e-05 2.03488e-05 0.508494)
(3.50358e-05 2.30676e-05 0.761803)
(7.03627e-05 2.18678e-05 0.965487)
(0.0001134 1.86551e-05 1.12802)
(0.000159847 1.45929e-05 1.25569)
(0.000204717 1.02987e-05 1.3531)
(0.000243181 6.03527e-06 1.42355)
(0.000271047 1.85203e-06 1.46932)
(0.000285141 -2.33183e-06 1.49184)
(0.000283725 -6.65069e-06 1.49179)
(0.000266735 -1.12306e-05 1.46914)
(0.000235876 -1.61343e-05 1.42321)
(0.000194546 -2.12935e-05 1.35255)
(0.000147457 -2.64234e-05 1.25489)
(0.000100135 -3.09365e-05 1.12696)
(5.81717e-05 -3.38165e-05 0.964228)
(2.60056e-05 -3.34804e-05 0.760485)
(6.39533e-06 -2.77001e-05 0.507372)
(-3.86632e-07 -1.33049e-05 0.193858)
(5.61279e-07 1.20349e-05 0.220468)
(1.54221e-05 2.38776e-05 0.584928)
(4.68478e-05 2.7607e-05 0.884232)
(9.19311e-05 2.65958e-05 1.12815)
(0.000145968 2.29917e-05 1.32466)
(0.000203658 1.81595e-05 1.48006)
(0.000259034 1.28758e-05 1.59917)
(0.000306368 7.50435e-06 1.68559)
(0.000340695 2.14173e-06 1.74185)
(0.000358259 -3.2753e-06 1.76957)
(0.000356979 -8.87837e-06 1.76952)
(0.00033673 -1.47894e-05 1.74168)
(0.000299457 -2.10461e-05 1.68524)
(0.000249104 -2.75182e-05 1.59859)
(0.000191197 -3.38089e-05 1.4792)
(0.00013228 -3.91482e-05 1.32351)
(7.90797e-05 -4.22697e-05 1.12676)
(3.71618e-05 -4.12965e-05 0.882773)
(1.03876e-05 -3.36646e-05 0.583682)
(-1.42849e-07 -1.58879e-05 0.219864)
(8.09813e-07 1.21283e-05 0.240558)
(1.92037e-05 2.45183e-05 0.644132)
(5.70808e-05 2.87755e-05 0.979726)
(0.000110665 2.80626e-05 1.25596)
(0.000174267 2.45009e-05 1.4802)
(0.000241702 1.9491e-05 1.65852)
(0.000306157 1.3865e-05 1.79577)
(0.000361135 8.03664e-06 1.89562)
(0.000401029 2.13946e-06 1.96076)
(0.000421597 -3.86254e-06 1.99288)
(0.000420474 -1.00799e-05 1.99283)
(0.000397476 -1.66125e-05 1.96058)
(0.000354741 -2.34659e-05 1.89527)
(0.000296656 -3.04615e-05 1.79517)
(0.000229424 -3.71364e-05 1.65762)
(0.000160453 -4.2637e-05 1.47897)
(9.74486e-05 -4.56067e-05 1.25447)
(4.69737e-05 -4.40978e-05 0.978147)
(1.38883e-05 -3.55272e-05 0.642778)
(5.80012e-08 -1.65276e-05 0.2399)
(9.9937e-07 1.09076e-05 0.255714)
(2.22382e-05 2.23612e-05 0.688912)
(6.53806e-05 2.65372e-05 1.05226)
(0.000125939 2.61164e-05 1.35349)
(0.000197404 2.29711e-05 1.59944)
(0.000272848 1.8372e-05 1.79589)
(0.000344756 1.30979e-05 1.94758)
(0.000406002 7.55379e-06 2.05822)
(0.000450457 1.88723e-06 2.13049)
(0.000473488 -3.91266e-06 2.16617)
(0.0004725 -9.92723e-06 2.16612)
(0.000447261 -1.6227e-05 2.13031)
(0.000400063 -2.27912e-05 2.05785)
(0.000335648 -2.94231e-05 1.94696)
(0.000260766 -3.56592e-05 1.79494)
(0.000183532 -4.06757e-05 1.59814)
(0.000112464 -4.31988e-05 1.35191)
(5.49576e-05 -4.14413e-05 1.05057)
(1.67059e-05 -3.30865e-05 0.687463)
(2.08968e-07 -1.522e-05 0.255007)
(1.1323e-06 8.59804e-06 0.266601)
(2.44932e-05 1.78035e-05 0.721126)
(7.1613e-05 2.12956e-05 1.10457)
(0.000137471 2.10952e-05 1.42404)
(0.000214928 1.86531e-05 1.68596)
(0.000296484 1.4975e-05 1.89584)
(0.000374079 1.06912e-05 2.05831)
(0.000440106 6.14e-06 2.17701)
(0.000488036 1.45437e-06 2.25465)
(0.000512941 -3.36095e-06 2.29301)
(0.000512052 -8.35832e-06 2.29296)
(0.0004851 -1.35806e-05 2.25447)
(0.000434493 -1.8995e-05 2.17664)
(0.000365246 -2.44242e-05 2.05767)
(0.000284525 -2.94741e-05 1.89486)
(0.000200989 -3.34624e-05 1.6846)
(0.000123781 -3.53538e-05 1.42238)
(6.0937e-05 -3.37209e-05 1.1028)
(1.87891e-05 -2.67464e-05 0.719599)
(3.10986e-07 -1.22023e-05 0.265854)
(1.21598e-06 5.48567e-06 0.273647)
(2.59789e-05 1.14321e-05 0.74199)
(7.57525e-05 1.3744e-05 1.1385)
(0.000145164 1.36721e-05 1.4699)
(0.000226652 1.21305e-05 1.74229)
(0.000312323 9.76191e-06 1.96104)
(0.00039375 6.97509e-06 2.13065)
(0.000462998 3.9939e-06 2.25472)
(0.000513268 9.10097e-07 2.33594)
(0.000539432 -2.26736e-06 2.37608)
(0.000538603 -5.56653e-06 2.37603)
(0.000510492 -9.00893e-06 2.33575)
(0.000457582 -1.25663e-05 2.25434)
(0.000385074 -1.61157e-05 2.12999)
(0.000300417 -1.93935e-05 1.96003)
(0.000212639 -2.19504e-05 1.74089)
(0.000131305 -2.31127e-05 1.46818)
(6.48902e-05 -2.19626e-05 1.13667)
(2.01512e-05 -1.73456e-05 0.740407)
(3.72589e-07 -7.8708e-06 0.272871)
(1.25636e-06 1.88348e-06 0.277108)
(2.67151e-05 3.93749e-06 0.752246)
(7.78141e-05 4.7456e-06 1.15519)
(0.000149006 4.73051e-06 1.49248)
(0.000232517 4.20412e-06 1.77007)
(0.000320258 3.38719e-06 1.99322)
(0.000403612 2.42118e-06 2.16638)
(0.00047448 1.38428e-06 2.29313)
(0.000525926 3.09197e-07 2.37613)
(0.000552721 -7.99956e-07 2.41717)
(0.00055192 -1.95186e-06 2.41712)
(0.000523222 -3.15287e-06 2.37595)
(0.000469152 -4.39196e-06 2.29274)
(0.000395002 -5.62525e-06 2.16571)
(0.000308365 -6.76009e-06 1.99219)
(0.000218455 -7.63981e-06 1.76864)
(0.000135053 -8.03099e-06 1.49073)
(6.68513e-05 -7.61731e-06 1.15332)
(2.08219e-05 -6.00329e-06 0.750633)
(4.01402e-07 -2.71682e-06 0.276318)
(1.25637e-06 -1.88319e-06 0.277108)
(2.6715e-05 -3.93682e-06 0.752246)
(7.78141e-05 -4.74464e-06 1.15519)
(0.000149006 -4.72948e-06 1.49248)
(0.000232517 -4.20314e-06 1.77007)
(0.000320258 -3.38632e-06 1.99322)
(0.000403612 -2.42041e-06 2.16638)
(0.00047448 -1.38359e-06 2.29313)
(0.000525926 -3.08566e-07 2.37613)
(0.000552721 8.00547e-07 2.41717)
(0.000551921 1.95241e-06 2.41712)
(0.000523222 3.15338e-06 2.37595)
(0.000469152 4.39241e-06 2.29274)
(0.000395002 5.62563e-06 2.16571)
(0.000308365 6.76039e-06 1.99219)
(0.000218455 7.64001e-06 1.76864)
(0.000135053 8.03109e-06 1.49073)
(6.68513e-05 7.61729e-06 1.15332)
(2.08219e-05 6.00321e-06 0.750633)
(4.01401e-07 2.71677e-06 0.276318)
(1.216e-06 -5.48534e-06 0.273647)
(2.59789e-05 -1.14313e-05 0.74199)
(7.57525e-05 -1.37429e-05 1.1385)
(0.000145164 -1.3671e-05 1.4699)
(0.000226652 -1.21295e-05 1.74229)
(0.000312324 -9.7611e-06 1.96104)
(0.000393751 -6.97438e-06 2.13065)
(0.000462999 -3.99326e-06 2.25472)
(0.000513269 -9.09505e-07 2.33594)
(0.000539433 2.26792e-06 2.37608)
(0.000538604 5.56706e-06 2.37603)
(0.000510492 9.00943e-06 2.33575)
(0.000457583 1.25667e-05 2.25434)
(0.000385074 1.61161e-05 2.12999)
(0.000300417 1.93939e-05 1.96003)
(0.000212639 2.19506e-05 1.74089)
(0.000131305 2.31127e-05 1.46818)
(6.48902e-05 2.19625e-05 1.13667)
(2.01511e-05 1.73454e-05 0.740407)
(3.72577e-07 7.8707e-06 0.272871)
(1.1323e-06 -8.59761e-06 0.266601)
(2.44932e-05 -1.78025e-05 0.721126)
(7.16129e-05 -2.12945e-05 1.10457)
(0.000137471 -2.10942e-05 1.42404)
(0.000214928 -1.86523e-05 1.68596)
(0.000296484 -1.49743e-05 1.89584)
(0.000374079 -1.06906e-05 2.05831)
(0.000440106 -6.13945e-06 2.17701)
(0.000488037 -1.45385e-06 2.25465)
(0.000512942 3.36146e-06 2.29301)
(0.000512052 8.35882e-06 2.29296)
(0.000485101 1.3581e-05 2.25447)
(0.000434494 1.89954e-05 2.17664)
(0.000365247 2.44246e-05 2.05767)
(0.000284526 2.94745e-05 1.89486)
(0.00020099 3.34626e-05 1.6846)
(0.000123781 3.53538e-05 1.42238)
(6.09369e-05 3.37207e-05 1.1028)
(1.87891e-05 2.6746e-05 0.719599)
(3.10946e-07 1.22021e-05 0.265854)
(9.99295e-07 -1.09072e-05 0.255714)
(2.22381e-05 -2.23603e-05 0.688912)
(6.53804e-05 -2.65363e-05 1.05226)
(0.000125939 -2.61157e-05 1.35349)
(0.000197404 -2.29704e-05 1.59944)
(0.000272849 -1.83715e-05 1.79589)
(0.000344756 -1.30974e-05 1.94758)
(0.000406003 -7.55334e-06 2.05822)
(0.000450458 -1.88678e-06 2.13049)
(0.000473489 3.91311e-06 2.16617)
(0.000472501 9.92767e-06 2.16612)
(0.000447262 1.62274e-05 2.13031)
(0.000400064 2.27916e-05 2.05786)
(0.000335649 2.94235e-05 1.94696)
(0.000260766 3.56595e-05 1.79494)
(0.000183532 4.0676e-05 1.59814)
(0.000112464 4.31989e-05 1.35191)
(5.49574e-05 4.14412e-05 1.05057)
(1.67058e-05 3.30863e-05 0.687463)
(2.08884e-07 1.522e-05 0.255007)
(8.09662e-07 -1.21281e-05 0.240558)
(1.92035e-05 -2.45181e-05 0.644132)
(5.70804e-05 -2.87753e-05 0.979726)
(0.000110665 -2.80623e-05 1.25596)
(0.000174268 -2.45005e-05 1.4802)
(0.000241703 -1.94906e-05 1.65852)
(0.000306158 -1.38647e-05 1.79577)
(0.000361136 -8.03631e-06 1.89562)
(0.00040103 -2.13912e-06 1.96076)
(0.000421598 3.8629e-06 1.99288)
(0.000420475 1.00803e-05 1.99283)
(0.000397477 1.66129e-05 1.96058)
(0.000354742 2.34663e-05 1.89527)
(0.000296658 3.04619e-05 1.79517)
(0.000229425 3.71368e-05 1.65762)
(0.000160453 4.26374e-05 1.47897)
(9.74485e-05 4.56072e-05 1.25447)
(4.69734e-05 4.40983e-05 0.978147)
(1.38882e-05 3.55275e-05 0.642778)
(5.78903e-08 1.65277e-05 0.2399)
(5.61137e-07 -1.2035e-05 0.220468)
(1.54218e-05 -2.3878e-05 0.584928)
(4.68472e-05 -2.76073e-05 0.884232)
(9.19307e-05 -2.65957e-05 1.12815)
(0.000145968 -2.29915e-05 1.32466)
(0.000203658 -1.81593e-05 1.48006)
(0.000259035 -1.28756e-05 1.59917)
(0.000306369 -7.50418e-06 1.68559)
(0.000340697 -2.14153e-06 1.74185)
(0.00035826 3.27554e-06 1.76957)
(0.000356981 8.87863e-06 1.76952)
(0.000336731 1.47897e-05 1.74168)
(0.000299458 2.10464e-05 1.68524)
(0.000249106 2.75185e-05 1.59859)
(0.000191198 3.38093e-05 1.4792)
(0.000132281 3.91487e-05 1.32351)
(7.90795e-05 4.22704e-05 1.12676)
(3.71615e-05 4.12975e-05 0.882773)
(1.03874e-05 3.36654e-05 0.583682)
(-1.4294e-07 1.58883e-05 0.219864)
(2.53381e-07 -1.05141e-05 0.194402)
(1.10214e-05 -2.03489e-05 0.508494)
(3.50349e-05 -2.30675e-05 0.761803)
(7.0362e-05 -2.18676e-05 0.965487)
(0.0001134 -1.8655e-05 1.12802)
(0.000159847 -1.45931e-05 1.25569)
(0.000204718 -1.02988e-05 1.3531)
(0.000243182 -6.03533e-06 1.42355)
(0.000271048 -1.85202e-06 1.46932)
(0.000285142 2.33191e-06 1.49184)
(0.000283727 6.65083e-06 1.49179)
(0.000266736 1.12308e-05 1.46914)
(0.000235877 1.61346e-05 1.42321)
(0.000194548 2.1294e-05 1.35255)
(0.000147459 2.6424e-05 1.25489)
(0.000100136 3.0937e-05 1.12696)
(5.81712e-05 3.3817e-05 0.964228)
(2.6005e-05 3.34811e-05 0.760485)
(6.39498e-06 2.77007e-05 0.507372)
(-3.86667e-07 1.33051e-05 0.193858)
(-1.03143e-07 -7.64037e-06 0.160619)
(6.31964e-06 -1.43219e-05 0.410471)
(2.23793e-05 -1.58008e-05 0.606682)
(4.71451e-05 -1.46703e-05 0.761707)
(7.81446e-05 -1.22939e-05 0.884012)
(0.000112162 -9.48975e-06 0.979377)
(0.000145335 -6.65254e-06 1.05179)
(0.000173885 -3.91855e-06 1.104)
(0.000194531 -1.29598e-06 1.13785)
(0.000204796 1.29188e-06 1.15449)
(0.000203345 3.95587e-06 1.15443)
(0.00019017 6.80031e-06 1.13769)
(0.000166666 9.89278e-06 1.10369)
(0.000135554 1.32182e-05 1.0513)
(0.000100569 1.66194e-05 0.978672)
(6.60446e-05 1.97487e-05 0.883093)
(3.62782e-05 2.19435e-05 0.76062)
(1.44957e-05 2.2096e-05 0.605547)
(2.3576e-06 1.86333e-05 0.409503)
(-6.45601e-07 9.12349e-06 0.160146)
(-3.89759e-07 -4.02011e-06 0.115815)
(2.01034e-06 -7.15443e-06 0.283721)
(1.02743e-05 -7.58281e-06 0.410423)
(2.43083e-05 -6.82128e-06 0.508365)
(4.27527e-05 -5.56501e-06 0.584698)
(6.3519e-05 -4.20927e-06 0.643797)
(8.40473e-05 -2.91842e-06 0.68848)
(0.00010181 -1.72715e-06 0.720611)
(0.000114615 -6.2304e-07 0.741409)
(0.000120823 4.4389e-07 0.751614)
(0.000119568 1.53764e-06 0.751571)
(0.000110879 2.71792e-06 0.741273)
(9.57349e-05 4.03169e-06 0.720362)
(7.59993e-05 5.49151e-06 0.688094)
(5.42088e-05 7.04622e-06 0.643255)
(3.32739e-05 8.5663e-06 0.583999)
(1.60123e-05 9.75973e-06 0.507543)
(4.42493e-06 1.00835e-05 0.409564)
(-8.2968e-07 8.73305e-06 0.282979)
(-7.65479e-07 4.38992e-06 0.11544)
(-4.92718e-07 -7.46996e-07 0.0523366)
(-6.44e-07 -1.08084e-06 0.115805)
(1.15592e-06 -9.57073e-07 0.160584)
(5.24077e-06 -8.06602e-07 0.194326)
(1.11855e-05 -6.06445e-07 0.220344)
(1.82142e-05 -4.26272e-07 0.240383)
(2.53167e-05 -2.88487e-07 0.255492)
(3.15082e-05 -1.71027e-07 0.266339)
(3.59466e-05 -7.30221e-08 0.273351)
(3.80064e-05 1.38418e-08 0.276787)
(3.73676e-05 1.01633e-07 0.276766)
(3.40619e-05 1.99925e-07 0.273285)
(2.84887e-05 3.198e-07 0.26622)
(2.13945e-05 4.67032e-07 0.255312)
(1.37802e-05 6.37201e-07 0.240133)
(6.78981e-06 8.42581e-07 0.220024)
(1.51938e-06 1.0451e-06 0.193951)
(-1.34259e-06 1.15452e-06 0.160186)
(-1.75693e-06 1.16319e-06 0.115449)
(-5.99621e-07 6.95732e-07 0.0521369)
(-1.52913e-06 2.22003e-06 0.0523333)
(-2.32291e-06 3.18996e-06 0.115797)
(2.48396e-06 2.94055e-06 0.16057)
(1.40314e-05 2.44366e-06 0.19431)
(3.12147e-05 1.86148e-06 0.220325)
(5.16733e-05 1.33297e-06 0.240365)
(7.24607e-05 9.01361e-07 0.255477)
(9.06501e-05 5.40289e-07 0.266327)
(0.000103707 2.33979e-07 0.273344)
(0.00010976 -4.45792e-08 0.276786)
(0.000107842 -3.27144e-07 0.276771)
(9.80376e-05 -6.42561e-07 0.273296)
(8.15345e-05 -1.01939e-06 0.266236)
(6.05624e-05 -1.47651e-06 0.255331)
(3.81495e-05 -2.01312e-06 0.240155)
(1.77329e-05 -2.62497e-06 0.220045)
(2.55451e-06 -3.2194e-06 0.193969)
(-5.26326e-06 -3.5915e-06 0.1602)
(-5.79377e-06 -3.48091e-06 0.115457)
(-1.86991e-06 -2.08043e-06 0.0521392)
(-1.3564e-06 1.20725e-05 0.115807)
(5.0562e-06 2.16497e-05 0.283698)
(2.84743e-05 2.3099e-05 0.410387)
(6.90563e-05 2.08738e-05 0.50832)
(0.000122978 1.714e-05 0.584649)
(0.000183982 1.30458e-05 0.643748)
(0.00024453 9.09022e-06 0.688436)
(0.000297087 5.40453e-06 0.720578)
(0.000335057 1.94597e-06 0.74139)
(0.000353512 -1.42837e-06 0.75161)
(0.000349819 -4.89903e-06 0.751584)
(0.000324034 -8.63758e-06 0.741303)
(0.000279058 -1.27705e-05 0.720406)
(0.000220469 -1.73223e-05 0.688147)
(0.000155927 -2.21357e-05 0.643312)
(9.41962e-05 -2.67784e-05 0.584055)
(4.36835e-05 -3.03429e-05 0.507592)
(1.04648e-05 -3.12053e-05 0.4096)
(-3.7447e-06 -2.68343e-05 0.283001)
(-2.53417e-06 -1.33549e-05 0.115446)
(-5.21576e-07 2.30924e-05 0.160608)
(1.76415e-05 4.34928e-05 0.410436)
(6.40374e-05 4.82447e-05 0.606628)
(0.0001364 4.49847e-05 0.761639)
(0.000227693 3.79008e-05 0.883936)
(0.000328208 2.9408e-05 0.979301)
(0.000426567 2.0704e-05 1.05172)
(0.000511471 1.22325e-05 1.10395)
(0.000573014 4.01944e-06 1.13782)
(0.00060374 -4.14917e-06 1.15448)
(0.000599574 -1.25837e-05 1.15445)
(0.00056043 -2.15766e-05 1.13773)
(0.000490446 -3.13009e-05 1.10375)
(0.000397767 -4.16791e-05 1.05138)
(0.000293689 -5.22132e-05 0.978759)
(0.000191286 -6.17867e-05 0.883177)
(0.000103395 -6.83446e-05 0.760693)
(3.98909e-05 -6.85386e-05 0.605602)
(5.40724e-06 -5.74814e-05 0.409536)
(-2.21806e-06 -2.79759e-05 0.160156)
(5.14396e-07 3.19164e-05 0.194388)
(3.1623e-05 6.20111e-05 0.508451)
(0.000101757 7.05782e-05 0.761735)
(0.000205733 6.71805e-05 0.9654)
(0.000333144 5.757e-05 1.12792)
(0.000471021 4.52316e-05 1.25559)
(0.000604627 3.2042e-05 1.35301)
(0.000719478 1.88154e-05 1.42348)
(0.000802892 5.71283e-06 1.46928)
(0.000845289 -7.48144e-06 1.49183)
(0.000841352 -2.11389e-05 1.49181)
(0.000790796 -3.56042e-05 1.4692)
(0.000698686 -5.10216e-05 1.42329)
(0.000575195 -6.7133e-05 1.35265)
(0.000434594 -8.30295e-05 1.255)
(0.00029359 -9.68623e-05 1.12707)
(0.00016894 -0.000105479 0.96432)
(7.4221e-05 -0.000104041 0.760553)
(1.73765e-05 -8.57282e-05 0.507412)
(-1.48551e-06 -4.09847e-05 0.193869)
(1.43872e-06 3.66721e-05 0.220452)
(4.48576e-05 7.29746e-05 0.584879)
(0.000137303 8.46504e-05 0.884152)
(0.000270689 8.18385e-05 1.12805)
(0.000431321 7.10217e-05 1.32455)
(0.000603215 5.63119e-05 1.47994)
(0.000768671 4.00588e-05 1.59907)
(0.000910467 2.33759e-05 1.68551)
(0.00101357 6.57553e-06 1.7418)
(0.0010666 -1.04996e-05 1.76956)
(0.00106319 -2.82058e-05 1.76954)
(0.00100283 -4.68644e-05 1.74174)
(0.000891318 -6.65336e-05 1.68534)
(0.00074047 -8.67559e-05 1.59871)
(0.000567035 -0.000106264 1.47932)
(0.000390841 -0.00012265 1.32363)
(0.000232111 -0.000131997 1.12687)
(0.000107867 -0.000128542 0.882849)
(2.93837e-05 -0.000104436 0.583726)
(-7.61456e-07 -4.91108e-05 0.219876)
(2.19681e-06 3.70574e-05 0.240541)
(5.63226e-05 7.50967e-05 0.644078)
(0.000168315 8.83807e-05 0.979639)
(0.000327481 8.64625e-05 1.25584)
(0.000517159 7.57526e-05 1.48007)
(0.000718686 6.04744e-05 1.65839)
(0.000911793 4.31428e-05 1.79565)
(0.00107692 2.50232e-05 1.89553)
(0.00119706 6.54254e-06 1.9607)
(0.00125934 -1.23731e-05 1.99286)
(0.00125649 -3.20135e-05 1.99285)
(0.00118783 -5.26281e-05 1.96064)
(0.00105971 -7.41734e-05 1.89537)
(0.000885309 -9.60411e-05 1.79529)
(0.000683442 -0.000116756 1.65775)
(0.000476586 -0.000133652 1.4791)
(0.00028797 -0.000142536 1.25458)
(0.00013767 -0.000137424 0.978228)
(4.00014e-05 -0.0001104 0.642823)
(-1.53539e-07 -5.12051e-05 0.239911)
(2.7778e-06 3.33964e-05 0.255697)
(6.55812e-05 6.86053e-05 0.688855)
(0.000193613 8.16154e-05 1.05216)
(0.000374028 8.05536e-05 1.35337)
(0.000587682 7.108e-05 1.5993)
(0.000813661 5.70316e-05 1.79575)
(0.00102955 4.07639e-05 1.94746)
(0.00121388 2.35146e-05 2.05812)
(0.00134802 5.75125e-06 2.13043)
(0.00141791 -1.25265e-05 2.16615)
(0.00141554 -3.15225e-05 2.16615)
(0.00134008 -5.13994e-05 2.13038)
(0.00119834 -7.20366e-05 2.05796)
(0.00100458 -9.27746e-05 1.94709)
(0.000779298 -0.00011214 1.79508)
(0.00054715 -0.000127561 1.59827)
(0.000333856 -0.0001351 1.35202)
(0.000162053 -0.000129261 1.05066)
(4.86e-05 -0.000102941 0.687508)
(3.05116e-07 -4.72308e-05 0.255018)
(3.18973e-06 2.63656e-05 0.266584)
(7.24972e-05 5.46911e-05 0.721067)
(0.000212694 6.55631e-05 1.10447)
(0.000409314 6.51208e-05 1.42392)
(0.000641302 5.77552e-05 1.68581)
(0.000885995 4.65058e-05 1.8957)
(0.00111933 3.32803e-05 2.05818)
(0.00131834 1.91119e-05 2.1769)
(0.00146318 4.41951e-06 2.25458)
(0.00153886 -1.07557e-05 2.29299)
(0.00153685 -2.65375e-05 2.29299)
(0.00145617 -4.30136e-05 2.25454)
(0.00130399 -6.00372e-05 2.17675)
(0.00109541 -7.70186e-05 2.0578)
(0.000852205 -9.27075e-05 1.895)
(0.00060071 -0.000104975 1.68474)
(0.000368565 -0.00011062 1.4225)
(0.000180387 -0.000105249 1.10288)
(5.49875e-05 -8.32872e-05 0.719642)
(6.18549e-07 -3.79097e-05 0.265864)
(3.45108e-06 1.68382e-05 0.273629)
(7.70703e-05 3.51472e-05 0.74193)
(0.000225409 4.23423e-05 1.1384)
(0.000432922 4.22286e-05 1.46977)
(0.000677271 3.7575e-05 1.74214)
(0.000934596 3.0325e-05 1.96089)
(0.0011797 2.17161e-05 2.13051)
(0.00138863 1.24314e-05 2.25461)
(0.00154068 2.75981e-06 2.33586)
(0.00162027 -7.25411e-06 2.37606)
(0.00161847 -1.76724e-05 2.37605)
(0.00153424 -2.85329e-05 2.33582)
(0.001375 -3.97184e-05 2.25445)
(0.00115639 -5.08222e-05 2.13013)
(0.000901086 -6.10084e-05 1.96017)
(0.000636539 -6.88753e-05 1.74103)
(0.000391705 -7.23403e-05 1.4683)
(0.000192543 -6.85777e-05 1.13675)
(5.91776e-05 -5.40429e-05 0.740449)
(8.09368e-07 -2.44702e-05 0.272879)
(3.57759e-06 5.7839e-06 0.277091)
(7.93412e-05 1.21101e-05 0.752186)
(0.000231753 1.46245e-05 1.15509)
(0.000444734 1.46144e-05 1.49234)
(0.000695298 1.30248e-05 1.76992)
(0.000958981 1.05234e-05 1.99307)
(0.00121002 7.53839e-06 2.16624)
(0.00142393 4.30844e-06 2.29301)
(0.00157962 9.36428e-07 2.37605)
(0.00166116 -2.55913e-06 2.41714)
(0.00165946 -6.19656e-06 2.41714)
(0.00157344 -9.98553e-06 2.37601)
(0.00141063 -1.38818e-05 2.29285)
(0.00118697 -1.77402e-05 2.16585)
(0.000925568 -2.12673e-05 1.99233)
(0.000654455 -2.39744e-05 1.76878)
(0.000403248 -2.51397e-05 1.49085)
(0.000198585 -2.37893e-05 1.15341)
(6.12449e-05 -1.87088e-05 0.750674)
(8.98859e-07 -8.44933e-06 0.276326)
(3.5776e-06 -5.78356e-06 0.277091)
(7.93412e-05 -1.21092e-05 0.752186)
(0.000231753 -1.46233e-05 1.15509)
(0.000444734 -1.46131e-05 1.49234)
(0.000695298 -1.30234e-05 1.76992)
(0.000958981 -1.0522e-05 1.99307)
(0.00121002 -7.53706e-06 2.16624)
(0.00142393 -4.30707e-06 2.29301)
(0.00157962 -9.35007e-07 2.37605)
(0.00166116 2.56063e-06 2.41714)
(0.00165946 6.19812e-06 2.41714)
(0.00157344 9.98712e-06 2.37601)
(0.00141063 1.38833e-05 2.29285)
(0.00118697 1.77417e-05 2.16585)
(0.000925568 2.12687e-05 1.99233)
(0.000654455 2.39756e-05 1.76878)
(0.000403248 2.51407e-05 1.49085)
(0.000198585 2.379e-05 1.15341)
(6.12449e-05 1.87092e-05 0.750674)
(8.98858e-07 8.44945e-06 0.276326)
(3.4511e-06 -1.68378e-05 0.273629)
(7.70703e-05 -3.51462e-05 0.74193)
(0.000225409 -4.23411e-05 1.1384)
(0.000432923 -4.22272e-05 1.46977)
(0.000677272 -3.75737e-05 1.74214)
(0.000934597 -3.03238e-05 1.96089)
(0.0011797 -2.17149e-05 2.13051)
(0.00138863 -1.24301e-05 2.25461)
(0.00154069 -2.75848e-06 2.33586)
(0.00162027 7.25552e-06 2.37606)
(0.00161847 1.76739e-05 2.37605)
(0.00153424 2.85344e-05 2.33582)
(0.001375 3.97199e-05 2.25445)
(0.00115639 5.08237e-05 2.13013)
(0.000901087 6.10097e-05 1.96017)
(0.00063654 6.88765e-05 1.74103)
(0.000391706 7.23412e-05 1.4683)
(0.000192543 6.85783e-05 1.13675)
(5.91776e-05 5.40431e-05 0.740449)
(8.0936e-07 2.44702e-05 0.272879)
(3.18973e-06 -2.63651e-05 0.266584)
(7.24972e-05 -5.469e-05 0.721067)
(0.000212694 -6.55618e-05 1.10447)
(0.000409314 -6.51196e-05 1.42392)
(0.000641303 -5.77541e-05 1.68581)
(0.000885996 -4.65048e-05 1.8957)
(0.00111933 -3.32793e-05 2.05818)
(0.00131834 -1.91108e-05 2.1769)
(0.00146318 -4.41833e-06 2.25458)
(0.00153886 1.0757e-05 2.29299)
(0.00153685 2.65388e-05 2.29299)
(0.00145617 4.3015e-05 2.25454)
(0.00130399 6.00386e-05 2.17675)
(0.00109541 7.702e-05 2.0578)
(0.000852206 9.27089e-05 1.895)
(0.000600711 0.000104976 1.68474)
(0.000368566 0.00011062 1.4225)
(0.000180387 0.000105249 1.10288)
(5.49875e-05 8.32872e-05 0.719642)
(6.18512e-07 3.79097e-05 0.265864)
(2.77773e-06 -3.33959e-05 0.255697)
(6.55812e-05 -6.86044e-05 0.688855)
(0.000193613 -8.16145e-05 1.05216)
(0.000374028 -8.05527e-05 1.35337)
(0.000587683 -7.10792e-05 1.5993)
(0.000813662 -5.70308e-05 1.79575)
(0.00102956 -4.07631e-05 1.94746)
(0.00121388 -2.35137e-05 2.05812)
(0.00134803 -5.75028e-06 2.13043)
(0.00141791 1.25276e-05 2.16615)
(0.00141554 3.15237e-05 2.16615)
(0.00134008 5.14006e-05 2.13038)
(0.00119834 7.20379e-05 2.05796)
(0.00100458 9.27758e-05 1.94709)
(0.000779299 0.000112141 1.79508)
(0.000547151 0.000127562 1.59827)
(0.000333856 0.000135101 1.35202)
(0.000162053 0.000129261 1.05066)
(4.86e-05 0.000102941 0.687508)
(3.05042e-07 4.72309e-05 0.255018)
(2.19667e-06 -3.70572e-05 0.240541)
(5.63225e-05 -7.50965e-05 0.644078)
(0.000168315 -8.83805e-05 0.979639)
(0.000327481 -8.64621e-05 1.25584)
(0.00051716 -7.57521e-05 1.48007)
(0.000718687 -6.04738e-05 1.65839)
(0.000911795 -4.31422e-05 1.79565)
(0.00107692 -2.50225e-05 1.89553)
(0.00119706 -6.5418e-06 1.9607)
(0.00125934 1.23739e-05 1.99286)
(0.00125649 3.20144e-05 1.99285)
(0.00118783 5.26291e-05 1.96064)
(0.00105971 7.41745e-05 1.89537)
(0.000885312 9.60421e-05 1.79529)
(0.000683444 0.000116757 1.65775)
(0.000476587 0.000133653 1.4791)
(0.00028797 0.000142537 1.25458)
(0.00013767 0.000137425 0.978228)
(4.00014e-05 0.000110401 0.642823)
(-1.53634e-07 5.12054e-05 0.239911)
(1.43859e-06 -3.66722e-05 0.220452)
(4.48574e-05 -7.2975e-05 0.584879)
(0.000137302 -8.46506e-05 0.884152)
(0.000270689 -8.18383e-05 1.12805)
(0.000431322 -7.10214e-05 1.32455)
(0.000603216 -5.63116e-05 1.47994)
(0.000768674 -4.00585e-05 1.59907)
(0.00091047 -2.33755e-05 1.68551)
(0.00101357 -6.57503e-06 1.7418)
(0.0010666 1.05002e-05 1.76956)
(0.00106319 2.82065e-05 1.76954)
(0.00100283 4.68652e-05 1.74174)
(0.000891321 6.65344e-05 1.68534)
(0.000740472 8.67567e-05 1.59871)
(0.000567037 0.000106265 1.47932)
(0.000390842 0.000122651 1.32363)
(0.000232112 0.000131998 1.12687)
(0.000107867 0.000128544 0.882849)
(2.93836e-05 0.000104437 0.583726)
(-7.61526e-07 4.91112e-05 0.219876)
(5.14336e-07 -3.19165e-05 0.194388)
(3.16224e-05 -6.20112e-05 0.508451)
(0.000101757 -7.05781e-05 0.761735)
(0.000205732 -6.71801e-05 0.9654)
(0.000333145 -5.75699e-05 1.12792)
(0.000471023 -4.52316e-05 1.25559)
(0.000604629 -3.2042e-05 1.35301)
(0.00071948 -1.88153e-05 1.42348)
(0.000802895 -5.71259e-06 1.46928)
(0.000845292 7.4818e-06 1.49183)
(0.000841356 2.11394e-05 1.49181)
(0.000790799 3.56048e-05 1.4692)
(0.000698689 5.10223e-05 1.42329)
(0.000575198 6.7134e-05 1.35265)
(0.000434596 8.30305e-05 1.255)
(0.000293591 9.68632e-05 1.12707)
(0.00016894 0.00010548 0.96432)
(7.42207e-05 0.000104042 0.760553)
(1.73763e-05 8.57291e-05 0.507412)
(-1.48552e-06 4.09851e-05 0.193869)
(-5.21673e-07 -2.30917e-05 0.160608)
(1.76405e-05 -4.34911e-05 0.410436)
(6.40362e-05 -4.82432e-05 0.606628)
(0.0001364 -4.49838e-05 0.761639)
(0.000227693 -3.79007e-05 0.883937)
(0.00032821 -2.94083e-05 0.979301)
(0.000426569 -2.07043e-05 1.05172)
(0.000511473 -1.22327e-05 1.10395)
(0.000573017 -4.01946e-06 1.13782)
(0.000603742 4.1493e-06 1.15448)
(0.000599577 1.25839e-05 1.15445)
(0.000560432 2.15771e-05 1.13773)
(0.000490449 3.13017e-05 1.10375)
(0.000397769 4.16803e-05 1.05138)
(0.00029369 5.22146e-05 0.978759)
(0.000191286 6.17875e-05 0.883177)
(0.000103395 6.83447e-05 0.760693)
(3.989e-05 6.85381e-05 0.605602)
(5.40662e-06 5.74804e-05 0.409536)
(-2.21809e-06 2.79754e-05 0.160156)
(-1.35671e-06 -1.20708e-05 0.115807)
(5.05473e-06 -2.16463e-05 0.283698)
(2.84723e-05 -2.30967e-05 0.410387)
(6.90549e-05 -2.08727e-05 0.50832)
(0.000122978 -1.71399e-05 0.584649)
(0.000183982 -1.30462e-05 0.643748)
(0.000244531 -9.09072e-06 0.688436)
(0.000297089 -5.40488e-06 0.720578)
(0.000335059 -1.94615e-06 0.74139)
(0.000353514 1.42835e-06 0.75161)
(0.000349821 4.89919e-06 0.751585)
(0.000324036 8.63796e-06 0.741303)
(0.000279061 1.27712e-05 0.720406)
(0.000220472 1.73235e-05 0.688148)
(0.000155929 2.21371e-05 0.643313)
(9.41958e-05 2.67791e-05 0.584055)
(4.3682e-05 3.03424e-05 0.507592)
(1.04628e-05 3.12035e-05 0.4096)
(-3.7458e-06 2.68315e-05 0.283001)
(-2.53437e-06 1.33536e-05 0.115446)
(-1.5294e-06 -2.219e-06 0.0523333)
(-2.324e-06 -3.18828e-06 0.115797)
(2.48226e-06 -2.93949e-06 0.16057)
(1.40301e-05 -2.44332e-06 0.19431)
(3.1214e-05 -1.86163e-06 0.220325)
(5.16735e-05 -1.33335e-06 0.240365)
(7.24615e-05 -9.01705e-07 0.255477)
(9.0651e-05 -5.40514e-07 0.266327)
(0.000103708 -2.3411e-07 0.273344)
(0.000109761 4.45084e-08 0.276786)
(0.000107843 3.2712e-07 0.276771)
(9.80387e-05 6.42619e-07 0.273296)
(8.15359e-05 1.01962e-06 0.266236)
(6.05636e-05 1.47705e-06 0.255331)
(3.81499e-05 2.01386e-06 0.240155)
(1.77322e-05 2.62544e-06 0.220045)
(2.55298e-06 3.21915e-06 0.193969)
(-5.26509e-06 3.59043e-06 0.1602)
(-5.79467e-06 3.47934e-06 0.115457)
(-1.87e-06 2.07957e-06 0.0521392)
(-2.60397e-06 3.90591e-06 0.0523265)
(-3.42891e-06 5.55752e-06 0.115778)
(5.73159e-06 5.12978e-06 0.160543)
(2.67178e-05 4.2312e-06 0.194275)
(5.75151e-05 3.21966e-06 0.220288)
(9.3948e-05 2.30608e-06 0.240328)
(0.000130907 1.5528e-06 0.255444)
(0.000163306 9.26395e-07 0.266302)
(0.000186717 3.93386e-07 0.27333)
(0.000197848 -9.46542e-08 0.276784)
(0.000194946 -5.91848e-07 0.276782)
(0.000178066 -1.14908e-06 0.27332)
(0.000149182 -1.81529e-06 0.26627)
(0.00011211 -2.62539e-06 0.255373)
(7.21238e-05 -3.58433e-06 0.240199)
(3.52864e-05 -4.67154e-06 0.220088)
(7.39367e-06 -5.73553e-06 0.194006)
(-7.58774e-06 -6.44275e-06 0.160227)
(-9.54345e-06 -6.24659e-06 0.115474)
(-3.2621e-06 -3.78075e-06 0.0521443)
(-2.19924e-06 2.11072e-05 0.11579)
(1.03477e-05 3.76518e-05 0.28365)
(5.2984e-05 4.00288e-05 0.410312)
(0.00012571 3.60738e-05 0.508227)
(0.000221657 2.95696e-05 0.584546)
(0.000329837 2.24691e-05 0.643647)
(0.00043717 1.56169e-05 0.688346)
(0.000530559 9.23289e-06 0.720508)
(0.000598483 3.22872e-06 0.741349)
(0.000632261 -2.6502e-06 0.751603)
(0.000627119 -8.72075e-06 0.751613)
(0.000582909 -1.52859e-05 0.741365)
(0.000504428 -2.25687e-05 0.720497)
(0.000401203 -3.06169e-05 0.688259)
(0.00028655 -3.91636e-05 0.643433)
(0.000175897 -4.74442e-05 0.584173)
(8.42568e-05 -5.38595e-05 0.507694)
(2.2821e-05 -5.55464e-05 0.409677)
(-4.76776e-06 -4.79473e-05 0.283048)
(-4.31612e-06 -2.40097e-05 0.115461)
(-6.66266e-07 4.01664e-05 0.160583)
(3.28708e-05 7.53784e-05 0.410365)
(0.000116223 8.34104e-05 0.606515)
(0.000245046 7.76172e-05 0.761497)
(0.000406848 6.52981e-05 0.88378)
(0.000584609 5.05883e-05 0.979145)
(0.000758603 3.55287e-05 1.05158)