/*--------------------------------*- C++ -*----------------------------------*\
  =========                 |
  \\      /  F ield         | OpenFOAM: The Open Source CFD Toolbox
   \\    /   O peration     | Website:  https://openfoam.org
    \\  /    A nd           | Version:  6
     \\/     M anipulation  |
\*---------------------------------------------------------------------------*/
FoamFile
{
    version     2.0;
    format      ascii;
    class       volScalarField;
    location    "0.035";
    object      T;
}
// * * * * * * * * * * * * * * * * * * * * * * * * * * * * * * * * * * * * * //

dimensions      [0 0 0 1 0 0 0];

internalField   nonuniform List<scalar> 
7000
(
93.0698
93.0694
93.0692
93.0691
93.069
93.069
93.0691
93.0692
93.0693
93.0694
93.0694
93.069
93.0688
93.0687
93.0686
93.0686
93.0687
93.0688
93.0689
93.0691
93.0692
93.0688
93.0686
93.0685
93.0684
93.0684
93.0685
93.0686
93.0687
93.069
93.0691
93.0687
93.0685
93.0684
93.0683
93.0683
93.0684
93.0685
93.0687
93.0689
93.069
93.0686
93.0684
93.0683
93.0683
93.0683
93.0684
93.0685
93.0686
93.0689
93.069
93.0686
93.0684
93.0683
93.0683
93.0683
93.0684
93.0685
93.0686
93.0689
93.0691
93.0687
93.0685
93.0684
93.0684
93.0684
93.0684
93.0685
93.0687
93.0689
93.0692
93.0688
93.0686
93.0685
93.0685
93.0685
93.0685
93.0686
93.0688
93.069
93.0693
93.0689
93.0687
93.0687
93.0686
93.0686
93.0687
93.0688
93.069
93.0692
93.0694
93.0691
93.069
93.0689
93.0689
93.0689
93.0689
93.069
93.0692
93.0694
61.7424
61.7416
61.7411
61.7409
61.7408
61.7408
61.7409
61.7411
61.7414
61.7418
61.7416
61.7407
61.7403
61.74
61.7399
61.7399
61.74
61.7403
61.7407
61.7413
61.7411
61.7403
61.7398
61.7396
61.7395
61.7395
61.7396
61.7398
61.7403
61.7409
61.7409
61.74
61.7396
61.7393
61.7392
61.7393
61.7394
61.7396
61.7401
61.7408
61.7408
61.7399
61.7395
61.7392
61.7392
61.7392
61.7393
61.7396
61.74
61.7407
61.7408
61.7399
61.7395
61.7393
61.7392
61.7392
61.7393
61.7396
61.74
61.7407
61.7409
61.74
61.7396
61.7394
61.7393
61.7393
61.7394
61.7397
61.7402
61.7409
61.7411
61.7403
61.7398
61.7396
61.7396
61.7396
61.7397
61.74
61.7404
61.7411
61.7414
61.7407
61.7403
61.7401
61.74
61.74
61.7402
61.7404
61.7409
61.7416
61.7418
61.7413
61.7409
61.7408
61.7407
61.7407
61.7409
61.7411
61.7416
61.7423
36.8679
36.867
36.8665
36.8662
36.8661
36.8661
36.8663
36.8666
36.867
36.8677
36.867
36.8661
36.8656
36.8653
36.8652
36.8652
36.8654
36.8657
36.8662
36.8671
36.8665
36.8656
36.8651
36.8648
36.8647
36.8647
36.8649
36.8652
36.8658
36.8667
36.8662
36.8653
36.8648
36.8646
36.8645
36.8645
36.8646
36.865
36.8656
36.8665
36.8661
36.8652
36.8647
36.8645
36.8644
36.8644
36.8645
36.8649
36.8655
36.8665
36.8661
36.8652
36.8647
36.8645
36.8644
36.8644
36.8646
36.8649
36.8655
36.8665
36.8663
36.8654
36.8649
36.8646
36.8645
36.8646
36.8647
36.8651
36.8657
36.8667
36.8666
36.8657
36.8652
36.865
36.8649
36.8649
36.8651
36.8654
36.8661
36.867
36.867
36.8662
36.8658
36.8656
36.8655
36.8655
36.8657
36.8661
36.8667
36.8677
36.8677
36.8671
36.8667
36.8665
36.8665
36.8665
36.8667
36.867
36.8677
36.8686
19.801
19.8003
19.7999
19.7996
19.7996
19.7996
19.7997
19.8
19.8004
19.8011
19.8003
19.7996
19.7991
19.7989
19.7988
19.7989
19.799
19.7993
19.7998
19.8007
19.7999
19.7991
19.7987
19.7985
19.7984
19.7984
19.7986
19.7989
19.7995
19.8004
19.7996
19.7989
19.7985
19.7983
19.7982
19.7982
19.7984
19.7987
19.7993
19.8002
19.7996
19.7988
19.7984
19.7982
19.7981
19.7981
19.7983
19.7986
19.7992
19.8002
19.7996
19.7989
19.7984
19.7982
19.7981
19.7982
19.7983
19.7987
19.7993
19.8002
19.7997
19.799
19.7986
19.7984
19.7983
19.7983
19.7985
19.7988
19.7994
19.8004
19.8
19.7993
19.7989
19.7987
19.7986
19.7987
19.7988
19.7992
19.7998
19.8007
19.8004
19.7998
19.7995
19.7993
19.7992
19.7993
19.7994
19.7998
19.8004
19.8014
19.8011
19.8007
19.8004
19.8002
19.8002
19.8002
19.8004
19.8007
19.8014
19.8023
9.5879
9.58742
9.58713
9.58698
9.58693
9.58695
9.58705
9.58727
9.58765
9.58821
9.58742
9.58694
9.58665
9.5865
9.58645
9.58647
9.58658
9.58681
9.58723
9.58793
9.58713
9.58665
9.58637
9.58622
9.58617
9.58619
9.5863
9.58655
9.587
9.58774
9.58698
9.5865
9.58622
9.58607
9.58602
9.58605
9.58616
9.58642
9.58689
9.58764
9.58693
9.58645
9.58617
9.58602
9.58597
9.586
9.58612
9.58638
9.58685
9.58761
9.58695
9.58647
9.58619
9.58605
9.586
9.58603
9.58615
9.58641
9.58688
9.58765
9.58705
9.58658
9.5863
9.58616
9.58612
9.58615
9.58627
9.58653
9.58701
9.58777
9.58727
9.58681
9.58655
9.58642
9.58638
9.58641
9.58653
9.5868
9.58727
9.58804
9.58765
9.58723
9.587
9.58689
9.58685
9.58688
9.58701
9.58727
9.58775
9.58851
9.58821
9.58793
9.58774
9.58764
9.58761
9.58765
9.58777
9.58804
9.58852
9.58928
4.20317
4.2029
4.20273
4.20265
4.20262
4.20264
4.2027
4.20285
4.2031
4.20348
4.2029
4.20263
4.20246
4.20238
4.20235
4.20237
4.20244
4.20259
4.20287
4.20333
4.20273
4.20246
4.2023
4.20222
4.20219
4.20221
4.20228
4.20244
4.20274
4.20322
4.20265
4.20238
4.20222
4.20214
4.20211
4.20213
4.20221
4.20237
4.20268
4.20317
4.20262
4.20235
4.20219
4.20211
4.20208
4.2021
4.20218
4.20235
4.20266
4.20315
4.20264
4.20237
4.20221
4.20213
4.2021
4.20212
4.2022
4.20237
4.20268
4.20318
4.2027
4.20244
4.20228
4.20221
4.20218
4.2022
4.20228
4.20245
4.20276
4.20326
4.20285
4.20259
4.20245
4.20237
4.20235
4.20237
4.20245
4.20262
4.20293
4.20343
4.2031
4.20287
4.20274
4.20268
4.20266
4.20268
4.20276
4.20293
4.20324
4.20374
4.20348
4.20333
4.20323
4.20317
4.20316
4.20318
4.20326
4.20343
4.20374
4.20425
1.67672
1.67659
1.67651
1.67647
1.67646
1.67647
1.6765
1.67658
1.67673
1.67694
1.67659
1.67646
1.67638
1.67634
1.67632
1.67633
1.67637
1.67646
1.67661
1.67687
1.67651
1.67638
1.6763
1.67626
1.67625
1.67626
1.6763
1.67639
1.67655
1.67682
1.67647
1.67634
1.67626
1.67622
1.67621
1.67622
1.67626
1.67635
1.67652
1.67679
1.67646
1.67632
1.67625
1.67621
1.67619
1.6762
1.67625
1.67634
1.67651
1.67679
1.67647
1.67633
1.67626
1.67622
1.6762
1.67622
1.67626
1.67635
1.67653
1.6768
1.6765
1.67637
1.6763
1.67626
1.67625
1.67626
1.67631
1.6764
1.67657
1.67685
1.67658
1.67646
1.67639
1.67635
1.67634
1.67636
1.6764
1.67649
1.67667
1.67694
1.67673
1.67662
1.67655
1.67652
1.67651
1.67653
1.67657
1.67667
1.67684
1.67712
1.67695
1.67688
1.67683
1.6768
1.67679
1.67681
1.67685
1.67695
1.67712
1.6774
0.611962
0.611903
0.611869
0.611851
0.611845
0.61185
0.611868
0.611905
0.611967
0.612063
0.611903
0.611846
0.611811
0.611794
0.611788
0.611793
0.611812
0.61185
0.611919
0.612033
0.611869
0.611811
0.611777
0.611759
0.611754
0.611759
0.611779
0.611819
0.611892
0.612012
0.611851
0.611794
0.611759
0.611742
0.611737
0.611742
0.611762
0.611804
0.611878
0.612
0.611845
0.611788
0.611754
0.611737
0.611731
0.611737
0.611758
0.6118
0.611875
0.611998
0.611851
0.611794
0.61176
0.611743
0.611738
0.611744
0.611764
0.611807
0.611882
0.612005
0.611869
0.611813
0.61178
0.611764
0.611759
0.611765
0.611786
0.611829
0.611905
0.612028
0.61191
0.611856
0.611825
0.611809
0.611805
0.611812
0.611833
0.611876
0.611951
0.612075
0.611982
0.611933
0.611906
0.611893
0.61189
0.611897
0.611917
0.611961
0.612037
0.61216
0.612091
0.612061
0.61204
0.612029
0.612026
0.612033
0.612055
0.612098
0.612174
0.612298
0.205442
0.20542
0.205406
0.205399
0.205397
0.205398
0.205403
0.205407
0.205398
0.205368
0.20542
0.205397
0.205384
0.205377
0.205375
0.205376
0.205381
0.205386
0.205379
0.205357
0.205406
0.205384
0.20537
0.205363
0.205361
0.205363
0.205368
0.205374
0.205368
0.205348
0.205399
0.205377
0.205363
0.205357
0.205354
0.205356
0.205362
0.205368
0.205363
0.205344
0.205397
0.205375
0.205361
0.205355
0.205353
0.205355
0.20536
0.205366
0.205362
0.205343
0.2054
0.205377
0.205364
0.205357
0.205356
0.205358
0.205363
0.205369
0.205365
0.205347
0.205408
0.205386
0.205373
0.205367
0.205365
0.205367
0.205373
0.205379
0.205375
0.205356
0.205426
0.205405
0.205393
0.205387
0.205385
0.205387
0.205393
0.205399
0.205395
0.205377
0.205457
0.205439
0.205428
0.205423
0.205422
0.205424
0.20543
0.205436
0.205432
0.205414
0.205506
0.205495
0.205486
0.205482
0.205481
0.205484
0.205489
0.205496
0.205492
0.205474
0.0637645
0.0637565
0.0637517
0.0637492
0.063748
0.0637468
0.0637399
0.0637036
0.0635573
0.0631465
0.0637565
0.0637485
0.0637437
0.0637412
0.0637401
0.063739
0.0637321
0.0636962
0.0635508
0.0631427
0.0637517
0.0637438
0.063739
0.0637365
0.0637354
0.0637343
0.0637276
0.063692
0.0635471
0.0631399
0.0637493
0.0637413
0.0637366
0.0637341
0.0637331
0.063732
0.0637254
0.0636899
0.0635453
0.0631384
0.0637486
0.0637407
0.063736
0.0637335
0.0637325
0.0637314
0.0637249
0.0636895
0.063545
0.0631382
0.0637496
0.0637417
0.0637371
0.0637347
0.0637337
0.0637326
0.0637261
0.0636907
0.0635463
0.0631395
0.0637529
0.0637452
0.0637406
0.0637383
0.0637373
0.0637364
0.0637298
0.0636945
0.0635501
0.0631433
0.0637599
0.0637525
0.0637482
0.0637461
0.0637452
0.0637442
0.0637378
0.0637024
0.063558
0.0631512
0.0637725
0.0637659
0.0637622
0.0637603
0.0637595
0.0637586
0.0637522
0.0637168
0.0635724
0.0631655
0.0637918
0.0637879
0.063785
0.0637835
0.0637828
0.063782
0.0637755
0.0637402
0.0635958
0.0631888
0.0183852
0.0183826
0.018381
0.0183801
0.0183792
0.018376
0.0183586
0.0182669
0.0178011
0.0154633
0.0183826
0.01838
0.0183785
0.0183776
0.0183767
0.0183735
0.0183561
0.0182645
0.0177991
0.0154621
0.018381
0.0183785
0.0183769
0.018376
0.0183752
0.018372
0.0183547
0.0182631
0.0177979
0.0154614
0.0183803
0.0183777
0.0183761
0.0183753
0.0183744
0.0183712
0.0183539
0.0182625
0.0177974
0.015461
0.0183801
0.0183775
0.018376
0.0183751
0.0183742
0.0183711
0.0183538
0.0182624
0.0177973
0.0154609
0.0183804
0.0183779
0.0183764
0.0183755
0.0183747
0.0183715
0.0183542
0.0182628
0.0177978
0.0154613
0.0183816
0.0183791
0.0183776
0.0183768
0.018376
0.0183729
0.0183556
0.0182642
0.0177991
0.0154625
0.0183842
0.0183817
0.0183804
0.0183796
0.0183788
0.0183757
0.0183584
0.018267
0.0178018
0.0154648
0.0183886
0.0183865
0.0183853
0.0183846
0.0183839
0.0183808
0.0183635
0.018272
0.0178067
0.0154691
0.0183956
0.0183944
0.0183934
0.0183929
0.0183921
0.018389
0.0183718
0.0182803
0.0178148
0.0154763
0.00494625
0.00494547
0.00494499
0.00494466
0.00494408
0.00494155
0.00492914
0.00487219
0.00463391
0.00376024
0.00494547
0.0049447
0.00494422
0.00494389
0.00494332
0.00494079
0.0049284
0.0048715
0.00463334
0.00375992
0.00494501
0.00494424
0.00494377
0.00494344
0.00494287
0.00494034
0.00492796
0.0048711
0.00463301
0.00375971
0.00494478
0.00494401
0.00494354
0.00494321
0.00494264
0.00494012
0.00492775
0.00487091
0.00463285
0.0037596
0.00494473
0.00494396
0.00494349
0.00494316
0.0049426
0.00494008
0.00492771
0.00487088
0.00463284
0.00375959
0.00494486
0.00494409
0.00494363
0.00494331
0.00494274
0.00494023
0.00492786
0.00487103
0.00463299
0.00375972
0.00494525
0.0049445
0.00494404
0.00494373
0.00494317
0.00494066
0.0049283
0.00487146
0.00463339
0.00376005
0.00494607
0.00494535
0.00494493
0.00494463
0.00494408
0.00494158
0.00492921
0.00487236
0.00463425
0.00376074
0.00494755
0.00494691
0.00494654
0.00494628
0.00494574
0.00494324
0.00493087
0.00487401
0.00463581
0.00376201
0.00494984
0.00494947
0.00494919
0.00494895
0.00494843
0.00494593
0.00493356
0.00487667
0.00463836
0.00376414
0.0012467
0.00124649
0.00124635
0.00124623
0.00124594
0.00124466
0.00123896
0.0012158
0.00113308
0.000888809
0.00124649
0.00124627
0.00124614
0.00124602
0.00124573
0.00124445
0.00123875
0.00121562
0.00113293
0.00088872
0.00124636
0.00124615
0.00124601
0.00124589
0.0012456
0.00124433
0.00123863
0.00121551
0.00113284
0.000888664
0.0012463
0.00124608
0.00124595
0.00124583
0.00124554
0.00124427
0.00123858
0.00121545
0.0011328
0.000888637
0.00124628
0.00124607
0.00124593
0.00124582
0.00124553
0.00124426
0.00123857
0.00121545
0.00113279
0.000888637
0.00124632
0.00124611
0.00124598
0.00124586
0.00124558
0.0012443
0.00123861
0.00121549
0.00113284
0.000888672
0.00124644
0.00124624
0.0012461
0.00124599
0.00124571
0.00124443
0.00123874
0.00121562
0.00113296
0.000888766
0.00124669
0.00124649
0.00124637
0.00124626
0.00124598
0.00124471
0.00123902
0.00121589
0.00113321
0.000888961
0.00124714
0.00124696
0.00124686
0.00124676
0.00124647
0.0012452
0.00123951
0.00121638
0.00113366
0.000889321
0.00124783
0.00124773
0.00124765
0.00124756
0.00124728
0.00124601
0.00124032
0.00121717
0.0011344
0.000889923
0.000295488
0.000295432
0.000295394
0.000295354
0.000295237
0.000294739
0.000292699
0.000285218
0.000261614
0.000201901
0.000295433
0.000295377
0.000295339
0.000295299
0.000295182
0.000294685
0.000292647
0.00028517
0.000261576
0.000201879
0.0002954
0.000295344
0.000295307
0.000295267
0.00029515
0.000294653
0.000292617
0.000285143
0.000261554
0.000201865
0.000295383
0.000295328
0.000295291
0.000295251
0.000295134
0.000294638
0.000292602
0.00028513
0.000261543
0.000201858
0.000295381
0.000295325
0.000295288
0.000295249
0.000295132
0.000294636
0.000292601
0.000285129
0.000261543
0.000201858
0.000295392
0.000295337
0.000295301
0.000295261
0.000295145
0.000294649
0.000292614
0.000285141
0.000261555
0.000201868
0.000295426
0.000295372
0.000295336
0.000295297
0.000295181
0.000294685
0.00029265
0.000285177
0.000261588
0.000201893
0.000295495
0.000295444
0.00029541
0.000295373
0.000295257
0.000294762
0.000292726
0.00028525
0.000261655
0.000201945
0.00029562
0.000295575
0.000295545
0.00029551
0.000295395
0.0002949
0.000292863
0.000285385
0.000261778
0.000202042
0.000295815
0.000295789
0.000295766
0.000295733
0.000295619
0.000295124
0.000293086
0.000285602
0.00026198
0.000202203
6.60812e-05
6.60676e-05
6.60579e-05
6.60453e-05
6.60055e-05
6.58442e-05
6.52287e-05
6.31537e-05
5.72246e-05
4.3847e-05
6.60679e-05
6.60543e-05
6.60447e-05
6.60322e-05
6.59924e-05
6.58312e-05
6.52162e-05
6.31425e-05
5.72157e-05
4.38415e-05
6.60599e-05
6.60464e-05
6.60368e-05
6.60243e-05
6.59846e-05
6.58236e-05
6.52089e-05
6.31359e-05
5.72105e-05
4.38382e-05
6.6056e-05
6.60425e-05
6.60329e-05
6.60205e-05
6.59809e-05
6.58199e-05
6.52054e-05
6.31328e-05
5.7208e-05
4.38366e-05
6.60555e-05
6.6042e-05
6.60324e-05
6.60201e-05
6.59804e-05
6.58195e-05
6.52051e-05
6.31326e-05
5.72081e-05
4.38368e-05
6.60586e-05
6.60452e-05
6.60357e-05
6.60234e-05
6.59839e-05
6.5823e-05
6.52086e-05
6.3136e-05
5.72112e-05
4.38392e-05
6.60674e-05
6.60542e-05
6.60449e-05
6.60328e-05
6.59933e-05
6.58324e-05
6.5218e-05
6.31451e-05
5.72194e-05
4.38456e-05
6.60856e-05
6.60729e-05
6.60642e-05
6.60524e-05
6.6013e-05
6.58522e-05
6.52376e-05
6.31641e-05
5.72366e-05
4.38589e-05
6.61181e-05
6.61071e-05
6.60993e-05
6.6088e-05
6.60489e-05
6.5888e-05
6.52731e-05
6.31985e-05
5.72679e-05
4.38834e-05
6.61691e-05
6.61628e-05
6.61567e-05
6.61459e-05
6.61069e-05
6.5946e-05
6.53306e-05
6.32544e-05
5.73191e-05
4.39238e-05
1.3987e-05
1.39838e-05
1.39814e-05
1.39779e-05
1.39661e-05
1.39205e-05
1.3757e-05
1.32434e-05
1.18887e-05
9.08692e-06
1.39839e-05
1.39808e-05
1.39784e-05
1.39749e-05
1.39631e-05
1.39176e-05
1.37542e-05
1.32409e-05
1.18867e-05
9.08567e-06
1.39821e-05
1.3979e-05
1.39766e-05
1.39731e-05
1.39614e-05
1.39158e-05
1.37525e-05
1.32394e-05
1.18855e-05
9.08491e-06
1.39812e-05
1.39781e-05
1.39758e-05
1.39722e-05
1.39605e-05
1.3915e-05
1.37517e-05
1.32387e-05
1.1885e-05
9.08457e-06
1.39811e-05
1.3978e-05
1.39757e-05
1.39722e-05
1.39604e-05
1.39149e-05
1.37517e-05
1.32387e-05
1.1885e-05
9.08462e-06
1.39819e-05
1.39788e-05
1.39765e-05
1.3973e-05
1.39613e-05
1.39158e-05
1.37525e-05
1.32395e-05
1.18858e-05
9.08522e-06
1.39841e-05
1.3981e-05
1.39788e-05
1.39753e-05
1.39636e-05
1.39181e-05
1.37548e-05
1.32417e-05
1.18877e-05
9.08675e-06
1.39885e-05
1.39856e-05
1.39835e-05
1.39801e-05
1.39684e-05
1.39229e-05
1.37596e-05
1.32463e-05
1.18918e-05
9.08993e-06
1.39965e-05
1.39939e-05
1.3992e-05
1.39887e-05
1.39771e-05
1.39316e-05
1.37682e-05
1.32546e-05
1.18993e-05
9.09577e-06
1.40089e-05
1.40075e-05
1.40059e-05
1.40028e-05
1.39912e-05
1.39457e-05
1.37821e-05
1.3268e-05
1.19115e-05
9.10537e-06
2.80999e-06
2.8093e-06
2.80875e-06
2.80783e-06
2.80472e-06
2.79317e-06
2.75393e-06
2.63786e-06
2.35113e-06
1.797e-06
2.80934e-06
2.80866e-06
2.80811e-06
2.80719e-06
2.80408e-06
2.79254e-06
2.75333e-06
2.63733e-06
2.35071e-06
1.79674e-06
2.80895e-06
2.80827e-06
2.80773e-06
2.8068e-06
2.8037e-06
2.79217e-06
2.75298e-06
2.63701e-06
2.35047e-06
1.79657e-06
2.80876e-06
2.80809e-06
2.80754e-06
2.80662e-06
2.80352e-06
2.792e-06
2.75282e-06
2.63687e-06
2.35035e-06
1.7965e-06
2.80875e-06
2.80807e-06
2.80753e-06
2.80661e-06
2.80351e-06
2.79199e-06
2.75282e-06
2.63687e-06
2.35037e-06
1.79652e-06
2.80893e-06
2.80826e-06
2.80772e-06
2.80681e-06
2.80371e-06
2.79219e-06
2.75301e-06
2.63706e-06
2.35054e-06
1.79665e-06
2.80943e-06
2.80877e-06
2.80824e-06
2.80733e-06
2.80424e-06
2.79272e-06
2.75354e-06
2.63756e-06
2.35099e-06
1.797e-06
2.81045e-06
2.80982e-06
2.80932e-06
2.80842e-06
2.80534e-06
2.79382e-06
2.75462e-06
2.6386e-06
2.35191e-06
1.79772e-06
2.81228e-06
2.81172e-06
2.81127e-06
2.8104e-06
2.80733e-06
2.7958e-06
2.75658e-06
2.64048e-06
2.3536e-06
1.79904e-06
2.81514e-06
2.81483e-06
2.81446e-06
2.81361e-06
2.81055e-06
2.79901e-06
2.75975e-06
2.64353e-06
2.35635e-06
1.80119e-06
5.37216e-07
5.37075e-07
5.36954e-07
5.36732e-07
5.35986e-07
5.33319e-07
5.24671e-07
5.00367e-07
4.43516e-07
3.39404e-07
5.37084e-07
5.36944e-07
5.36824e-07
5.36601e-07
5.35856e-07
5.33192e-07
5.2455e-07
5.0026e-07
4.43432e-07
3.3935e-07
5.37005e-07
5.36866e-07
5.36746e-07
5.36524e-07
5.3578e-07
5.33117e-07
5.24479e-07
5.00197e-07
4.43383e-07
3.39317e-07
5.36968e-07
5.36829e-07
5.36709e-07
5.36487e-07
5.35743e-07
5.33082e-07
5.24446e-07
5.00168e-07
4.4336e-07
3.39303e-07
5.36966e-07
5.36827e-07
5.36708e-07
5.36487e-07
5.35743e-07
5.33082e-07
5.24447e-07
5.0017e-07
4.43364e-07
3.39307e-07
5.37006e-07
5.36868e-07
5.3675e-07
5.36529e-07
5.35786e-07
5.33125e-07
5.2449e-07
5.00212e-07
4.43401e-07
3.39336e-07
5.37114e-07
5.36978e-07
5.36862e-07
5.36643e-07
5.35901e-07
5.3324e-07
5.24603e-07
5.00319e-07
4.43497e-07
3.39411e-07
5.37335e-07
5.37205e-07
5.37094e-07
5.36879e-07
5.36138e-07
5.33476e-07
5.24836e-07
5.00541e-07
4.43695e-07
3.39564e-07
5.37731e-07
5.37617e-07
5.37517e-07
5.37306e-07
5.36567e-07
5.33904e-07
5.25258e-07
5.00944e-07
4.44054e-07
3.39845e-07
5.38353e-07
5.38289e-07
5.38204e-07
5.37999e-07
5.37261e-07
5.34596e-07
5.25939e-07
5.01597e-07
4.44639e-07
3.40304e-07
9.79694e-08
9.79418e-08
9.79167e-08
9.78671e-08
9.77023e-08
9.71332e-08
9.53624e-08
9.06007e-08
7.99647e-08
6.13306e-08
9.79439e-08
9.79165e-08
9.78915e-08
9.7842e-08
9.76773e-08
9.71088e-08
9.53392e-08
9.05802e-08
7.99486e-08
6.13201e-08
9.79287e-08
9.79014e-08
9.78765e-08
9.78271e-08
9.76626e-08
9.70944e-08
9.53256e-08
9.05682e-08
7.99391e-08
6.13138e-08
9.79216e-08
9.78943e-08
9.78694e-08
9.78201e-08
9.76557e-08
9.70877e-08
9.53194e-08
9.05628e-08
7.9935e-08
6.13111e-08
9.79215e-08
9.78943e-08
9.78695e-08
9.78202e-08
9.76558e-08
9.7088e-08
9.53198e-08
9.05634e-08
7.99358e-08
6.13121e-08
9.79299e-08
9.79028e-08
9.78782e-08
9.78291e-08
9.76648e-08
9.7097e-08
9.53287e-08
9.0572e-08
7.99435e-08
6.13181e-08
9.79521e-08
9.79254e-08
9.79012e-08
9.78524e-08
9.76883e-08
9.71204e-08
9.53518e-08
9.05939e-08
7.9963e-08
6.13333e-08
9.79976e-08
9.7972e-08
9.79489e-08
9.79007e-08
9.77368e-08
9.71688e-08
9.53993e-08
9.06391e-08
8.0003e-08
6.13645e-08
9.80788e-08
9.80565e-08
9.80353e-08
9.79881e-08
9.78245e-08
9.72562e-08
9.54852e-08
9.07209e-08
8.00757e-08
6.14214e-08
9.82065e-08
9.81938e-08
9.81757e-08
9.81296e-08
9.79662e-08
9.73972e-08
9.56238e-08
9.08532e-08
8.01938e-08
6.15142e-08
1.70797e-08
1.70746e-08
1.70696e-08
1.70593e-08
1.70254e-08
1.69122e-08
1.65726e-08
1.56949e-08
1.38196e-08
1.07287e-08
1.7075e-08
1.70699e-08
1.7065e-08
1.70547e-08
1.70209e-08
1.69077e-08
1.65683e-08
1.56912e-08
1.38167e-08
1.07267e-08
1.70722e-08
1.70671e-08
1.70622e-08
1.70519e-08
1.70181e-08
1.69051e-08
1.65659e-08
1.5689e-08
1.3815e-08
1.07256e-08
1.70709e-08
1.70659e-08
1.70609e-08
1.70507e-08
1.70169e-08
1.69039e-08
1.65647e-08
1.56881e-08
1.38142e-08
1.07251e-08
1.7071e-08
1.70659e-08
1.7061e-08
1.70507e-08
1.7017e-08
1.6904e-08
1.65649e-08
1.56882e-08
1.38144e-08
1.07253e-08
1.70726e-08
1.70676e-08
1.70627e-08
1.70525e-08
1.70187e-08
1.69058e-08
1.65666e-08
1.56899e-08
1.38159e-08
1.07265e-08
1.7077e-08
1.7072e-08
1.70672e-08
1.7057e-08
1.70233e-08
1.69103e-08
1.65711e-08
1.56941e-08
1.38197e-08
1.07295e-08
1.70858e-08
1.70811e-08
1.70765e-08
1.70664e-08
1.70327e-08
1.69197e-08
1.65803e-08
1.57029e-08
1.38274e-08
1.07356e-08
1.71017e-08
1.70975e-08
1.70933e-08
1.70834e-08
1.70498e-08
1.69367e-08
1.65969e-08
1.57187e-08
1.38414e-08
1.07467e-08
1.71266e-08
1.71242e-08
1.71205e-08
1.71109e-08
1.70772e-08
1.6964e-08
1.66237e-08
1.57442e-08
1.38641e-08
1.07647e-08
0.00357669
0.000802396
0.000173685
3.70112e-05
1.24264e-05
2.88026e-05
0.000137875
0.000662398
0.00306269
0.0136519
0.00357641
0.000802327
0.000173668
3.70063e-05
1.24208e-05
2.87808e-05
0.000137784
0.000662034
0.00306133
0.0136472
0.00357623
0.000802284
0.000173658
3.70037e-05
1.24181e-05
2.87707e-05
0.000137742
0.000661875
0.00306076
0.0136453
0.00357613
0.000802263
0.000173653
3.70025e-05
1.24169e-05
2.87666e-05
0.000137726
0.000661811
0.00306053
0.0136445
0.00357613
0.000802264
0.000173654
3.70027e-05
1.24167e-05
2.87656e-05
0.000137722
0.000661797
0.00306047
0.0136443
0.00357625
0.000802296
0.000173662
3.70048e-05
1.24174e-05
2.87666e-05
0.000137726
0.000661817
0.00306056
0.0136446
0.00357656
0.000802378
0.000173683
3.701e-05
1.24192e-05
2.877e-05
0.000137741
0.000661879
0.00306081
0.0136456
0.0035772
0.00080255
0.000173727
3.70207e-05
1.24228e-05
2.87762e-05
0.000137767
0.000661998
0.00306131
0.0136476
0.00357839
0.000802862
0.000173805
3.70398e-05
1.24286e-05
2.87851e-05
0.000137806
0.000662173
0.00306208
0.0136509
0.0035803
0.000803358
0.000173929
3.70695e-05
1.24368e-05
2.8794e-05
0.000137843
0.000662347
0.00306289
0.0136546
0.00132703
0.000373265
9.29462e-05
2.18343e-05
7.95849e-06
1.8098e-05
8.09262e-05
0.000354007
0.00142336
0.00506078
0.00132692
0.000373231
9.29373e-05
2.18315e-05
7.95488e-06
1.80846e-05
8.08735e-05
0.000353816
0.00142274
0.00505909
0.00132684
0.000373211
9.29318e-05
2.18298e-05
7.95306e-06
1.80781e-05
8.08485e-05
0.000353727
0.00142246
0.00505829
0.00132681
0.0003732
9.29293e-05
2.18291e-05
7.95229e-06
1.80754e-05
8.08382e-05
0.00035369
0.00142234
0.00505795
0.00132681
0.000373202
9.29298e-05
2.18293e-05
7.95217e-06
1.80747e-05
8.08357e-05
0.000353681
0.00142231
0.00505787
0.00132686
0.000373218
9.29347e-05
2.18306e-05
7.95262e-06
1.80754e-05
8.08386e-05
0.000353693
0.00142235
0.00505801
0.00132699
0.000373261
9.29471e-05
2.18339e-05
7.95385e-06
1.80777e-05
8.08476e-05
0.000353729
0.00142248
0.00505843
0.00132727
0.000373351
9.29728e-05
2.18408e-05
7.9563e-06
1.80819e-05
8.08647e-05
0.000353799
0.00142274
0.00505928
0.00132778
0.000373516
9.30198e-05
2.18532e-05
7.96044e-06
1.80883e-05
8.08907e-05
0.000353907
0.00142316
0.00506068
0.00132863
0.00037379
9.30973e-05
2.18736e-05
7.96669e-06
1.80963e-05
8.09226e-05
0.000354044
0.0014237
0.00506263
0.000387301
0.000128501
3.62418e-05
9.41107e-06
3.76623e-06
8.3656e-06
3.46525e-05
0.000137844
0.000489619
0.00147618
0.000387265
0.000128489
3.62382e-05
9.40979e-06
3.76449e-06
8.35943e-06
3.463e-05
0.00013777
0.000489407
0.00147568
0.000387242
0.000128482
3.6236e-05
9.40906e-06
3.76358e-06
8.35634e-06
3.46189e-05
0.000137733
0.000489302
0.00147542
0.00038723
0.000128478
3.6235e-05
9.40874e-06
3.7632e-06
8.35502e-06
3.46141e-05
0.000137718
0.000489256
0.00147531
0.000387231
0.000128479
3.62353e-05
9.40882e-06
3.76314e-06
8.35469e-06
3.46129e-05
0.000137714
0.000489246
0.00147529
0.000387249
0.000128485
3.62374e-05
9.40945e-06
3.76337e-06
8.35505e-06
3.46143e-05
0.000137719
0.000489263
0.00147533
0.000387294
0.000128502
3.62429e-05
9.41104e-06
3.764e-06
8.35618e-06
3.46185e-05
0.000137735
0.000489314
0.00147547
0.000387388
0.000128538
3.62541e-05
9.41432e-06
3.76527e-06
8.35836e-06
3.46267e-05
0.000137765
0.000489415
0.00147576
0.000387562
0.000128603
3.62749e-05
9.42032e-06
3.76746e-06
8.3618e-06
3.46397e-05
0.000137815
0.000489583
0.00147624
0.000387853
0.000128711
3.63093e-05
9.4302e-06
3.77084e-06
8.3665e-06
3.46574e-05
0.000137884
0.000489826
0.00147698
9.95055e-05
3.72004e-05
1.16076e-05
3.29497e-06
1.43895e-06
3.12204e-06
1.20439e-05
4.40842e-05
0.000141634
0.000379062
9.94953e-05
3.71967e-05
1.16064e-05
3.29449e-06
1.43826e-06
3.11973e-06
1.20361e-05
4.40604e-05
0.000141573
0.000378932
9.94889e-05
3.71943e-05
1.16057e-05
3.29422e-06
1.4379e-06
3.11854e-06
1.2032e-05
4.40481e-05
0.00014154
0.000378861
9.94859e-05
3.71933e-05
1.16053e-05
3.2941e-06
1.43774e-06
3.11801e-06
1.20302e-05
4.40427e-05
0.000141526
0.000378828
9.94863e-05
3.71935e-05
1.16054e-05
3.29413e-06
1.43772e-06
3.11788e-06
1.20298e-05
4.40414e-05
0.000141522
0.000378821
9.94915e-05
3.71957e-05
1.16062e-05
3.29438e-06
1.43781e-06
3.11803e-06
1.20303e-05
4.40432e-05
0.000141528
0.000378835
9.9505e-05
3.72013e-05
1.16082e-05
3.295e-06
1.43808e-06
3.1185e-06
1.2032e-05
4.40488e-05
0.000141544
0.000378877
9.95331e-05
3.7213e-05
1.16123e-05
3.29628e-06
1.43861e-06
3.11941e-06
1.20352e-05
4.40598e-05
0.000141578
0.000378961
9.9585e-05
3.72346e-05
1.16198e-05
3.29863e-06
1.43955e-06
3.12089e-06
1.20404e-05
4.40783e-05
0.000141635
0.000379109
9.96715e-05
3.72705e-05
1.16322e-05
3.3025e-06
1.44101e-06
3.12303e-06
1.2048e-05
4.41055e-05
0.000141722
0.000379342
2.33826e-05
9.55176e-06
3.23382e-06
9.91446e-07
4.67905e-07
9.93026e-07
3.59608e-06
1.22624e-05
3.6339e-05
8.90279e-05
2.338e-05
9.55074e-06
3.23347e-06
9.91294e-07
4.67674e-07
9.92284e-07
3.5937e-06
1.22557e-05
3.63228e-05
8.89965e-05
2.33784e-05
9.55011e-06
3.23325e-06
9.91205e-07
4.6755e-07
9.91892e-07
3.59244e-06
1.22521e-05
3.63139e-05
8.89784e-05
2.33776e-05
9.54982e-06
3.23316e-06
9.91168e-07
4.67495e-07
9.91716e-07
3.59187e-06
1.22504e-05
3.63099e-05
8.897e-05
2.33778e-05
9.54992e-06
3.2332e-06
9.91181e-07
4.67487e-07
9.9167e-07
3.59173e-06
1.225e-05
3.63089e-05
8.89681e-05
2.33792e-05
9.55057e-06
3.23345e-06
9.91264e-07
4.67522e-07
9.91723e-07
3.5919e-06
1.22506e-05
3.63105e-05
8.89718e-05
2.33829e-05
9.55221e-06
3.23406e-06
9.91472e-07
4.67617e-07
9.91888e-07
3.59245e-06
1.22524e-05
3.63154e-05
8.89831e-05
2.33905e-05
9.55562e-06
3.23534e-06
9.91902e-07
4.6781e-07
9.92213e-07
3.59353e-06
1.22558e-05
3.63252e-05
8.90061e-05
2.34045e-05
9.56192e-06
3.2377e-06
9.92689e-07
4.68148e-07
9.92757e-07
3.59534e-06
1.22618e-05
3.63423e-05
8.90469e-05
2.34278e-05
9.57235e-06
3.24159e-06
9.93983e-07
4.68682e-07
9.93564e-07
3.59805e-06
1.22709e-05
3.63691e-05
8.91126e-05
5.11476e-06
2.23562e-06
8.08965e-07
2.65053e-07
1.33874e-07
2.78403e-07
9.53768e-07
3.06238e-06
8.49846e-06
1.94633e-05
5.11413e-06
2.23536e-06
8.08871e-07
2.65009e-07
1.33806e-07
2.78192e-07
9.53126e-07
3.06066e-06
8.49458e-06
1.94561e-05
5.11375e-06
2.23521e-06
8.08815e-07
2.64984e-07
1.33768e-07
2.78078e-07
9.52778e-07
3.05972e-06
8.49239e-06
1.94519e-05
5.11358e-06
2.23514e-06
8.08791e-07
2.64973e-07
1.33752e-07
2.78026e-07
9.52618e-07
3.05928e-06
8.49137e-06
1.94499e-05
5.11363e-06
2.23517e-06
8.08804e-07
2.64977e-07
1.33749e-07
2.78013e-07
9.52577e-07
3.05918e-06
8.49113e-06
1.94495e-05
5.11399e-06
2.23534e-06
8.08874e-07
2.65002e-07
1.3376e-07
2.78029e-07
9.52629e-07
3.05934e-06
8.49155e-06
1.94504e-05
5.11491e-06
2.23578e-06
8.09047e-07
2.65064e-07
1.3379e-07
2.7808e-07
9.5279e-07
3.05982e-06
8.49284e-06
1.94532e-05
5.11681e-06
2.23668e-06
8.09406e-07
2.65192e-07
1.33851e-07
2.78183e-07
9.53113e-07
3.06081e-06
8.49546e-06
1.9459e-05
5.12031e-06
2.23834e-06
8.10065e-07
2.65426e-07
1.33959e-07
2.78356e-07
9.53665e-07
3.06252e-06
8.50008e-06
1.94694e-05
5.12608e-06
2.24109e-06
8.11153e-07
2.65809e-07
1.34129e-07
2.78621e-07
9.54509e-07
3.06519e-06
8.50743e-06
1.94863e-05
1.0517e-06
4.84686e-07
1.85299e-07
6.43106e-08
3.44618e-08
7.03493e-08
2.29565e-07
7.00202e-07
1.84093e-06
3.99967e-06
1.05156e-06
4.84627e-07
1.85276e-07
6.42993e-08
3.44436e-08
7.02951e-08
2.29408e-07
6.998e-07
1.84006e-06
3.99814e-06
1.05147e-06
4.84591e-07
1.85263e-07
6.42927e-08
3.44335e-08
7.02653e-08
2.29321e-07
6.99575e-07
1.83956e-06
3.99722e-06
1.05144e-06
4.84576e-07
1.85257e-07
6.429e-08
3.4429e-08
7.02515e-08
2.2928e-07
6.99469e-07
1.83932e-06
3.99678e-06
1.05145e-06
4.84584e-07
1.85261e-07
6.42912e-08
3.44283e-08
7.0248e-08
2.29269e-07
6.99443e-07
1.83927e-06
3.99668e-06
1.05153e-06
4.84626e-07
1.85279e-07
6.42979e-08
3.44314e-08
7.02525e-08
2.29283e-07
6.99484e-07
1.83937e-06
3.9969e-06
1.05175e-06
4.84733e-07
1.85323e-07
6.43146e-08
3.44399e-08
7.02669e-08
2.29326e-07
6.99609e-07
1.83969e-06
3.99756e-06
1.05219e-06
4.84953e-07
1.85415e-07
6.43489e-08
3.44572e-08
7.02958e-08
2.29414e-07
6.99864e-07
1.84033e-06
3.99892e-06
1.05301e-06
4.85358e-07
1.85583e-07
6.44116e-08
3.44879e-08
7.03456e-08
2.29565e-07
7.0031e-07
1.84148e-06
4.00137e-06
1.05435e-06
4.86024e-07
1.8586e-07
6.45141e-08
3.45367e-08
7.04224e-08
2.298e-07
7.01016e-07
1.84332e-06
4.00538e-06
2.04568e-07
9.83623e-08
3.93781e-08
1.43716e-08
8.10958e-09
1.62771e-08
5.08912e-08
1.48518e-07
3.73263e-07
7.77493e-07
2.04539e-07
9.83495e-08
3.9373e-08
1.43689e-08
8.10515e-09
1.62643e-08
5.08554e-08
1.4843e-07
3.73082e-07
7.77183e-07
2.04521e-07
9.83418e-08
3.93699e-08
1.43673e-08
8.10267e-09
1.62572e-08
5.08353e-08
1.4838e-07
3.72975e-07
7.76995e-07
2.04514e-07
9.83386e-08
3.93687e-08
1.43667e-08
8.10154e-09
1.62538e-08
5.08258e-08
1.48357e-07
3.72924e-07
7.76902e-07
2.04517e-07
9.83405e-08
3.93696e-08
1.4367e-08
8.10138e-09
1.6253e-08
5.08234e-08
1.48351e-07
3.72912e-07
7.76882e-07
2.04536e-07
9.83504e-08
3.93739e-08
1.43686e-08
8.10219e-09
1.62542e-08
5.08268e-08
1.48361e-07
3.72936e-07
7.76931e-07
2.04583e-07
9.83746e-08
3.93845e-08
1.43728e-08
8.10439e-09
1.62578e-08
5.08374e-08
1.4839e-07
3.73008e-07
7.77076e-07
2.0468e-07
9.84247e-08
3.94061e-08
1.43812e-08
8.10886e-09
1.62653e-08
5.08591e-08
1.48451e-07
3.73155e-07
7.77375e-07
2.04858e-07
9.85164e-08
3.94457e-08
1.43966e-08
8.11683e-09
1.62782e-08
5.0897e-08
1.48558e-07
3.7342e-07
7.77919e-07
2.0515e-07
9.86668e-08
3.95107e-08
1.44218e-08
8.12955e-09
1.62985e-08
5.09566e-08
1.4873e-07
3.73848e-07
7.78812e-07
3.79221e-08
1.88999e-08
7.87379e-09
3.00562e-09
1.7757e-09
3.50874e-09
1.05576e-08