/*--------------------------------*- C++ -*----------------------------------*\
  =========                 |
  \\      /  F ield         | OpenFOAM: The Open Source CFD Toolbox
   \\    /   O peration     | Website:  https://openfoam.org
    \\  /    A nd           | Version:  6
     \\/     M anipulation  |
\*---------------------------------------------------------------------------*/
FoamFile
{
    version     2.0;
    format      ascii;
    class       volScalarField;
    location    "0.68";
    object      T;
}
// * * * * * * * * * * * * * * * * * * * * * * * * * * * * * * * * * * * * * //

dimensions      [0 0 0 1 0 0 0];

internalField   nonuniform List<scalar> 
7000
(
106.14
106.138
106.134
106.128
106.121
106.113
106.106
106.099
106.094
106.091
106.14
106.138
106.134
106.128
106.121
106.113
106.106
106.099
106.094
106.091
106.14
106.138
106.134
106.128
106.121
106.113
106.106
106.099
106.094
106.091
106.14
106.138
106.134
106.128
106.121
106.113
106.106
106.099
106.094
106.091
106.14
106.138
106.134
106.128
106.121
106.113
106.106
106.099
106.094
106.091
106.14
106.138
106.134
106.128
106.121
106.113
106.106
106.099
106.094
106.091
106.14
106.138
106.134
106.128
106.121
106.113
106.106
106.099
106.094
106.091
106.14
106.138
106.134
106.128
106.121
106.113
106.106
106.099
106.094
106.091
106.14
106.138
106.134
106.128
106.121
106.113
106.106
106.099
106.094
106.091
106.14
106.138
106.134
106.128
106.121
106.113
106.106
106.099
106.094
106.091
98.4476
98.4412
98.4287
98.4111
98.3896
98.366
98.3426
98.3217
98.306
98.2976
98.4476
98.4411
98.4287
98.4111
98.3896
98.366
98.3426
98.3217
98.306
98.2976
98.4476
98.4411
98.4287
98.4111
98.3896
98.366
98.3425
98.3217
98.306
98.2976
98.4476
98.4411
98.4287
98.4111
98.3896
98.366
98.3425
98.3217
98.306
98.2976
98.4476
98.4411
98.4287
98.4111
98.3896
98.366
98.3425
98.3217
98.306
98.2975
98.4476
98.4411
98.4287
98.4111
98.3896
98.366
98.3425
98.3217
98.306
98.2975
98.4476
98.4411
98.4287
98.4111
98.3896
98.366
98.3425
98.3217
98.306
98.2975
98.4476
98.4411
98.4287
98.4111
98.3896
98.366
98.3425
98.3217
98.306
98.2976
98.4476
98.4411
98.4287
98.4111
98.3896
98.366
98.3425
98.3217
98.306
98.2976
98.4476
98.4411
98.4287
98.4111
98.3896
98.366
98.3426
98.3217
98.306
98.2976
90.8395
90.8284
90.8069
90.7764
90.7389
90.6975
90.6559
90.6187
90.5904
90.5751
90.8395
90.8284
90.8069
90.7763
90.7389
90.6974
90.6559
90.6186
90.5904
90.5751
90.8395
90.8284
90.8069
90.7763
90.7388
90.6974
90.6559
90.6186
90.5904
90.5751
90.8394
90.8284
90.8069
90.7763
90.7388
90.6974
90.6558
90.6186
90.5904
90.5751
90.8394
90.8284
90.8069
90.7763
90.7388
90.6974
90.6558
90.6186
90.5904
90.5751
90.8394
90.8284
90.8069
90.7763
90.7388
90.6974
90.6558
90.6186
90.5904
90.5751
90.8394
90.8284
90.8069
90.7763
90.7388
90.6974
90.6558
90.6186
90.5904
90.5751
90.8394
90.8284
90.8069
90.7763
90.7388
90.6974
90.6558
90.6186
90.5904
90.5751
90.8395
90.8284
90.8069
90.7763
90.7388
90.6974
90.6559
90.6186
90.5904
90.5751
90.8395
90.8284
90.8069
90.7763
90.7389
90.6974
90.6559
90.6187
90.5904
90.5751
83.3702
83.3539
83.3223
83.2771
83.2211
83.1586
83.095
83.0373
82.9929
82.9687
83.3701
83.3539
83.3223
83.2771
83.2211
83.1585
83.095
83.0373
82.9929
82.9686
83.3701
83.3539
83.3223
83.277
83.2211
83.1585
83.095
83.0373
82.9929
82.9686
83.3701
83.3539
83.3222
83.277
83.2211
83.1585
83.095
83.0373
82.9929
82.9686
83.3701
83.3538
83.3222
83.277
83.221
83.1585
83.095
83.0373
82.9929
82.9686
83.3701
83.3538
83.3222
83.277
83.221
83.1585
83.095
83.0373
82.9929
82.9686
83.3701
83.3538
83.3222
83.277
83.221
83.1585
83.095
83.0373
82.9929
82.9686
83.3701
83.3539
83.3222
83.277
83.2211
83.1585
83.095
83.0373
82.9929
82.9686
83.3701
83.3539
83.3223
83.277
83.2211
83.1585
83.095
83.0373
82.9929
82.9686
83.3701
83.3539
83.3223
83.2771
83.2211
83.1586
83.095
83.0373
82.9929
82.9687
76.0922
76.0701
76.0271
75.9649
75.8871
75.7988
75.7074
75.6226
75.5559
75.5189
76.0921
76.0701
76.027
75.9649
75.8871
75.7988
75.7073
75.6225
75.5559
75.5188
76.0921
76.0701
76.027
75.9649
75.8871
75.7988
75.7073
75.6225
75.5559
75.5188
76.0921
76.0701
76.027
75.9649
75.887
75.7987
75.7073
75.6225
75.5559
75.5188
76.0921
76.07
76.027
75.9648
75.887
75.7987
75.7073
75.6225
75.5559
75.5188
76.0921
76.07
76.027
75.9648
75.887
75.7987
75.7073
75.6225
75.5559
75.5188
76.0921
76.07
76.027
75.9648
75.887
75.7987
75.7073
75.6225
75.5559
75.5188
76.0921
76.0701
76.027
75.9649
75.8871
75.7987
75.7073
75.6225
75.5559
75.5188
76.0921
76.0701
76.027
75.9649
75.8871
75.7988
75.7073
75.6225
75.5559
75.5188
76.0921
76.0701
76.027
75.9649
75.8871
75.7988
75.7074
75.6225
75.5559
75.5189
69.0551
69.0267
68.9708
68.8893
68.7857
68.6657
68.538
68.4159
68.3168
68.26
69.055
69.0267
68.9708
68.8893
68.7857
68.6656
68.538
68.4159
68.3167
68.2599
69.055
69.0266
68.9707
68.8893
68.7857
68.6656
68.538
68.4159
68.3167
68.2599
69.055
69.0266
68.9707
68.8893
68.7856
68.6656
68.5379
68.4158
68.3167
68.2599
69.055
69.0266
68.9707
68.8892
68.7856
68.6656
68.5379
68.4158
68.3167
68.2599
69.055
69.0266
68.9707
68.8892
68.7856
68.6655
68.5379
68.4158
68.3167
68.2599
69.055
69.0266
68.9707
68.8892
68.7856
68.6656
68.5379
68.4158
68.3167
68.2599
69.055
69.0266
68.9707
68.8893
68.7856
68.6656
68.5379
68.4158
68.3167
68.2599
69.055
69.0266
68.9707
68.8893
68.7857
68.6656
68.538
68.4159
68.3167
68.2599
69.055
69.0267
68.9708
68.8893
68.7857
68.6656
68.538
68.4159
68.3168
68.26
62.3048
62.2697
62.2
62.0971
61.9638
61.8051
61.6304
61.4558
61.3065
61.2165
62.3048
62.2696
62.2
62.0971
61.9637
61.805
61.6304
61.4557
61.3064
61.2164
62.3048
62.2696
62.1999
62.097
61.9637
61.805
61.6303
61.4557
61.3064
61.2164
62.3047
62.2696
62.1999
62.097
61.9637
61.805
61.6303
61.4556
61.3064
61.2164
62.3047
62.2696
62.1999
62.097
61.9637
61.805
61.6303
61.4556
61.3064
61.2164
62.3047
62.2696
62.1999
62.097
61.9637
61.805
61.6303
61.4556
61.3064
61.2164
62.3047
62.2696
62.1999
62.097
61.9637
61.805
61.6303
61.4556
61.3064
61.2164
62.3047
62.2696
62.1999
62.097
61.9637
61.805
61.6303
61.4557
61.3064
61.2164
62.3048
62.2696
62.1999
62.0971
61.9637
61.805
61.6303
61.4557
61.3064
61.2164
62.3048
62.2697
62.2
62.0971
61.9637
61.8051
61.6304
61.4557
61.3065
61.2165
55.8827
55.8409
55.7573
55.6322
55.4664
55.2628
55.0283
54.7791
54.5486
54.3964
55.8827
55.8408
55.7573
55.6321
55.4664
55.2627
55.0283
54.7791
54.5486
54.3963
55.8826
55.8408
55.7572
55.6321
55.4663
55.2627
55.0282
54.779
54.5486
54.3963
55.8826
55.8408
55.7572
55.6321
55.4663
55.2627
55.0282
54.779
54.5485
54.3963
55.8826
55.8408
55.7572
55.6321
55.4663
55.2627
55.0282
54.779
54.5485
54.3963
55.8826
55.8408
55.7572
55.6321
55.4663
55.2627
55.0282
54.779
54.5485
54.3963
55.8826
55.8408
55.7572
55.6321
55.4663
55.2627
55.0282
54.779
54.5485
54.3963
55.8826
55.8408
55.7572
55.6321
55.4663
55.2627
55.0282
54.779
54.5486
54.3963
55.8826
55.8408
55.7572
55.6321
55.4664
55.2627
55.0283
54.7791
54.5486
54.3963
55.8827
55.8409
55.7573
55.6322
55.4664
55.2628
55.0283
54.7791
54.5486
54.3964
49.8245
49.7768
49.6808
49.535
49.3374
49.086
48.7805
48.4285
48.062
47.7765
49.8244
49.7767
49.6807
49.5349
49.3374
49.086
48.7805
48.4285
48.062
47.7764
49.8244
49.7767
49.6807
49.5349
49.3373
49.0859
48.7804
48.4284
48.0619
47.7764
49.8243
49.7767
49.6806
49.5349
49.3373
49.0859
48.7804
48.4284
48.0619
47.7763
49.8243
49.7766
49.6806
49.5349
49.3373
49.0859
48.7804
48.4284
48.0619
47.7763
49.8243
49.7766
49.6806
49.5349
49.3373
49.0859
48.7804
48.4284
48.0619
47.7763
49.8243
49.7766
49.6806
49.5349
49.3373
49.0859
48.7804
48.4284
48.0619
47.7763
49.8243
49.7767
49.6807
49.5349
49.3373
49.0859
48.7804
48.4284
48.0619
47.7764
49.8244
49.7767
49.6807
49.5349
49.3374
49.086
48.7805
48.4285
48.062
47.7764
49.8244
49.7767
49.6807
49.535
49.3374
49.086
48.7805
48.4285
48.062
47.7765
44.1591
44.1074
44.0025
43.8414
43.6186
43.3254
42.9482
42.4693
41.8791
41.2615
44.1591
44.1073
44.0025
43.8414
43.6186
43.3253
42.9482
42.4692
41.8791
41.2614
44.159
44.1073
44.0024
43.8413
43.6185
43.3253
42.9481
42.4692
41.879
41.2614
44.159
44.1073
44.0024
43.8413
43.6185
43.3253
42.9481
42.4691
41.879
41.2613
44.159
44.1072
44.0024
43.8413
43.6185
43.3253
42.9481
42.4691
41.879
41.2613
44.159
44.1072
44.0024
43.8413
43.6185
43.3252
42.9481
42.4691
41.879
41.2613
44.159
44.1072
44.0024
43.8413
43.6185
43.3253
42.9481
42.4691
41.879
41.2613
44.159
44.1073
44.0024
43.8413
43.6185
43.3253
42.9481
42.4692
41.879
41.2614
44.159
44.1073
44.0024
43.8413
43.6186
43.3253
42.9482
42.4692
41.879
41.2614
44.1591
44.1073
44.0025
43.8414
43.6186
43.3254
42.9482
42.4693
41.8791
41.2615
38.9081
38.8549
38.747
38.5801
38.3467
38.0326
37.6111
37.0261
36.1419
34.5596
38.908
38.8549
38.7469
38.5801
38.3466
38.0325
37.611
37.0261
36.1418
34.5595
38.908
38.8548
38.7469
38.58
38.3466
38.0325
37.6109
37.026
36.1418
34.5595
38.9079
38.8548
38.7469
38.58
38.3465
38.0324
37.6109
37.026
36.1417
34.5594
38.9079
38.8548
38.7469
38.58
38.3465
38.0324
37.6109
37.026
36.1417
34.5594
38.9079
38.8548
38.7468
38.58
38.3465
38.0324
37.6109
37.026
36.1417
34.5594
38.9079
38.8548
38.7469
38.58
38.3465
38.0324
37.6109
37.026
36.1417
34.5594
38.9079
38.8548
38.7469
38.58
38.3466
38.0325
37.6109
37.026
36.1418
34.5594
38.908
38.8549
38.7469
38.5801
38.3466
38.0325
37.611
37.026
36.1418
34.5595
38.908
38.8549
38.747
38.5801
38.3467
38.0326
37.611
37.0261
36.1419
34.5596
34.0838
34.0327
33.9289
33.7689
33.5457
33.2469
32.8492
32.31
31.5518
30.4555
34.0837
34.0326
33.9288
33.7688
33.5457
33.2468
32.8491
32.31
31.5517
30.4554
34.0837
34.0326
33.9288
33.7688
33.5456
33.2468
32.8491
32.3099
31.5517
30.4553
34.0837
34.0325
33.9288
33.7687
33.5456
33.2467
32.8491
32.3099
31.5516
30.4553
34.0837
34.0325
33.9287
33.7687
33.5456
33.2467
32.849
32.3099
31.5516
30.4553
34.0837
34.0325
33.9287
33.7687
33.5456
33.2467
32.849
32.3099
31.5516
30.4553
34.0837
34.0325
33.9288
33.7687
33.5456
33.2467
32.8491
32.3099
31.5516
30.4553
34.0837
34.0325
33.9288
33.7688
33.5456
33.2468
32.8491
32.3099
31.5517
30.4553
34.0837
34.0326
33.9288
33.7688
33.5457
33.2468
32.8491
32.3099
31.5517
30.4554
34.0838
34.0326
33.9289
33.7689
33.5457
33.2469
32.8492
32.31
31.5518
30.4554
29.6897
29.6439
29.5516
29.411
29.2188
28.9691
28.6524
28.2552
27.7668
27.21
29.6897
29.6438
29.5515
29.4109
29.2187
28.9691
28.6523
28.2551
27.7667
27.2099
29.6896
29.6438
29.5515
29.4109
29.2187
28.969
28.6523
28.2551
27.7667
27.2098
29.6896
29.6438
29.5514
29.4108
29.2187
28.969
28.6522
28.2551
27.7667
27.2098
29.6896
29.6438
29.5514
29.4108
29.2186
28.969
28.6522
28.255
27.7666
27.2098
29.6896
29.6438
29.5514
29.4108
29.2186
28.969
28.6522
28.255
27.7666
27.2098
29.6896
29.6438
29.5514
29.4108
29.2187
28.969
28.6522
28.2551
27.7666
27.2098
29.6896
29.6438
29.5515
29.4109
29.2187
28.969
28.6523
28.2551
27.7667
27.2098
29.6897
29.6438
29.5515
29.4109
29.2187
28.9691
28.6523
28.2551
27.7667
27.2099
29.6897
29.6439
29.5516
29.411
29.2188
28.9691
28.6524
28.2552
27.7668
27.2099
25.7203
25.6825
25.6074
25.4959
25.3495
25.1707
24.964
24.74
24.5246
24.3819
25.7203
25.6825
25.6073
25.4958
25.3494
25.1706
24.9639
24.7399
24.5246
24.3819
25.7202
25.6824
25.6073
25.4958
25.3494
25.1705
24.9639
24.7399
24.5245
24.3818
25.7202
25.6824
25.6073
25.4957
25.3493
25.1705
24.9639
24.7398
24.5245
24.3818
25.7202
25.6824
25.6072
25.4957
25.3493
25.1705
24.9638
24.7398
24.5244
24.3818
25.7202
25.6824
25.6072
25.4957
25.3493
25.1705
24.9638
24.7398
24.5244
24.3817
25.7202
25.6824
25.6072
25.4957
25.3493
25.1705
24.9639
24.7398
24.5245
24.3818
25.7202
25.6824
25.6073
25.4958
25.3494
25.1705
24.9639
24.7399
24.5245
24.3818
25.7203
25.6824
25.6073
25.4958
25.3494
25.1706
24.9639
24.7399
24.5245
24.3819
25.7203
25.6825
25.6074
25.4959
25.3495
25.1706
24.964
24.74
24.5246
24.3819
22.1622
22.134
22.0795
22.0024
21.9089
21.8092
21.7189
21.6632
21.6834
21.8463
22.1622
22.134
22.0795
22.0023
21.9089
21.8091
21.7188
21.6632
21.6833
21.8462
22.1621
22.1339
22.0794
22.0023
21.9088
21.8091
21.7188
21.6631
21.6832
21.8462
22.1621
22.1339
22.0794
22.0022
21.9088
21.809
21.7187
21.6631
21.6832
21.8461
22.1621
22.1339
22.0794
22.0022
21.9088
21.809
21.7187
21.6631
21.6832
21.8461
22.1621
22.1339
22.0794
22.0022
21.9088
21.809
21.7187
21.6631
21.6832
21.8461
22.1621
22.1339
22.0794
22.0022
21.9088
21.809
21.7187
21.6631
21.6832
21.8461
22.1621
22.1339
22.0794
22.0023
21.9088
21.8091
21.7188
21.6631
21.6832
21.8462
22.1621
22.134
22.0795
22.0023
21.9089
21.8091
21.7188
21.6632
21.6833
21.8462
22.1622
22.134
22.0795
22.0024
21.9089
21.8092
21.7189
21.6632
21.6834
21.8463
18.9957
18.9777
18.9445
18.9025
18.862
18.8389
18.8571
18.9505
19.1658
19.5635
18.9957
18.9776
18.9445
18.9024
18.8619
18.8389
18.857
18.9504
19.1657
19.5634
18.9956
18.9776
18.9444
18.9024
18.8619
18.8388
18.857
18.9503
19.1657
19.5633
18.9956
18.9775
18.9444
18.9024
18.8618
18.8388
18.857
18.9503
19.1657
19.5633
18.9956
18.9775
18.9444
18.9024
18.8618
18.8388
18.857
18.9503
19.1656
19.5633
18.9956
18.9775
18.9444
18.9024
18.8618
18.8388
18.857
18.9503
19.1656
19.5633
18.9956
18.9775
18.9444
18.9024
18.8618
18.8388
18.857
18.9503
19.1657
19.5633
18.9956
18.9776
18.9444
18.9024
18.8619
18.8388
18.857
18.9503
19.1657
19.5633
18.9956
18.9776
18.9445
18.9024
18.8619
18.8389
18.857
18.9504
19.1657
19.5634
18.9957
18.9776
18.9445
18.9025
18.862
18.8389
18.8571
18.9505
19.1658
19.5634
16.1968
16.1882
16.1748
16.1647
16.1712
16.2148
16.325
16.5427
16.9201
17.5148
16.1967
16.1881
16.1747
16.1646
16.1712
16.2148
16.325
16.5427
16.9201
17.5147
16.1967
16.1881
16.1747
16.1646
16.1711
16.2147
16.3249
16.5426
16.92
17.5147
16.1967
16.1881
16.1747
16.1646
16.1711
16.2147
16.3249
16.5426
16.92
17.5147
16.1966
16.188
16.1747
16.1646
16.1711
16.2147
16.3249
16.5426
16.92
17.5146
16.1966
16.188
16.1747
16.1646
16.1711
16.2147
16.3249
16.5426
16.92
17.5146
16.1967
16.188
16.1747
16.1646
16.1711
16.2147
16.3249
16.5426
16.92
17.5147
16.1967
16.1881
16.1747
16.1646
16.1711
16.2147
16.3249
16.5426
16.92
17.5147
16.1967
16.1881
16.1747
16.1646
16.1712
16.2148
16.325
16.5427
16.9201
17.5147
16.1967
16.1882
16.1748
16.1647
16.1712
16.2148
16.325
16.5427
16.9202
17.5148
13.7386
13.7379
13.7408
13.7564
13.7997
13.8938
14.0728
14.3848
14.8945
15.6747
13.7386
13.7379
13.7408
13.7564
13.7997
13.8938
14.0727
14.3847
14.8945
15.6747
13.7386
13.7379
13.7408
13.7563
13.7996
13.8938
14.0727
14.3847
14.8944
15.6746
13.7385
13.7378
13.7407
13.7563
13.7996
13.8937
14.0727
14.3847
14.8944
15.6746
13.7385
13.7378
13.7407
13.7563
13.7996
13.8937
14.0726
14.3847
14.8944
15.6746
13.7385
13.7378
13.7407
13.7563
13.7996
13.8937
14.0726
14.3847
14.8944
15.6746
13.7385
13.7378
13.7407
13.7563
13.7996
13.8937
14.0727
14.3847
14.8944
15.6746
13.7386
13.7379
13.7408
13.7563
13.7996
13.8938
14.0727
14.3847
14.8944
15.6746
13.7386
13.7379
13.7408
13.7564
13.7997
13.8938
14.0727
14.3847
14.8945
15.6747
13.7386
13.7379
13.7408
13.7564
13.7997
13.8939
14.0728
14.3848
14.8945
15.6748
11.5936
11.5987
11.6132
11.6462
11.7129
11.8366
12.0531
12.4169
13.0141
13.976
11.5936
11.5987
11.6131
11.6462
11.7128
11.8366
12.053
12.4168
13.014
13.9759
11.5936
11.5986
11.6131
11.6461
11.7128
11.8366
12.053
12.4168
13.014
13.9759
11.5935
11.5986
11.6131
11.6461
11.7128
11.8365
12.053
12.4167
13.0139
13.9759
11.5935
11.5986
11.6131
11.6461
11.7128
11.8365
12.0529
12.4167
13.0139
13.9759
11.5935
11.5986
11.6131
11.6461
11.7128
11.8365
12.0529
12.4167
13.0139
13.9759
11.5935
11.5986
11.6131
11.6461
11.7128
11.8365
12.053
12.4167
13.0139
13.9759
11.5935
11.5986
11.6131
11.6461
11.7128
11.8366
12.053
12.4168
13.014
13.9759
11.5936
11.5987
11.6131
11.6462
11.7128
11.8366
12.053
12.4168
13.014
13.9759
11.5936
11.5987
11.6132
11.6462
11.7129
11.8367
12.0531
12.4169
13.0141
13.976
9.73429
9.74285
9.7639
9.80557
9.88122
10.0112
10.2263
10.5767
11.1576
12.2057
9.73425
9.74282
9.76386
9.80553
9.88118
10.0111
10.2263
10.5766
11.1576
12.2057
9.73423
9.74279
9.76383
9.8055
9.88115
10.0111
10.2262
10.5766
11.1575
12.2057
9.73421
9.74277
9.76381
9.80548
9.88113
10.0111
10.2262
10.5766
11.1575
12.2056
9.7342
9.74276
9.7638
9.80547
9.88112
10.0111
10.2262
10.5766
11.1575
12.2056
9.7342
9.74276
9.7638
9.80547
9.88112
10.0111
10.2262
10.5766
11.1575
12.2056
9.73421
9.74277
9.76381
9.80548
9.88113
10.0111
10.2262
10.5766
11.1575
12.2056
9.73422
9.74279
9.76383
9.8055
9.88115
10.0111
10.2262
10.5766
11.1576
12.2057
9.73425
9.74282
9.76386
9.80553
9.88119
10.0111
10.2263
10.5767
11.1576
12.2057
9.73428
9.74285
9.7639
9.80558
9.88123
10.0112
10.2263
10.5767
11.1577
12.2058
30.8601
29.5595
29.92
31.703
34.8906
39.607
46.1196
54.9027
66.8141
83.5665
30.86
29.5594
29.9199
31.7029
34.8904
39.6068
46.1194
54.9026
66.8139
83.5663
30.8599
29.5593
29.9198
31.7028
34.8904
39.6068
46.1193
54.9025
66.8138
83.5662
30.8599
29.5593
29.9197
31.7027
34.8903
39.6067
46.1193
54.9024
66.8137
83.5661
30.8598
29.5592
29.9197
31.7027
34.8903
39.6067
46.1192
54.9023
66.8137
83.5661
30.8598
29.5592
29.9197
31.7027
34.8903
39.6066
46.1192
54.9023
66.8137
83.5661
30.8599
29.5593
29.9197
31.7027
34.8903
39.6067
46.1192
54.9024
66.8137
83.5661
30.8599
29.5593
29.9198
31.7027
34.8903
39.6067
46.1193
54.9024
66.8138
83.5661
30.8599
29.5593
29.9198
31.7028
34.8904
39.6068
46.1194
54.9025
66.8138
83.5662
30.86
29.5594
29.9199
31.7029
34.8904
39.6069
46.1194
54.9026
66.8139
83.5663
29.0009
28.4905
29.1401
30.992
34.1072
38.6093
44.7013
52.6808
62.9329
75.7763
29.0008
28.4904
29.14
30.9919
34.1071
38.6092
44.7012
52.6807
62.9327
75.7762
29.0007
28.4903
29.14
30.9918
34.107
38.6091
44.7011
52.6806
62.9326
75.7761
29.0007
28.4903
29.1399
30.9918
34.107
38.609
44.701
52.6805
62.9325
75.776
29.0007
28.4903
29.1399
30.9917
34.1069
38.609
44.701
52.6805
62.9325
75.776
29.0007
28.4903
29.1399
30.9917
34.1069
38.609
44.701
52.6804
62.9325
75.7759
29.0007
28.4903
29.1399
30.9917
34.107
38.609
44.701
52.6805
62.9325
75.776
29.0007
28.4903
29.1399
30.9918
34.107
38.6091
44.701
52.6805
62.9326
75.776
29.0008
28.4904
29.14
30.9918
34.1071
38.6091
44.7011
52.6806
62.9327
75.7761
29.0008
28.4904
29.1401
30.9919
34.1072
38.6092
44.7012
52.6807
62.9328
75.7763
26.7427
26.8539
27.7991
29.7084
32.679
36.8158
42.2426
49.0864
57.4124
67.0398
26.7426
26.8538
27.799
29.7083
32.6789
36.8157
42.2425
49.0862
57.4123
67.0396
26.7425
26.8538
27.7989
29.7082
32.6788
36.8156
42.2424
49.0861
57.4122
67.0395
26.7425
26.8537
27.7989
29.7082
32.6787
36.8156
42.2423
49.086
57.4121
67.0395
26.7425
26.8537
27.7989
29.7082
32.6787
36.8155
42.2423
49.086
57.4121
67.0394
26.7425
26.8537
27.7989
29.7081
32.6787
36.8155
42.2423
49.086
57.4121
67.0394
26.7425
26.8537
27.7989
29.7082
32.6787
36.8155
42.2423
49.086
57.4121
67.0394
26.7425
26.8538
27.7989
29.7082
32.6788
36.8156
42.2423
49.0861
57.4122
67.0395
26.7426
26.8538
27.799
29.7083
32.6788
36.8157
42.2424
49.0862
57.4123
67.0396
26.7426
26.8539
27.7991
29.7084
32.6789
36.8158
42.2425
49.0863
57.4124
67.0398
24.4525
24.9737
26.1305
28.0484
30.8191
34.5178
39.2036
44.8974
51.5285
58.835
24.4525
24.9736
26.1304
28.0483
30.819
34.5177
39.2034
44.8972
51.5283
58.8348
24.4524
24.9736
26.1304
28.0482
30.8189
34.5176
39.2033
44.8971
51.5282
58.8347
24.4524
24.9735
26.1303
28.0482
30.8188
34.5176
39.2033
44.8971
51.5282
58.8346
24.4523
24.9735
26.1303
28.0481
30.8188
34.5175
39.2032
44.897
51.5281
58.8346
24.4523
24.9735
26.1303
28.0481
30.8188
34.5175
39.2032
44.897
51.5281
58.8346
24.4523
24.9735
26.1303
28.0481
30.8188
34.5176
39.2033
44.8971
51.5281
58.8346
24.4524
24.9736
26.1303
28.0482
30.8189
34.5176
39.2033
44.8971
51.5282
58.8347
24.4524
24.9736
26.1304
28.0483
30.8189
34.5177
39.2034
44.8972
51.5283
58.8348
24.4525
24.9737
26.1305
28.0484
30.819
34.5178
39.2035
44.8973
51.5284
58.8349
22.2549
23.0426
24.3301
26.2115
28.7553
32.006
35.9788
40.642
45.8871
51.491
22.2548
23.0425
24.33
26.2114
28.7551
32.0059
35.9787
40.6418
45.8869
51.4909
22.2548
23.0424
24.33
26.2113
28.7551
32.0058
35.9786
40.6417
45.8868
51.4908
22.2547
23.0424
24.3299
26.2113
28.755
32.0058
35.9786
40.6417
45.8868
51.4907
22.2547
23.0424
24.3299
26.2112
28.755
32.0058
35.9785
40.6416
45.8867
51.4907
22.2547
23.0424
24.3299
26.2112
28.755
32.0058
35.9785
40.6416
45.8867
51.4907
22.2547
23.0424
24.3299
26.2113
28.755
32.0058
35.9786
40.6417
45.8868
51.4907
22.2548
23.0424
24.3299
26.2113
28.7551
32.0058
35.9786
40.6417
45.8868
51.4908
22.2548
23.0425
24.33
26.2114
28.7551
32.0059
35.9787
40.6418
45.8869
51.4909
22.2549
23.0426
24.3301
26.2115
28.7552
32.006
35.9788
40.642
45.8871
51.491
20.2134
21.1874
22.5552
24.377
26.6958
29.5307
32.8689
36.6553
40.7811
45.0787
20.2133
21.1873
22.5551
24.3769
26.6957
29.5306
32.8688
36.6552
40.781
45.0786
20.2133
21.1872
22.555
24.3769
26.6957
29.5305
32.8687
36.6551
40.7809
45.0785
20.2132
21.1872
22.555
24.3768
26.6956
29.5305
32.8686
36.655
40.7808
45.0784
20.2132
21.1872
22.555
24.3768
26.6956
29.5304
32.8686
36.655
40.7808
45.0784
20.2132
21.1872
22.555
24.3768
26.6956
29.5304
32.8686
36.655
40.7808
45.0784
20.2132
21.1872
22.555
24.3768
26.6956
29.5305
32.8686
36.655
40.7808
45.0784
20.2133
21.1872
22.555
24.3769
26.6957
29.5305
32.8687
36.6551
40.7809
45.0785
20.2133
21.1873
22.5551
24.3769
26.6957
29.5306
32.8688
36.6552
40.781
45.0786
20.2134
21.1874
22.5552
24.377
26.6958
29.5307
32.8689
36.6553
40.7811
45.0787
18.3715
19.5026
20.9338
22.6978
24.8178
27.2946
30.0973
33.1578
36.3716
39.6123
18.3715
19.5026
20.9337
22.6977
24.8177
27.2945
30.0972
33.1576
36.3715
39.6121
18.3714
19.5025
20.9337
22.6976
24.8177
27.2944
30.0971
33.1576
36.3714
39.612
18.3714
19.5025
20.9336
22.6976
24.8176
27.2944
30.097
33.1575
36.3714
39.612
18.3713
19.5024
20.9336
22.6976
24.8176
27.2944
30.097
33.1575
36.3713
39.612
18.3713
19.5024
20.9336
22.6976
24.8176
27.2944
30.097
33.1575
36.3713
39.612
18.3714
19.5025
20.9336
22.6976
24.8176
27.2944
30.0971
33.1575
36.3714
39.612
18.3714
19.5025
20.9337
22.6976
24.8177
27.2944
30.0971
33.1576
36.3714
39.6121
18.3715
19.5026
20.9337
22.6977
24.8177
27.2945
30.0972
33.1577
36.3715
39.6122
18.3715
19.5026
20.9338
22.6978
24.8178
27.2946
30.0973
33.1578
36.3716
39.6123
16.7644
18.069
19.5746
21.3019
23.2667
25.4595
27.836
30.3134
32.7768
35.1075
16.7644
18.0689
19.5745
21.3018
23.2666
25.4594
27.8359
30.3133
32.7767
35.1073
16.7643
18.0689
19.5744
21.3017
23.2665
25.4593
27.8358
30.3132
32.7766
35.1073
16.7643
18.0688
19.5744
21.3017
23.2665
25.4592
27.8357
30.3131
32.7766
35.1072
16.7643
18.0688
19.5744
21.3017
23.2664
25.4592
27.8357
30.3131
32.7765
35.1072
16.7643
18.0688
19.5744
21.3017
23.2664
25.4592
27.8357
30.3131
32.7765
35.1072
16.7643
18.0688
19.5744
21.3017
23.2665
25.4593
27.8357
30.3132
32.7766
35.1072
16.7643
18.0689
19.5744
21.3018
23.2665
25.4593
27.8358
30.3132
32.7766
35.1073
16.7644
18.0689
19.5745
21.3018
23.2666
25.4594
27.8359
30.3133
32.7767
35.1074
16.7645
18.069
19.5746
21.3019
23.2667
25.4595
27.836
30.3134
32.7768
35.1075
15.4353
16.9719
18.5764
20.2962
22.1587
24.1535
26.2254
28.2694
30.131
31.6271
15.4352
16.9718
18.5764
20.2961
22.1586
24.1534
26.2253
28.2693
30.1309
31.627
15.4352
16.9718
18.5763
20.2961
22.1586
24.1534
26.2252
28.2692
30.1308
31.6269
15.4351
16.9717
18.5763
20.296
22.1585
24.1533
26.2251
28.2692
30.1307
31.6268
15.4351
16.9717
18.5763
20.296
22.1585
24.1533
26.2251
28.2692
30.1307
31.6268
15.4351
16.9717
18.5763
20.296
22.1585
24.1533
26.2251
28.2692
30.1307
31.6268
15.4352
16.9717
18.5763
20.2961
22.1585
24.1533
26.2251
28.2692
30.1307
31.6268
15.4352
16.9718
18.5763
20.2961
22.1586
24.1534
26.2252
28.2693
30.1308
31.6269
15.4352
16.9718
18.5764
20.2962
22.1587
24.1535
26.2253
28.2693
30.1309
31.627
15.4353
16.9719
18.5765
20.2963
22.1588
24.1536
26.2254
28.2695
30.131
31.6271
14.5043
16.3318
18.0359
19.7664
21.5804
23.473
25.3816
27.1784
28.6457
29.4095
14.5042
16.3318
18.0359
19.7663
21.5804
23.4729
25.3815
27.1783
28.6456
29.4094
14.5042
16.3317
18.0358
19.7663
21.5803
23.4728
25.3814
27.1783
28.6455
29.4093
14.5041
16.3317
18.0358
19.7662
21.5803
23.4728
25.3814
27.1782
28.6455
29.4093
14.5041
16.3317
18.0358
19.7662
21.5802
23.4728
25.3813
27.1782
28.6454
29.4093
14.5041
16.3317
18.0358
19.7662
21.5803
23.4728
25.3814
27.1782
28.6455
29.4093
14.5041
16.3317
18.0358
19.7663
21.5803
23.4728
25.3814
27.1782
28.6455
29.4093
14.5042
16.3318
18.0358
19.7663
21.5803
23.4728
25.3814
27.1783
28.6455
29.4094
14.5042
16.3318
18.0359
19.7664
21.5804
23.4729
25.3815
27.1784
28.6456
29.4095
14.5043
16.3319
18.036
19.7665
21.5805
23.473
25.3816
27.1785
28.6457
29.4096
109.121
121.213
128.579
133.704
137.474
140.291
142.368
143.838
144.778
145.237
109.121
121.213
128.579
133.703
137.474
140.29
142.368
143.837
144.778
145.237
109.121
121.212
128.578
133.703
137.474
140.29
142.368
143.837
144.778
145.237
109.121
121.212
128.578
133.703
137.474
140.29
142.368
143.837
144.778
145.237
109.121
121.212
128.578
133.703
137.474
140.29
142.368
143.837
144.778
145.237
109.121
121.212
128.578
133.703
137.474
140.29
142.368
143.837
144.778
145.237
109.121
121.212
128.578
133.703
137.474
140.29
142.368
143.837
144.778
145.237
109.121
121.212
128.578
133.703
137.474
140.29
142.368
143.837
144.778
145.237
109.121
121.213
128.579
133.703
137.474
140.29
142.368
143.837
144.778
145.237
109.121
121.213
128.579
133.704
137.474
140.29
142.368
143.838
144.778
145.237
90.5685
101.305
108.862
114.32
118.35
121.347
123.546
125.094
126.082
126.563
90.5684
101.304
108.862
114.32
118.35
121.347
123.546
125.094
126.082
126.563
90.5682
101.304
108.862
114.32
118.35
121.347
123.546
125.094
126.082
126.563
90.5682
101.304
108.862
114.32
118.35
121.347
123.546
125.094
126.082
126.563
90.5681
101.304
108.862
114.319
118.35
121.347
123.546
125.094
126.081
126.563
90.5681
101.304
108.862
114.319
118.35
121.347
123.546
125.094
126.082
126.563
90.5682
101.304
108.862
114.32
118.35
121.347
123.546
125.094
126.082
126.563
90.5682
101.304
108.862
114.32
118.35
121.347
123.546
125.094
126.082
126.563
90.5683
101.304
108.862
114.32
118.35
121.347
123.546
125.094
126.082
126.563
90.5685
101.304
108.862
114.32
118.35
121.347
123.546
125.094
126.082
126.563
77.1208
85.6611
92.3647
97.5094
101.43
104.391
106.581
108.128
109.118
109.601
77.1207
85.661
92.3646
97.5092
101.43
104.391
106.581
108.128
109.118
109.601
77.1206
85.6608
92.3644
97.5091
101.429
104.39
106.581
108.128
109.118
109.6
77.1205
85.6608
92.3643
97.509
101.429
104.39
106.58
108.128
109.118
109.6
77.1204
85.6607
92.3643
97.5089
101.429
104.39
106.58
108.128
109.118
109.6
77.1204
85.6607
92.3643
97.5089
101.429
104.39
106.58
108.128
109.118
109.6
77.1205
85.6607
92.3643
97.509
101.429
104.39
106.58
108.128
109.118
109.6
77.1205
85.6608
92.3644
97.5091
101.429
104.391
106.581
108.128
109.118
109.601
77.1206
85.6609
92.3645
97.5092
101.43
104.391
106.581
108.128
109.118
109.601
77.1208
85.6611
92.3647
97.5093
101.43
104.391
106.581
108.128
109.118
109.601
66.2432
72.9223
78.5275
83.0534
86.6235
89.3813
91.4505
92.9259
93.8746
94.3387
66.2431
72.9222
78.5273
83.0532
86.6234
89.3812
91.4503
92.9258
93.8744
94.3386
66.2429
72.9221
78.5272
83.0531
86.6232
89.381
91.4502
92.9257
93.8743
94.3385
66.2429
72.922
78.5271
83.053
86.6232
89.381
91.4502
92.9256
93.8742
94.3384
66.2428
72.9219
78.5271
83.053
86.6231
89.3809
91.4501
92.9256
93.8742
94.3384
66.2428
72.9219
78.5271
83.053
86.6231
89.3809
91.4501
92.9256
93.8742
94.3384
66.2429
72.922
78.5272
83.053
86.6232
89.381
91.4502
92.9256
93.8743
94.3385
66.2429
72.9221
78.5272
83.0531
86.6233
89.3811
91.4503
92.9257
93.8744
94.3386
66.2431
72.9222
78.5273
83.0532
86.6234
89.3812
91.4504
92.9258
93.8745
94.3387
66.2432
72.9223
78.5275
83.0534
86.6236
89.3814
91.4506
92.926
93.8747
94.3389
57.0987
62.2986
66.8436
70.656
73.7572
76.2087
78.079
79.428
80.3018
80.7312
57.0986
62.2985
66.8435
70.6558
73.757
76.2085
78.0788
79.4278
80.3017
80.7311
57.0985
62.2984
66.8434
70.6557
73.7569
76.2084
78.0787
79.4277
80.3016
80.731
57.0984
62.2983
66.8433
70.6556
73.7568
76.2083
78.0786
79.4276
80.3015
80.7309
57.0984
62.2983
66.8433
70.6556
73.7568
76.2083
78.0786
79.4276
80.3015
80.7309
57.0984
62.2983
66.8433
70.6556
73.7568
76.2083
78.0786
79.4276
80.3015
80.7309
57.0984
62.2983
66.8433
70.6557
73.7568
76.2084
78.0786
79.4277
80.3015
80.731
57.0985
62.2984
66.8434
70.6557
73.7569
76.2084
78.0787
79.4278
80.3016
80.7311
57.0986
62.2985
66.8435
70.6559
73.757
76.2086
78.0789
79.4279
80.3018
80.7312
57.0987
62.2986
66.8437
70.656
73.7572
76.2087
78.079
79.4281
80.302
80.7314
49.3351
53.3373
56.9306
60.0351
62.6293
64.7262
66.3536
67.5424
68.319
68.7025
49.335
53.3372
56.9305
60.035
62.6292
64.726
66.3535
67.5422
68.3189
68.7024
49.3349
53.3371
56.9304
60.0349
62.6291
64.7259
66.3533
67.5421
68.3188
68.7023
49.3348
53.337
56.9303
60.0348
62.629
64.7258
66.3533
67.5421
68.3187
68.7023
49.3348
53.337
56.9303
60.0347
62.629
64.7258
66.3532
67.542
68.3187
68.7022
49.3348
53.337
56.9303
60.0348
62.629
64.7258
66.3533
67.542
68.3187
68.7023
49.3348
53.337
56.9303
60.0348
62.629
64.7258
66.3533
67.5421
68.3188
68.7023
49.3349
53.3371
56.9304
60.0349
62.6291
64.7259
66.3534
67.5422
68.3189
68.7024
49.335
53.3372
56.9305
60.035
62.6292
64.7261
66.3535
67.5423
68.319
68.7025
49.3351
53.3373
56.9306
60.0351
62.6294
64.7262
66.3537
67.5425
68.3192
68.7027
42.7637
45.753
48.5019
50.9445
53.0403
54.7729
56.1418
57.1552
57.8234
58.1551
42.7635
45.7529
48.5018
50.9444
53.0402
54.7727
56.1416
57.155
57.8233
58.155
42.7635
45.7528
48.5017
50.9443
53.0401
54.7726
56.1415
57.1549
57.8232
58.1549
42.7634
45.7527
48.5016
50.9442
53.04
54.7725
56.1415
57.1549
57.8231
58.1549
42.7634
45.7527
48.5016
50.9442
53.04
54.7725
56.1415
57.1549
57.8231
58.1549
42.7634
45.7527
48.5016
50.9442
53.04
54.7725
56.1415
57.1549
57.8231
58.1549
42.7634
45.7527
48.5016
50.9442
53.04
54.7726
56.1415
57.1549
57.8232
58.1549
42.7635
45.7528
48.5017
50.9443
53.0401
54.7727
56.1416
57.155
57.8232
58.155
42.7636
45.7529
48.5018
50.9444
53.0402
54.7728
56.1417
57.1551
57.8234
58.1551
42.7637
45.753
48.5019
50.9445
53.0404
54.7729
56.1419
57.1553
57.8235
58.1553
37.2541
39.3338
41.327
43.1691
44.8019
46.1866
47.3025
48.1405
48.6986
48.9772
37.254
39.3336
41.3269
43.169
44.8018
46.1865
47.3023
48.1404
48.6984
48.9771
37.2539