/*--------------------------------*- C++ -*----------------------------------*\
  =========                 |
  \\      /  F ield         | OpenFOAM: The Open Source CFD Toolbox
   \\    /   O peration     | Website:  https://openfoam.org
    \\  /    A nd           | Version:  6
     \\/     M anipulation  |
\*---------------------------------------------------------------------------*/
FoamFile
{
    version     2.0;
    format      ascii;
    class       volScalarField;
    location    "0.865";
    object      T;
}
// * * * * * * * * * * * * * * * * * * * * * * * * * * * * * * * * * * * * * //

dimensions      [0 0 0 1 0 0 0];

internalField   nonuniform List<scalar> 
7000
(
106.555
106.553
106.551
106.547
106.543
106.538
106.533
106.528
106.525
106.523
106.555
106.553
106.551
106.547
106.543
106.538
106.533
106.528
106.525
106.523
106.555
106.553
106.551
106.547
106.543
106.538
106.533
106.528
106.525
106.523
106.555
106.553
106.551
106.547
106.542
106.538
106.533
106.528
106.525
106.523
106.555
106.553
106.551
106.547
106.542
106.538
106.533
106.528
106.525
106.523
106.555
106.553
106.551
106.547
106.542
106.538
106.533
106.528
106.525
106.523
106.555
106.553
106.551
106.547
106.542
106.538
106.533
106.528
106.525
106.523
106.555
106.553
106.551
106.547
106.542
106.538
106.533
106.528
106.525
106.523
106.555
106.553
106.551
106.547
106.543
106.538
106.533
106.528
106.525
106.523
106.555
106.553
106.551
106.547
106.543
106.538
106.533
106.528
106.525
106.523
99.6856
99.6814
99.6734
99.662
99.6481
99.6329
99.6177
99.6043
99.5942
99.5888
99.6856
99.6814
99.6733
99.662
99.6481
99.6329
99.6177
99.6043
99.5942
99.5887
99.6856
99.6814
99.6733
99.6619
99.6481
99.6328
99.6177
99.6043
99.5942
99.5887
99.6855
99.6814
99.6733
99.6619
99.6481
99.6328
99.6177
99.6043
99.5942
99.5887
99.6855
99.6814
99.6733
99.6619
99.6481
99.6328
99.6177
99.6043
99.5942
99.5887
99.6855
99.6814
99.6733
99.6619
99.6481
99.6328
99.6177
99.6043
99.5942
99.5887
99.6855
99.6814
99.6733
99.6619
99.6481
99.6328
99.6177
99.6043
99.5942
99.5887
99.6855
99.6814
99.6733
99.6619
99.6481
99.6328
99.6177
99.6043
99.5942
99.5887
99.6855
99.6814
99.6733
99.6619
99.6481
99.6328
99.6177
99.6043
99.5942
99.5887
99.6856
99.6814
99.6733
99.6619
99.6481
99.6328
99.6177
99.6043
99.5942
99.5887
92.8793
92.8722
92.8585
92.839
92.8152
92.7888
92.7624
92.7388
92.7209
92.7111
92.8792
92.8722
92.8585
92.839
92.8151
92.7888
92.7624
92.7388
92.7208
92.7111
92.8792
92.8722
92.8585
92.839
92.8151
92.7888
92.7624
92.7388
92.7208
92.7111
92.8792
92.8721
92.8584
92.839
92.8151
92.7888
92.7624
92.7387
92.7208
92.7111
92.8792
92.8721
92.8584
92.839
92.8151
92.7888
92.7624
92.7387
92.7208
92.7111
92.8792
92.8721
92.8584
92.839
92.8151
92.7888
92.7624
92.7387
92.7208
92.7111
92.8792
92.8721
92.8584
92.839
92.8151
92.7888
92.7624
92.7387
92.7208
92.7111
92.8792
92.8721
92.8584
92.839
92.8151
92.7888
92.7624
92.7388
92.7208
92.7111
92.8792
92.8722
92.8585
92.839
92.8151
92.7888
92.7624
92.7388
92.7208
92.7111
92.8792
92.8722
92.8585
92.839
92.8151
92.7888
92.7624
92.7388
92.7208
92.7111
86.1771
86.167
86.1473
86.1191
86.0843
86.0454
86.0058
85.9699
85.9423
85.9272
86.1771
86.167
86.1473
86.1191
86.0842
86.0453
86.0058
85.9699
85.9423
85.9272
86.1771
86.1669
86.1472
86.1191
86.0842
86.0453
86.0058
85.9699
85.9423
85.9272
86.1771
86.1669
86.1472
86.119
86.0842
86.0453
86.0058
85.9699
85.9423
85.9271
86.1771
86.1669
86.1472
86.119
86.0842
86.0453
86.0058
85.9699
85.9422
85.9271
86.1771
86.1669
86.1472
86.119
86.0842
86.0453
86.0058
85.9699
85.9422
85.9271
86.1771
86.1669
86.1472
86.119
86.0842
86.0453
86.0058
85.9699
85.9423
85.9271
86.1771
86.1669
86.1472
86.119
86.0842
86.0453
86.0058
85.9699
85.9423
85.9272
86.1771
86.1669
86.1472
86.1191
86.0842
86.0453
86.0058
85.9699
85.9423
85.9272
86.1771
86.167
86.1472
86.1191
86.0842
86.0453
86.0058
85.9699
85.9423
85.9272
79.6192
79.6059
79.5798
79.5422
79.4952
79.4418
79.3864
79.335
79.2945
79.2719
79.6192
79.6058
79.5798
79.5422
79.4952
79.4417
79.3864
79.3349
79.2945
79.2719
79.6192
79.6058
79.5798
79.5422
79.4951
79.4417
79.3864
79.3349
79.2944
79.2719
79.6191
79.6058
79.5797
79.5422
79.4951
79.4417
79.3863
79.3349
79.2944
79.2719
79.6191
79.6058
79.5797
79.5422
79.4951
79.4417
79.3863
79.3349
79.2944
79.2718
79.6191
79.6058
79.5797
79.5422
79.4951
79.4417
79.3863
79.3349
79.2944
79.2718
79.6191
79.6058
79.5797
79.5422
79.4951
79.4417
79.3863
79.3349
79.2944
79.2718
79.6191
79.6058
79.5797
79.5422
79.4951
79.4417
79.3863
79.3349
79.2944
79.2719
79.6191
79.6058
79.5798
79.5422
79.4951
79.4417
79.3864
79.3349
79.2944
79.2719
79.6192
79.6058
79.5798
79.5422
79.4952
79.4417
79.3864
79.335
79.2945
79.2719
73.2438
73.2273
73.1948
73.1473
73.0869
73.0168
72.942
72.87
72.8113
72.7775
73.2438
73.2273
73.1947
73.1473
73.0869
73.0168
72.9419
72.87
72.8113
72.7775
73.2438
73.2272
73.1947
73.1473
73.0869
73.0167
72.9419
72.87
72.8113
72.7774
73.2438
73.2272
73.1947
73.1472
73.0868
73.0167
72.9419
72.87
72.8112
72.7774
73.2437
73.2272
73.1947
73.1472
73.0868
73.0167
72.9419
72.87
72.8112
72.7774
73.2437
73.2272
73.1947
73.1472
73.0868
73.0167
72.9419
72.87
72.8112
72.7774
73.2437
73.2272
73.1947
73.1472
73.0868
73.0167
72.9419
72.87
72.8112
72.7774
73.2438
73.2272
73.1947
73.1472
73.0869
73.0167
72.9419
72.87
72.8113
72.7774
73.2438
73.2272
73.1947
73.1473
73.0869
73.0167
72.9419
72.87
72.8113
72.7775
73.2438
73.2273
73.1947
73.1473
73.0869
73.0168
72.9419
72.87
72.8113
72.7775
67.0871
67.0676
67.029
66.9719
66.8976
66.8088
66.7102
66.6105
66.5243
66.4716
67.087
67.0676
67.0289
66.9718
66.8976
66.8087
66.7101
66.6105
66.5242
66.4716
67.087
67.0675
67.0289
66.9718
66.8976
66.8087
66.7101
66.6105
66.5242
66.4716
67.087
67.0675
67.0289
66.9718
66.8975
66.8087
66.7101
66.6104
66.5242
66.4716
67.087
67.0675
67.0289
66.9718
66.8975
66.8087
66.7101
66.6104
66.5242
66.4716
67.087
67.0675
67.0289
66.9718
66.8975
66.8087
66.7101
66.6104
66.5242
66.4716
67.087
67.0675
67.0289
66.9718
66.8975
66.8087
66.7101
66.6104
66.5242
66.4716
67.087
67.0675
67.0289
66.9718
66.8975
66.8087
66.7101
66.6104
66.5242
66.4716
67.087
67.0675
67.0289
66.9718
66.8976
66.8087
66.7101
66.6105
66.5242
66.4716
67.087
67.0676
67.029
66.9718
66.8976
66.8088
66.7102
66.6105
66.5243
66.4716
61.182
61.1603
61.1169
61.0516
60.9646
60.8565
60.7299
60.5926
60.4623
60.374
61.182
61.1603
61.1168
61.0516
60.9645
60.8564
60.7299
60.5925
60.4622
60.374
61.1819
61.1602
61.1168
61.0515
60.9645
60.8564
60.7299
60.5925
60.4622
60.374
61.1819
61.1602
61.1168
61.0515
60.9645
60.8564
60.7298
60.5925
60.4622
60.3739
61.1819
61.1602
61.1168
61.0515
60.9645
60.8563
60.7298
60.5924
60.4621
60.3739
61.1819
61.1602
61.1168
61.0515
60.9644
60.8563
60.7298
60.5924
60.4621
60.3739
61.1819
61.1602
61.1168
61.0515
60.9645
60.8564
60.7298
60.5925
60.4622
60.3739
61.1819
61.1602
61.1168
61.0515
60.9645
60.8564
60.7299
60.5925
60.4622
60.3739
61.1819
61.1602
61.1168
61.0515
60.9645
60.8564
60.7299
60.5925
60.4622
60.374
61.182
61.1603
61.1168
61.0516
60.9645
60.8564
60.7299
60.5925
60.4622
60.374
55.5579
55.5352
55.4895
55.4197
55.324
55.1997
55.0441
54.8576
54.654
54.4877
55.5578
55.5352
55.4895
55.4197
55.3239
55.1997
55.0441
54.8575
54.654
54.4876
55.5578
55.5352
55.4895
55.4197
55.3239
55.1996
55.044
54.8575
54.654
54.4876
55.5578
55.5351
55.4894
55.4196
55.3239
55.1996
55.044
54.8575
54.6539
54.4876
55.5578
55.5351
55.4894
55.4196
55.3239
55.1996
55.044
54.8575
54.6539
54.4875
55.5578
55.5351
55.4894
55.4196
55.3239
55.1996
55.044
54.8575
54.6539
54.4875
55.5578
55.5351
55.4894
55.4196
55.3239
55.1996
55.044
54.8575
54.6539
54.4876
55.5578
55.5351
55.4894
55.4196
55.3239
55.1996
55.044
54.8575
54.654
54.4876
55.5578
55.5352
55.4895
55.4197
55.3239
55.1996
55.044
54.8575
54.654
54.4876
55.5578
55.5352
55.4895
55.4197
55.324
55.1997
55.0441
54.8576
54.654
54.4877
50.2391
50.2176
50.1737
50.1058
50.0101
49.8798
49.7035
49.4635
49.1418
48.7747
50.2391
50.2175
50.1737
50.1057
50.01
49.8798
49.7035
49.4634
49.1417
48.7746
50.239
50.2175
50.1736
50.1057
50.01
49.8797
49.7035
49.4634
49.1417
48.7746
50.239
50.2174
50.1736
50.1057
50.0099
49.8797
49.7034
49.4634
49.1417
48.7746
50.239
50.2174
50.1736
50.1057
50.0099
49.8797
49.7034
49.4634
49.1416
48.7745
50.239
50.2174
50.1736
50.1057
50.0099
49.8797
49.7034
49.4634
49.1416
48.7745
50.239
50.2174
50.1736
50.1057
50.0099
49.8797
49.7034
49.4634
49.1416
48.7746
50.239
50.2175
50.1736
50.1057
50.01
49.8797
49.7034
49.4634
49.1417
48.7746
50.239
50.2175
50.1737
50.1057
50.01
49.8797
49.7035
49.4634
49.1417
48.7746
50.2391
50.2175
50.1737
50.1058
50.01
49.8798
49.7035
49.4635
49.1418
48.7747
45.2444
45.2265
45.1901
45.1333
45.0518
44.9366
44.769
44.5068
44.0457
43.0792
45.2443
45.2265
45.1901
45.1332
45.0517
44.9366
44.769
44.5068
44.0457
43.0792
45.2443
45.2264
45.19
45.1332
45.0517
44.9365
44.7689
44.5067
44.0456
43.0791
45.2443
45.2264
45.19
45.1331
45.0516
44.9365
44.7689
44.5067
44.0456
43.0791
45.2443
45.2264
45.19
45.1331
45.0516
44.9365
44.7689
44.5067
44.0456
43.0791
45.2443
45.2264
45.19
45.1331
45.0516
44.9365
44.7689
44.5067
44.0456
43.0791
45.2443
45.2264
45.19
45.1331
45.0516
44.9365
44.7689
44.5067
44.0456
43.0791
45.2443
45.2264
45.19
45.1332
45.0517
44.9365
44.7689
44.5067
44.0456
43.0791
45.2443
45.2264
45.19
45.1332
45.0517
44.9366
44.7689
44.5068
44.0456
43.0791
45.2443
45.2265
45.1901
45.1332
45.0517
44.9366
44.769
44.5068
44.0457
43.0792
40.5858
40.5745
40.5516
40.5166
40.4672
40.3976
40.2951
40.1334
39.8627
39.4107
40.5858
40.5744
40.5516
40.5166
40.4672
40.3976
40.2951
40.1333
39.8627
39.4106
40.5857
40.5744
40.5515
40.5165
40.4671
40.3975
40.295
40.1333
39.8626
39.4106
40.5857
40.5743
40.5515
40.5165
40.4671
40.3975
40.295
40.1332
39.8626
39.4106
40.5857
40.5743
40.5515
40.5165
40.4671
40.3975
40.295
40.1332
39.8626
39.4105
40.5857
40.5743
40.5515
40.5165
40.4671
40.3975
40.295
40.1332
39.8626
39.4105
40.5857
40.5743
40.5515
40.5165
40.4671
40.3975
40.295
40.1332
39.8626
39.4105
40.5857
40.5743
40.5515
40.5165
40.4671
40.3975
40.295
40.1333
39.8626
39.4106
40.5857
40.5744
40.5516
40.5166
40.4671
40.3976
40.295
40.1333
39.8626
39.4106
40.5858
40.5744
40.5516
40.5166
40.4672
40.3976
40.2951
40.1334
39.8627
39.4107
36.2685
36.2662
36.2625
36.2589
36.2574
36.2593
36.2649
36.2743
36.2934
36.3616
36.2685
36.2661
36.2624
36.2589
36.2573
36.2592
36.2649
36.2742
36.2933
36.3616
36.2684
36.2661
36.2624
36.2588
36.2573
36.2592
36.2648
36.2742
36.2933
36.3615
36.2684
36.2661
36.2624
36.2588
36.2573
36.2591
36.2648
36.2741
36.2932
36.3615
36.2684
36.2661
36.2623
36.2588
36.2573
36.2591
36.2648
36.2741
36.2932
36.3614
36.2684
36.2661
36.2623
36.2588
36.2573
36.2591
36.2648
36.2741
36.2932
36.3614
36.2684
36.2661
36.2624
36.2588
36.2573
36.2591
36.2648
36.2741
36.2932
36.3615
36.2684
36.2661
36.2624
36.2588
36.2573
36.2592
36.2648
36.2742
36.2933
36.3615
36.2684
36.2661
36.2624
36.2589
36.2573
36.2592
36.2648
36.2742
36.2933
36.3615
36.2685
36.2662
36.2625
36.2589
36.2574
36.2593
36.2649
36.2743
36.2934
36.3616
32.291
32.2993
32.3184
32.3525
32.4084
32.4957
32.6277
32.8247
33.1219
33.5875
32.2909
32.2993
32.3183
32.3524
32.4084
32.4957
32.6277
32.8247
33.1219
33.5874
32.2909
32.2993
32.3183
32.3524
32.4083
32.4956
32.6276
32.8246
33.1218
33.5873
32.2908
32.2992
32.3183
32.3524
32.4083
32.4956
32.6276
32.8246
33.1218
33.5873
32.2908
32.2992
32.3183
32.3523
32.4083
32.4956
32.6276
32.8246
33.1218
33.5873
32.2908
32.2992
32.3182
32.3523
32.4083
32.4956
32.6276
32.8246
33.1218
33.5873
32.2908
32.2992
32.3183
32.3524
32.4083
32.4956
32.6276
32.8246
33.1218
33.5873
32.2908
32.2992
32.3183
32.3524
32.4083
32.4956
32.6276
32.8246
33.1218
33.5873
32.2909
32.2993
32.3183
32.3524
32.4084
32.4957
32.6277
32.8247
33.1219
33.5874
32.2909
32.2993
32.3184
32.3525
32.4084
32.4957
32.6277
32.8247
33.1219
33.5874
28.6458
28.6654
28.7083
28.7817
28.8972
29.0717
29.3287
29.7014
30.2364
31.0004
28.6457
28.6654
28.7082
28.7816
28.8972
29.0716
29.3286
29.7013
30.2363
31.0004
28.6457
28.6653
28.7082
28.7816
28.8971
29.0716
29.3286
29.7012
30.2362
31.0003
28.6456
28.6653
28.7082
28.7816
28.8971
29.0715
29.3286
29.7012
30.2362
31.0003
28.6456
28.6653
28.7082
28.7816
28.8971
29.0715
29.3286
29.7012
30.2362
31.0003
28.6456
28.6653
28.7082
28.7816
28.8971
29.0715
29.3286
29.7012
30.2362
31.0003
28.6456
28.6653
28.7082
28.7816
28.8971
29.0715
29.3286
29.7012
30.2362
31.0003
28.6457
28.6653
28.7082
28.7816
28.8971
29.0716
29.3286
29.7012
30.2362
31.0003
28.6457
28.6653
28.7082
28.7816
28.8972
29.0716
29.3286
29.7013
30.2363
31.0004
28.6457
28.6654
28.7083
28.7817
28.8972
29.0717
29.3287
29.7013
30.2364
31.0004
25.3212
25.3513
25.4164
25.5262
25.6964
25.9499
26.3182
26.8432
27.5772
28.5795
25.3211
25.3513
25.4164
25.5262
25.6964
25.9498
26.3181
26.8431
27.5771
28.5795
25.3211
25.3512
25.4164
25.5262
25.6964
25.9498
26.3181
26.8431
27.577
28.5794
25.321
25.3512
25.4163
25.5261
25.6963
25.9498
26.3181
26.8431
27.577
28.5794
25.321
25.3512
25.4163
25.5261
25.6963
25.9498
26.3181
26.843
27.577
28.5794
25.321
25.3512
25.4163
25.5261
25.6963
25.9498
26.3181
26.843
27.577
28.5793
25.321
25.3512
25.4163
25.5261
25.6963
25.9498
26.3181
26.8431
27.577
28.5794
25.3211
25.3512
25.4163
25.5261
25.6963
25.9498
26.3181
26.8431
27.577
28.5794
25.3211
25.3513
25.4164
25.5262
25.6964
25.9498
26.3181
26.8431
27.5771
28.5795
25.3211
25.3513
25.4164
25.5262
25.6964
25.9499
26.3182
26.8432
27.5772
28.5795
22.3024
22.3412
22.4245
22.5637
22.7777
23.0941
23.5512
24.1998
25.1011
26.3153
22.3024
22.3412
22.4244
22.5637
22.7777
23.094
23.5511
24.1997
25.101
26.3153
22.3023
22.3412
22.4244
22.5636
22.7776
23.094
23.5511
24.1997
25.1009
26.3152
22.3023
22.3411
22.4244
22.5636
22.7776
23.0939
23.551
24.1997
25.1009
26.3152
22.3023
22.3411
22.4244
22.5636
22.7776
23.0939
23.551
24.1996
25.1009
26.3152
22.3023
22.3411
22.4244
22.5636
22.7776
23.0939
23.551
24.1996
25.1009
26.3152
22.3023
22.3411
22.4244
22.5636
22.7776
23.0939
23.551
24.1997
25.1009
26.3152
22.3023
22.3412
22.4244
22.5636
22.7776
23.094
23.5511
24.1997
25.1009
26.3152
22.3024
22.3412
22.4244
22.5637
22.7777
23.094
23.5511
24.1997
25.101
26.3153
22.3024
22.3412
22.4245
22.5637
22.7777
23.094
23.5512
24.1998
25.1011
26.3153
19.5735
19.6181
19.7135
19.8719
20.1139
20.4699
20.9841
21.7186
22.7548
24.1811
19.5734
19.6181
19.7134
19.8719
20.1138
20.4698
20.9841
21.7186
22.7547
24.181
19.5734
19.6181
19.7134
19.8718
20.1138
20.4698
20.984
21.7185
22.7547
24.181
19.5733
19.618
19.7134
19.8718
20.1137
20.4697
20.984
21.7185
22.7546
24.1809
19.5733
19.618
19.7134
19.8718
20.1137
20.4697
20.984
21.7185
22.7546
24.1809
19.5733
19.618
19.7134
19.8718
20.1137
20.4697
20.984
21.7185
22.7546
24.1809
19.5733
19.618
19.7134
19.8718
20.1137
20.4697
20.984
21.7185
22.7546
24.1809
19.5734
19.6181
19.7134
19.8718
20.1138
20.4698
20.984
21.7185
22.7547
24.181
19.5734
19.6181
19.7134
19.8719
20.1138
20.4698
20.9841
21.7186
22.7547
24.181
19.5734
19.6181
19.7135
19.8719
20.1139
20.4699
20.9841
21.7186
22.7548
24.1811
17.1181
17.1654
17.2657
17.4311
17.6816
18.0476
18.5754
19.337
20.4475
22.0864
17.118
17.1653
17.2656
17.431
17.6815
18.0475
18.5754
19.337
20.4474
22.0863
17.118
17.1653
17.2656
17.431
17.6815
18.0475
18.5754
19.3369
20.4474
22.0863
17.118
17.1652
17.2656
17.431
17.6814
18.0475
18.5753
19.3369
20.4473
22.0862
17.118
17.1652
17.2655
17.431
17.6814
18.0474
18.5753
19.3369
20.4473
22.0862
17.118
17.1652
17.2655
17.431
17.6814
18.0474
18.5753
19.3369
20.4473
22.0862
17.118
17.1652
17.2656
17.431
17.6814
18.0475
18.5753
19.3369
20.4473
22.0862
17.118
17.1653
17.2656
17.431
17.6815
18.0475
18.5754
19.3369
20.4474
22.0863
17.118
17.1653
17.2656
17.431
17.6815
18.0475
18.5754
19.337
20.4474
22.0863
17.1181
17.1653
17.2657
17.4311
17.6816
18.0476
18.5755
19.337
20.4475
22.0864
14.9212
14.9677
15.0658
15.2258
15.4646
15.8078
16.2944
16.9893
18.0215
19.7272
14.9211
14.9677
15.0658
15.2258
15.4646
15.8078
16.2944
16.9892
18.0214
19.7271
14.9211
14.9676
15.0657
15.2258
15.4646
15.8077
16.2943
16.9892
18.0214
19.7271
14.9211
14.9676
15.0657
15.2257
15.4645
15.8077
16.2943
16.9892
18.0214
19.7271
14.921
14.9676
15.0657
15.2257
15.4645
15.8077
16.2943
16.9892
18.0213
19.7271
14.921
14.9676
15.0657
15.2257
15.4645
15.8077
16.2943
16.9892
18.0213
19.7271
14.9211
14.9676
15.0657
15.2257
15.4645
15.8077
16.2943
16.9892
18.0214
19.7271
14.9211
14.9676
15.0657
15.2258
15.4646
15.8077
16.2943
16.9892
18.0214
19.7271
14.9211
14.9677
15.0658
15.2258
15.4646
15.8078
16.2944
16.9892
18.0214
19.7271
14.9211
14.9677
15.0658
15.2258
15.4647
15.8078
16.2944
16.9893
18.0215
19.7272
40.5271
40.1994
41.4606
44.1094
48.1401
53.6772
60.9813
70.5148
83.1171
100.474
40.5271
40.1993
41.4605
44.1093
48.14
53.6771
60.9812
70.5147
83.117
100.474
40.527
40.1993
41.4604
44.1092
48.1399
53.677
60.9811
70.5146
83.1169
100.474
40.527
40.1992
41.4604
44.1092
48.1399
53.6769
60.9811
70.5145
83.1169
100.474
40.5269
40.1992
41.4604
44.1092
48.1398
53.6769
60.981
70.5145
83.1168
100.474
40.5269
40.1992
41.4603
44.1092
48.1398
53.6769
60.981
70.5145
83.1168
100.474
40.5269
40.1992
41.4604
44.1092
48.1398
53.6769
60.981
70.5145
83.1168
100.474
40.527
40.1992
41.4604
44.1092
48.1399
53.677
60.9811
70.5145
83.1169
100.474
40.527
40.1993
41.4604
44.1093
48.1399
53.677
60.9812
70.5146
83.117
100.474
40.5271
40.1993
41.4605
44.1093
48.14
53.6771
60.9812
70.5147
83.117
100.474
38.8066
39.1658
40.6742
43.3714
47.3172
52.6306
59.5062
68.2298
79.1715
92.6316
38.8065
39.1657
40.6741
43.3713
47.3171
52.6305
59.5061
68.2297
79.1713
92.6315
38.8064
39.1657
40.674
43.3712
47.3171
52.6304
59.506
68.2296
79.1712
92.6314
38.8064
39.1656
40.674
43.3712
47.317
52.6303
59.5059
68.2296
79.1712
92.6313
38.8064
39.1656
40.674
43.3711
47.317
52.6303
59.5059
68.2295
79.1711
92.6313
38.8064
39.1656
40.674
43.3711
47.317
52.6303
59.5059
68.2295
79.1711
92.6313
38.8064
39.1656
40.674
43.3711
47.317
52.6303
59.5059
68.2296
79.1712
92.6313
38.8064
39.1656
40.674
43.3712
47.317
52.6304
59.506
68.2296
79.1712
92.6314
38.8065
39.1657
40.6741
43.3712
47.3171
52.6304
59.506
68.2297
79.1713
92.6315
38.8065
39.1658
40.6741
43.3713
47.3172
52.6305
59.5061
68.2298
79.1714
92.6316
36.6356
37.5415
39.3011
42.0283
45.8097
50.7412
56.936
64.51
73.5158
83.7603
36.6355
37.5414
39.301
42.0282
45.8096
50.741
56.9359
64.5098
73.5157
83.7601
36.6354
37.5414
39.301
42.0281
45.8095
50.741
56.9358
64.5098
73.5156
83.7601
36.6354
37.5413
39.3009
42.028
45.8095
50.7409
56.9358
64.5097
73.5156
83.76
36.6354
37.5413
39.3009
42.028
45.8095
50.7409
56.9357
64.5097
73.5155
83.76
36.6354
37.5413
39.3009
42.028
45.8095
50.7409
56.9357
64.5097
73.5155
83.76
36.6354
37.5413
39.3009
42.028
45.8095
50.7409
56.9357
64.5097
73.5155
83.76
36.6354
37.5414
39.3009
42.0281
45.8095
50.7409
56.9358
64.5097
73.5156
83.76
36.6355
37.5414
39.301
42.0281
45.8096
50.741
56.9359
64.5098
73.5157
83.7601
36.6356
37.5415
39.3011
42.0282
45.8097
50.7411
56.936
64.5099
73.5158
83.7602
34.3526
35.6249
37.563
40.2733
43.8331
48.3052
53.7371
60.1385
67.4283
75.3359
34.3525
35.6248
37.5629
40.2732
43.833
48.3051
53.737
60.1384
67.4282
75.3357
34.3525
35.6247
37.5628
40.2731
43.8329
48.3051
53.7369
60.1383
67.4281
75.3356
34.3524
35.6247
37.5628
40.2731
43.8329
48.305
53.7368
60.1383
67.428
75.3356
34.3524
35.6246
37.5628
40.2731
43.8328
48.305
53.7368
60.1382
67.428
75.3355
34.3524
35.6246
37.5628
40.2731
43.8328
48.305
53.7368
60.1382
67.428
75.3355
34.3524
35.6247
37.5628
40.2731
43.8328
48.305
53.7368
60.1383
67.428
75.3356
34.3525
35.6247
37.5628
40.2731
43.8329
48.305
53.7369
60.1383
67.4281
75.3356
34.3525
35.6248
37.5629
40.2732
43.833
48.3051
53.737
60.1384
67.4282
75.3357
34.3526
35.6248
37.563
40.2733
43.8331
48.3052
53.7371
60.1385
67.4283
75.3358
32.0858
33.6044
35.6541
38.3092
41.6218
45.6228
50.3147
55.6547
61.5254
67.6977
32.0857
33.6043
35.654
38.3091
41.6217
45.6227
50.3146
55.6546
61.5253
67.6976
32.0857
33.6042
35.6539
38.309
41.6216
45.6226
50.3145
55.6545
61.5252
67.6975
32.0856
33.6042
35.6539
38.3089
41.6216
45.6226
50.3145
55.6545
61.5251
67.6974
32.0856
33.6042
35.6539
38.3089
41.6216
45.6226
50.3144
55.6544
61.5251
67.6974
32.0856
33.6042
35.6539
38.3089
41.6216
45.6226
50.3144
55.6544
61.5251
67.6974
32.0856
33.6042
35.6539
38.3089
41.6216
45.6226
50.3144
55.6544
61.5251
67.6974
32.0857
33.6042
35.6539
38.309
41.6216
45.6226
50.3145
55.6545
61.5252
67.6975
32.0857
33.6043
35.654
38.309
41.6217
45.6227
50.3146
55.6546
61.5253
67.6976
32.0858
33.6044
35.6541
38.3091
41.6218
45.6228
50.3147
55.6547
61.5254
67.6977
29.9087
31.6132
33.7386
36.3241
39.3957
42.9578
46.9846
51.4099
56.1165
60.9331
29.9086
31.6131
33.7385
36.324
39.3956
42.9577
46.9845
51.4098
56.1164
60.9329
29.9085
31.613
33.7384
36.324
39.3956
42.9576
46.9845
51.4097
56.1163
60.9328
29.9085
31.613
33.7384
36.3239
39.3955
42.9576
46.9844
51.4097
56.1163
60.9328
29.9085
31.613
33.7383
36.3239
39.3955
42.9576
46.9844
51.4096
56.1162
60.9328
29.9085
31.613
33.7383
36.3239
39.3955
42.9575
46.9844
51.4096
56.1162
60.9328
29.9085
31.613
33.7384
36.3239
39.3955
42.9576
46.9844
51.4097
56.1163
60.9328
29.9085
31.613
33.7384
36.324
39.3956
42.9576
46.9845
51.4097
56.1163
60.9329
29.9086
31.6131
33.7385
36.324
39.3956
42.9577
46.9845
51.4098
56.1164
60.9329
29.9087
31.6132
33.7385
36.3241
39.3957
42.9578
46.9846
51.4099
56.1165
60.9331
27.8751
29.7574
31.9573
34.4852
37.3475
40.5305
43.99
47.6459
51.3847
55.0772
27.875
29.7573
31.9572
34.4851
37.3474
40.5304
43.9899
47.6458
51.3846
55.0771
27.8749
29.7573
31.9571
34.485
37.3473
40.5304
43.9899
47.6457
51.3845
55.077
27.8749
29.7572
31.9571
34.485
37.3473
40.5303
43.9898
47.6457
51.3844
55.077
27.8749
29.7572
31.9571
34.485
37.3473
40.5303
43.9898
47.6456
51.3844
55.077
27.8749
29.7572
31.9571
34.485
37.3473
40.5303
43.9898
47.6456
51.3844
55.077
27.8749
29.7572
31.9571
34.485
37.3473
40.5303
43.9898
47.6457
51.3844
55.077
27.8749
29.7573
31.9571
34.485
37.3473
40.5304
43.9899
47.6457
51.3845
55.077
27.875
29.7573
31.9572
34.4851
37.3474
40.5304
43.9899
47.6458
51.3846
55.0771
27.8751
29.7574
31.9573
34.4852
37.3475
40.5305
43.99
47.6459
51.3847
55.0773
26.0307
28.1343
30.437
32.9387
35.6415
38.5232
41.526
44.5528
47.476
50.1715
26.0307
28.1343
30.4369
32.9386
35.6414
38.5231
41.5259
44.5527
47.4759
50.1714
26.0306
28.1342
30.4369
32.9386
35.6413
38.523
41.5258
44.5526
47.4758
50.1713
26.0306
28.1342
30.4368
32.9385
35.6413
38.523
41.5257
44.5526
47.4758
50.1712
26.0306
28.1341
30.4368
32.9385
35.6412
38.5229
41.5257
44.5525
47.4758
50.1712
26.0306
28.1341
30.4368
32.9385
35.6412
38.5229
41.5257
44.5525
47.4758
50.1712
26.0306
28.1342
30.4368
32.9385
35.6413
38.523
41.5258
44.5526
47.4758
50.1712
26.0306
28.1342
30.4369
32.9386
35.6413
38.523
41.5258
44.5526
47.4758
50.1713
26.0307
28.1343
30.4369
32.9386
35.6414
38.5231
41.5259
44.5527
47.4759
50.1714
26.0307
28.1343
30.437
32.9387
35.6415
38.5232
41.526
44.5528
47.476
50.1715
24.4345
26.8551
29.3007
31.8128
34.4141
37.0856
39.7582
42.3091
44.5618
46.3131
24.4345
26.855
29.3006
31.8127
34.414
37.0855
39.7581
42.309
44.5617
46.313
24.4344
26.8549
29.3006
31.8126
34.414
37.0854
39.758
42.3089
44.5616
46.313
24.4344
26.8549
29.3005
31.8126
34.4139
37.0854
39.758
42.3088
44.5616
46.3129
24.4344
26.8549
29.3005
31.8126
34.4139
37.0853
39.758
42.3088
44.5615
46.3129
24.4344
26.8549
29.3005
31.8126
34.4139
37.0853
39.758
42.3088
44.5615
46.3129
24.4344
26.8549
29.3006
31.8126
34.4139
37.0854
39.758
42.3089
44.5616
46.3129
24.4344
26.8549
29.3006
31.8127
34.414
37.0854
39.758
42.3089
44.5616
46.313
24.4345
26.855
29.3007
31.8127
34.4141
37.0855
39.7581
42.309
44.5617
46.3131
24.4346
26.8551
29.3007
31.8128
34.4142
37.0856
39.7582
42.3091
44.5618
46.3132
23.2563
26.0858
28.6757
31.2147
33.7703
36.3331
38.8273
41.1026
42.9065
43.8068
23.2562
26.0858
28.6756
31.2147
33.7702
36.333
38.8272
41.1025
42.9064
43.8067
23.2562
26.0857
28.6756
31.2146
33.7701
36.333
38.8271
41.1024
42.9064
43.8066
23.2561
26.0857
28.6756
31.2146
33.7701
36.3329
38.8271
41.1024
42.9063
43.8066
23.2561
26.0857
28.6755
31.2146
33.7701
36.3329
38.8271
41.1024
42.9063
43.8066
23.2561
26.0857
28.6755
31.2146
33.7701
36.3329
38.8271
41.1024
42.9063
43.8066
23.2561
26.0857
28.6756
31.2146
33.7701
36.3329
38.8271
41.1024
42.9063
43.8066
23.2562
26.0857
28.6756
31.2146
33.7702
36.333
38.8271
41.1025
42.9064
43.8067
23.2562
26.0858
28.6757
31.2147
33.7702
36.333
38.8272
41.1026
42.9065
43.8067
23.2563
26.0859
28.6758
31.2148
33.7703
36.3331
38.8273
41.1027
42.9066
43.8069
126.499
138.946
146.627
152.038
156.066
159.105
161.367
162.978
164.014
164.522
126.499
138.946
146.627
152.038
156.066
159.104
161.367
162.977
164.014
164.522
126.499
138.946
146.627
152.038
156.065
159.104
161.366
162.977
164.014
164.522
126.499
138.946
146.627
152.038
156.065
159.104
161.366
162.977
164.014
164.522
126.499
138.946
146.627
152.038
156.065
159.104
161.366
162.977
164.014
164.522
126.499
138.946
146.627
152.038
156.065
159.104
161.366
162.977
164.014
164.522
126.499
138.946
146.627
152.038
156.065
159.104
161.366
162.977
164.014
164.522
126.499
138.946
146.627
152.038
156.065
159.104
161.366
162.977
164.014
164.522
126.499
138.946
146.627
152.038
156.065
159.104
161.367
162.977
164.014
164.522
126.499
138.946
146.627
152.038
156.066
159.105
161.367
162.978
164.014
164.522
107.95
119.126
127.064
132.855
137.176
140.419
142.819
144.521
145.612
146.146
107.95
119.126
127.064
132.855
137.175
140.419
142.819
144.52
145.612
146.146
107.95
119.126
127.064
132.855
137.175
140.419
142.819
144.52
145.612
146.146
107.95
119.126
127.064
132.855
137.175
140.419
142.819
144.52
145.612
146.146
107.95
119.126
127.064
132.855
137.175
140.419
142.819
144.52
145.612
146.145
107.95
119.126
127.064
132.855
137.175
140.419
142.819
144.52
145.612
146.145
107.95
119.126
127.064
132.855
137.175
140.419
142.819
144.52
145.612
146.146
107.95
119.126
127.064
132.855
137.175
140.419
142.819
144.52
145.612
146.146
107.95
119.126
127.064
132.855
137.175
140.419
142.819
144.52
145.612
146.146
107.95
119.126
127.064
132.855
137.175
140.419
142.819
144.521
145.612
146.146
94.3867
103.401
110.518
116.022
120.252
123.474
125.875
127.583
128.681
129.218
94.3866
103.401
110.518
116.022
120.251
123.473
125.875
127.583
128.681
129.218
94.3865
103.401
110.518
116.021
120.251
123.473
125.875
127.583
128.68
129.218
94.3864
103.401
110.518
116.021
120.251
123.473
125.875
127.583
128.68
129.218
94.3864
103.401
110.517
116.021
120.251
123.473
125.875
127.583
128.68
129.217
94.3864
103.401
110.517
116.021
120.251
123.473
125.875
127.583
128.68
129.218
94.3864
103.401
110.518
116.021
120.251
123.473
125.875
127.583
128.68
129.218
94.3864
103.401
110.518
116.021
120.251
123.473
125.875
127.583
128.68
129.218
94.3865
103.401
110.518
116.022
120.251
123.473
125.875
127.583
128.681
129.218
94.3866
103.401
110.518
116.022
120.252
123.474
125.875
127.583
128.681
129.218
83.2825
90.4375
96.4606
101.351
105.235
108.257
110.54
112.177
113.234
113.753
83.2823
90.4374
96.4605
101.351
105.235
108.257
110.539
112.177
113.234
113.753
83.2822
90.4373
96.4604
101.351
105.235
108.257
110.539
112.177
113.234
113.753
83.2822
90.4372
96.4603
101.351
105.235
108.256
110.539
112.177
113.234
113.753
83.2821
90.4372
96.4603
101.351
105.235
108.256
110.539
112.177
113.234
113.753
83.2821
90.4372
96.4603
101.351
105.235
108.256
110.539
112.177
113.234
113.753
83.2822
90.4372
96.4603
101.351
105.235
108.256
110.539
112.177
113.234
113.753
83.2822
90.4373
96.4604
101.351
105.235
108.257
110.539
112.177
113.234
113.753
83.2823
90.4373
96.4605
101.351
105.235
108.257
110.539
112.177
113.234
113.753
83.2824
90.4375
96.4606
101.351
105.235
108.257
110.54
112.177
113.235
113.754
73.8147
79.4673
84.4125
88.5759
91.9806
94.6883
96.7663
98.2731
99.2532
99.736
73.8146
79.4672
84.4124
88.5757
91.9804
94.6881
96.7662
98.273
99.2531
99.7359
73.8145
79.4671
84.4123
88.5756
91.9803
94.6881
96.7661
98.2729
99.253
99.7358
73.8144
79.467
84.4122
88.5756
91.9803
94.688
96.766
98.2728
99.2529
99.7358
73.8144
79.467
84.4122
88.5755
91.9803
94.688
96.766
98.2728
99.2529
99.7358
73.8144
79.467
84.4122
88.5755
91.9803
94.688
96.766
98.2728
99.2529
99.7358
73.8144
79.467
84.4122
88.5756
91.9803
94.688
96.766
98.2728
99.253
99.7358
73.8145
79.4671
84.4123
88.5756
91.9804
94.6881
96.7661
98.2729
99.253
99.7359
73.8146
79.4672
84.4124
88.5757
91.9805
94.6882
96.7662
98.273
99.2531
99.736
73.8147
79.4673
84.4125
88.5759
91.9806
94.6883
96.7663
98.2732
99.2533
99.7361
65.6491
70.0592
74.0154
77.4411
80.3158
82.6513
84.4734
85.8107
86.6877
87.1218
65.649
70.0591
74.0152
77.441
80.3157
82.6511
84.4733
85.8106
86.6876
87.1217
65.6489
70.059
74.0151
77.4409
80.3156
82.651
84.4732
85.8105
86.6875
87.1216
65.6488
70.0589
74.0151
77.4409
80.3155
82.651
84.4731
85.8105
86.6874
87.1215
65.6488
70.0589
74.015
77.4408
80.3155
82.651
84.4731
85.8104
86.6874
87.1215
65.6488
70.0589
74.015
77.4408
80.3155
82.651
84.4731
85.8104
86.6874
87.1215
65.6488
70.0589
74.0151
77.4409
80.3156
82.651
84.4732
85.8105
86.6875
87.1216
65.6489
70.059
74.0151
77.4409
80.3156
82.6511
84.4732
85.8106
86.6875
87.1216
65.649
70.0591
74.0152
77.441
80.3157
82.6512
84.4733
85.8107
86.6877
87.1217
65.6491
70.0592
74.0154
77.4412
80.3159
82.6513
84.4735
85.8108
86.6878
87.1219
58.616
61.9474
65.0046
67.7254
70.0684
72.0143
73.5592
74.7078
75.4678
75.8459
58.6159
61.9472
65.0045
67.7253
70.0683
72.0142
73.559
74.7077
75.4677
75.8459
58.6158
61.9471
65.0044
67.7252
70.0682
72.0141
73.5589
74.7076
75.4676
75.8458
58.6157
61.9471
65.0043
67.7251
70.0682
72.014
73.5589
74.7076
75.4676
75.8457
58.6157
61.9471
65.0043
67.7251
70.0681
72.014
73.5589
74.7075
75.4676
75.8457
58.6157
61.9471
65.0043
67.7251
70.0681
72.014
73.5589
74.7075
75.4676
75.8457
58.6157
61.9471
65.0043
67.7251
70.0682
72.014
73.5589
74.7076
75.4676
75.8458
58.6158
61.9472
65.0044
67.7252
70.0682
72.0141
73.559
74.7077
75.4677
75.8459
58.6159
61.9473
65.0045
67.7253
70.0683
72.0142
73.5591
74.7078
75.4678
75.846
58.616
61.9474
65.0046
67.7254
70.0685
72.0143
73.5592
74.7079
75.4679
75.8461
52.6025
54.9356
57.1681
59.2358
61.0758
62.6436
63.9129
64.8703
65.5099
65.8299
52.6024