/*--------------------------------*- C++ -*----------------------------------*\
  =========                 |
  \\      /  F ield         | OpenFOAM: The Open Source CFD Toolbox
   \\    /   O peration     | Website:  https://openfoam.org
    \\  /    A nd           | Version:  6
     \\/     M anipulation  |
\*---------------------------------------------------------------------------*/
FoamFile
{
    version     2.0;
    format      ascii;
    class       surfaceScalarField;
    location    "300";
    object      phi;
}
// * * * * * * * * * * * * * * * * * * * * * * * * * * * * * * * * * * * * * //

dimensions      [0 3 -1 0 0 0 0];

internalField   nonuniform List<scalar> 
19500
(
1.5681e-07
1.57197e-07
9.96858e-05
1.73566e-08
1.57317e-07
9.99819e-05
1.17838e-08
1.57357e-07
9.98479e-05
6.47395e-09
1.57337e-07
9.98477e-05
1.63332e-10
1.57323e-07
9.98486e-05
-6.1536e-09
1.57297e-07
9.98486e-05
-1.14713e-08
1.57262e-07
9.98476e-05
-1.70668e-08
1.57243e-07
9.98479e-05
-1.56225e-07
1.57194e-07
9.99815e-05
1.57084e-07
9.96863e-05
1.56926e-07
1.76171e-08
9.99824e-05
1.73009e-08
1.75676e-08
0.000100279
1.17892e-08
1.75618e-08
0.000100145
6.47432e-09
1.75598e-08
0.000100145
1.59865e-10
1.75569e-08
0.000100146
-6.15967e-09
1.75566e-08
0.000100146
-1.14781e-08
1.75609e-08
0.000100145
-1.69905e-08
1.75701e-08
0.000100145
-1.56325e-07
1.759e-08
0.000100278
1.76431e-08
9.99827e-05
1.56968e-07
1.20666e-08
9.98484e-05
1.72959e-08
1.20793e-08
0.000100145
1.17792e-08
1.20678e-08
0.000100011
6.47096e-09
1.20518e-08
0.00010001
1.52577e-10
1.20313e-08
0.000100011
-6.16887e-09
1.20088e-08
0.000100011
-1.14737e-08
1.19882e-08
0.00010001
-1.6968e-08
1.19753e-08
0.000100011
-1.56385e-07
1.19722e-08
0.000100145
1.19348e-08
9.98489e-05
1.56953e-07
6.75927e-09
9.98481e-05
1.72946e-08
6.76959e-09
0.000100145
1.17657e-08
6.76609e-09
0.000100011
6.45441e-09
6.74938e-09
0.00010001
1.32187e-10
6.72403e-09
0.000100011
-6.1897e-09
6.69211e-09
0.000100011
-1.14864e-08
6.65795e-09
0.00010001
-1.69622e-08
6.62979e-09
0.00010001
-1.56424e-07
6.60494e-09
0.000100144
6.55695e-09
9.98486e-05
1.5695e-07
4.03746e-10
9.98492e-05
1.72925e-08
4.12813e-10
0.000100146
1.17498e-08
4.07779e-10
0.000100012
6.43126e-09
3.91694e-10
0.000100011
1.01927e-10
3.64842e-10
0.000100012
-6.22302e-09
3.28538e-10
0.000100012
-1.15135e-08
2.87081e-10
0.000100011
-1.6967e-08
2.49231e-10
0.000100011
-1.56496e-07
2.15923e-10
0.000100145
1.59971e-10
9.98496e-05
1.5694e-07
-5.98337e-09
9.98492e-05
1.72929e-08
-5.97569e-09
0.000100146
1.17352e-08
-5.98177e-09
0.000100012
6.40568e-09
-5.9956e-09
0.000100011
6.63272e-11
-6.0213e-09
0.000100012
-6.26453e-09
-6.0583e-09
0.000100012
-1.15525e-08
-6.10292e-09
0.000100011
-1.69845e-08
-6.14685e-09
0.000100011
-1.56574e-07
-6.18419e-09
0.000100146
-6.24553e-09
9.98495e-05
1.56924e-07
-1.13831e-08
9.98482e-05
1.72959e-08
-1.13776e-08
0.000100145
1.17235e-08
-1.13722e-08
0.000100011
6.38022e-09
-1.13795e-08
0.00010001
2.89968e-11
-1.13995e-08
0.000100011
-6.31015e-09
-1.14326e-08
0.000100011
-1.15997e-08
-1.14759e-08
0.00010001
-1.70131e-08
-1.15217e-08
0.00010001
-1.56653e-07
-1.157e-08
0.000100145
-1.16394e-08
9.98484e-05
1.56924e-07
-1.70156e-08
9.98484e-05
1.73001e-08
-1.69416e-08
0.000100145
1.17159e-08
-1.69289e-08
0.000100011
6.35815e-09
-1.69291e-08
0.000100011
-5.20669e-12
-1.69371e-08
0.000100012
-6.35372e-09
-1.69557e-08
0.000100011
-1.1648e-08
-1.69837e-08
0.00010001
-1.70458e-08
-1.70156e-08
0.00010001
-1.56748e-07
-1.7071e-08
0.000100145
-1.71822e-08
9.98485e-05
1.5688e-07
-1.56287e-07
9.99821e-05
1.73118e-08
-1.56392e-07
0.000100279
1.17143e-08
-1.56445e-07
0.000100145
6.3369e-09
-1.56461e-07
0.000100145
-3.48424e-11
-1.56504e-07
0.000100146
-6.38908e-09
-1.56553e-07
0.000100146
-1.16973e-08
-1.56609e-07
0.000100145
-1.7103e-08
-1.56691e-07
0.000100145
-1.56768e-07
-1.56704e-07
0.000100279
-1.56608e-07
9.99825e-05
1.56768e-07
9.96867e-05
1.73654e-08
9.99828e-05
1.16919e-08
9.9849e-05
6.30693e-09
9.98487e-05
-7.40484e-11
9.98496e-05
-6.43919e-09
9.98495e-05
-1.17631e-08
9.98484e-05
-1.72147e-08
9.98485e-05
-1.56674e-07
9.99826e-05
9.96866e-05
2.24476e-07
2.23671e-07
9.92368e-05
7.07529e-08
2.23739e-07
9.99109e-05
4.3353e-08
2.23344e-07
9.96509e-05
1.82061e-08
2.23105e-07
9.96485e-05
-1.38059e-09
2.22719e-07
9.96441e-05
-2.08251e-08
2.22217e-07
9.96443e-05
-4.55941e-08
2.2163e-07
9.96491e-05
-7.23942e-08
2.20999e-07
9.9652e-05
-2.24235e-07
2.20701e-07
9.99109e-05
2.20026e-07
9.92408e-05
2.24567e-07
7.02757e-08
9.99104e-05
7.06197e-08
7.01634e-08
0.000100586
4.30829e-08
6.99423e-08
0.000100325
1.77862e-08
6.96419e-08
0.000100322
-1.90566e-09
6.92777e-08
0.000100317
-2.14215e-08
6.88434e-08
0.000100317
-4.62277e-08
6.83649e-08
0.000100321
-7.29897e-08
6.79074e-08
0.000100323
-2.24991e-07
6.7518e-08
0.000100582
6.6944e-08
9.99096e-05
2.24199e-07
4.28636e-08
9.96507e-05
7.04008e-08
4.26654e-08
0.000100325
4.28185e-08
4.24393e-08
0.000100065
1.74343e-08
4.20831e-08
0.000100062
-2.34554e-09
4.1635e-08
0.000100057
-2.19228e-08
4.11021e-08
0.000100057
-4.67303e-08
4.05177e-08
0.000100062
-7.33957e-08
3.99435e-08
0.000100064
-2.25364e-07
3.94192e-08
0.000100323
3.87514e-08
9.96506e-05
2.24036e-07
1.77152e-08
9.96483e-05
7.01404e-08
1.7447e-08
0.000100323
4.2463e-08
1.71995e-08
0.000100062
1.6986e-08
1.68275e-08
0.00010006
-2.87843e-09
1.63503e-08
0.000100055
-2.25068e-08
1.57836e-08
0.000100055
-4.73051e-08
1.51631e-08
0.000100059
-7.38921e-08
1.45468e-08
0.000100061
-2.26123e-07
1.39974e-08
0.00010032
1.33183e-08
9.96469e-05
2.23804e-07
-1.82143e-09
9.96439e-05
6.98828e-08
-2.09823e-09
0.000100318
4.20929e-08
-2.34911e-09
0.000100058
1.651e-08
-2.7019e-09
0.000100055
-3.44401e-09
-3.15541e-09
0.00010005
-2.31262e-08
-3.6896e-09
0.00010005
-4.79215e-08
-4.27043e-09
0.000100054
-7.44362e-08
-4.8479e-09
0.000100056
-2.26885e-07
-5.34505e-09
0.000100316
-5.98727e-09
9.9641e-05
2.2355e-07
-2.12137e-08
9.9644e-05
6.96386e-08
-2.1474e-08
0.000100318
4.1742e-08
-2.17053e-08
0.000100058
1.60582e-08
-2.20078e-08
0.000100055
-3.97664e-09
-2.23976e-08
0.00010005
-2.37055e-08
-2.28518e-08
0.00010005
-4.84985e-08
-2.33407e-08
0.000100054
-7.49434e-08
-2.38239e-08
0.000100055
-2.27588e-07
-2.42224e-08
0.000100316
-2.47841e-08
9.96398e-05
2.23299e-07
-4.5965e-08
9.96486e-05
6.9429e-08
-4.62261e-08
0.000100322
4.14404e-08
-4.6415e-08
0.000100062
1.56694e-08
-4.66442e-08
0.000100059
-4.43017e-09
-4.6948e-08
0.000100055
-2.41938e-08
-4.72994e-08
0.000100054
-4.89824e-08
-4.76727e-08
0.000100058
-7.53646e-08
-4.80462e-08
0.000100059
-2.28187e-07
-4.83693e-08
0.00010032
-4.87496e-08
9.96433e-05
2.23042e-07
-7.28376e-08
9.96512e-05
6.92828e-08
-7.30904e-08
0.000100324
4.1212e-08
-7.31984e-08
0.000100064
1.53662e-08
-7.33552e-08
0.000100062
-4.78174e-09
-7.35748e-08
0.000100057
-2.45672e-08
-7.38213e-08
0.000100056
-4.93566e-08
-7.40754e-08
0.00010006
-7.57313e-08
-7.43712e-08
0.000100062
-2.28598e-07
-7.46098e-08
0.000100323
-7.47491e-08
9.96452e-05
2.23078e-07
-2.25901e-07
9.9911e-05
6.91834e-08
-2.26314e-07
0.000100585
4.10238e-08
-2.26306e-07
0.000100325
1.5139e-08
-2.26616e-07
0.000100322
-5.01836e-09
-2.26933e-07
0.000100318
-2.47961e-08
-2.27256e-07
0.000100317
-4.96061e-08
-2.27582e-07
0.000100321
-7.59661e-08
-2.27833e-07
0.000100323
-2.29033e-07
-2.28216e-07
0.000100585
-2.28151e-07
9.99062e-05
2.2272e-07
9.92374e-05
6.89627e-08
9.99094e-05
4.07752e-08
9.965e-05
1.48861e-08
9.96471e-05
-5.28724e-09
9.96419e-05
-2.50806e-08
9.96411e-05
-4.9813e-08
9.96447e-05
-7.60284e-08
9.96461e-05
-2.28962e-07
9.99066e-05
9.92292e-05
2.5384e-07
2.52883e-07
9.87291e-05
9.23566e-08
2.53169e-07
9.98182e-05
6.02249e-08
2.52192e-07
9.94296e-05
2.70284e-08
2.5194e-07
9.94283e-05
-8.46079e-10
2.51335e-07
9.94191e-05
-2.85837e-08
2.5057e-07
9.94199e-05
-6.14052e-08
2.49686e-07
9.94306e-05
-9.29616e-08
2.48571e-07
9.94333e-05
-2.51823e-07
2.4844e-07
9.98194e-05
2.47333e-07
9.87404e-05
2.5416e-07
9.12686e-08
9.98168e-05
9.24127e-08
9.1349e-08
0.000100908
5.98807e-08
9.09091e-08
0.000100517
2.64427e-08
9.03977e-08
0.000100516
-1.64197e-09
8.97898e-08
0.000100505
-2.95432e-08
8.90382e-08
0.000100505
-6.24681e-08
8.81833e-08
0.000100514
-9.4148e-08
8.73586e-08
0.000100514
-2.5302e-07
8.67079e-08
0.000100901
8.55125e-08
9.98171e-05
2.53221e-07
5.88734e-08
9.94288e-05
9.19736e-08
5.86286e-08
0.000100518
5.94357e-08
5.8253e-08
0.000100129
2.58347e-08
5.76476e-08
0.000100127
-2.40001e-09
5.6885e-08
0.000100117
-3.04111e-08
5.59513e-08
0.000100117
-6.33733e-08
5.48957e-08
0.000100126
-9.48235e-08
5.38434e-08
0.000100127
-2.53283e-07
5.28677e-08
0.000100513
5.16696e-08
9.943e-05
2.53085e-07
2.5452e-08
9.94276e-05
9.15277e-08
2.50921e-08
0.000100517
5.88274e-08
2.46698e-08
0.000100127
2.50584e-08
2.40342e-08
0.000100126
-3.33572e-09
2.32115e-08
0.000100115
-3.1457e-08
2.22112e-08
0.000100115
-6.4427e-08
2.10892e-08
0.000100124
-9.57469e-08
1.99568e-08
0.000100124
-2.54651e-07
1.89452e-08
0.000100512
1.77186e-08
9.94251e-05
2.52721e-07
-2.54664e-09
9.94181e-05
9.11034e-08
-2.95479e-09
0.000100507
5.82003e-08
-3.37364e-09
0.000100117
2.42343e-08
-3.97794e-09
0.000100116
-4.33621e-09
-4.76826e-09
0.000100105
-3.25783e-08
-5.71861e-09
0.000100105
-6.55681e-08
-6.77323e-09
0.000100113
-9.67748e-08
-7.83903e-09
0.000100113
-2.55915e-07
-8.76295e-09
0.000100501
-9.90274e-09
9.94118e-05
2.52356e-07
-3.03301e-08
9.94183e-05
9.06904e-08
-3.07509e-08
0.000100506
5.75957e-08
-3.11289e-08
0.000100117
2.34445e-08
-3.16487e-08
0.000100115
-5.28495e-09
-3.2336e-08
0.000100105
-3.36304e-08
-3.31503e-08
0.000100104
-6.66307e-08
-3.404e-08
0.000100112
-9.77198e-08
-3.49376e-08
0.000100112
-2.57122e-07
-3.57022e-08
0.0001005
-3.66339e-08
9.94085e-05
2.52022e-07
-6.31521e-08
9.94282e-05
9.0324e-08
-6.35817e-08
0.000100515
5.70663e-08
-6.3899e-08
0.000100127
2.27587e-08
-6.42936e-08
0.000100125
-6.09691e-09
-6.48357e-08
0.000100114
-3.45172e-08
-6.54665e-08
0.000100113
-6.75148e-08
-6.61413e-08
0.000100121
-9.85063e-08
-6.68493e-08
0.000100121
-2.58149e-07
-6.73957e-08
0.00010051
-6.80424e-08
9.94157e-05
2.51552e-07
-9.46956e-08
9.94299e-05
9.00832e-08
-9.52834e-08
0.000100516
5.66724e-08
-9.53777e-08
0.000100128
2.22271e-08
-9.5633e-08
0.000100126
-6.72749e-09
-9.60226e-08
0.000100115
-3.52006e-08
-9.64611e-08
0.000100114
-6.82204e-08
-9.69281e-08
0.000100122
-9.91369e-08
-9.7429e-08
0.000100121
-2.58752e-07
-9.79592e-08
0.000100511
-9.80923e-08
9.94156e-05
2.52031e-07
-2.55022e-07
9.98181e-05
9.00061e-08
-2.55744e-07
0.000100906
5.63599e-08
-2.55336e-07
0.000100517
2.18516e-08
-2.55887e-07
0.000100516
-7.14166e-09
-2.56335e-07
0.000100505
-3.56344e-08
-2.56845e-07
0.000100505
-6.86187e-08
-2.5737e-07
0.000100513
-9.96532e-08
-2.57692e-07
0.000100513
-2.59963e-07
-2.58798e-07
0.000100904
-2.58531e-07
9.98062e-05
2.51365e-07
9.87301e-05
8.94196e-08
9.98147e-05
5.59219e-08
9.94272e-05
2.14001e-08
9.94246e-05
-7.60897e-09
9.94135e-05
-3.60737e-08
9.94116e-05
-6.89757e-08
9.94191e-05
-9.96505e-08
9.9418e-05
-2.59694e-07
9.98074e-05
9.87108e-05
2.71906e-07
2.71076e-07
9.81849e-05
1.03665e-07
2.7169e-07
9.97134e-05
6.75548e-08
2.70075e-07
9.91942e-05
3.15945e-08
2.69848e-07
9.91928e-05
-1.07051e-10
2.68931e-07
9.91802e-05
-3.16224e-08
2.6783e-07
9.91818e-05
-6.72008e-08
2.6657e-07
9.91978e-05
-1.0277e-07
2.64746e-07
9.92022e-05
-2.6695e-07
2.64613e-07
9.9717e-05
2.62721e-07
9.82089e-05
2.72563e-07
1.02315e-07
9.97117e-05
1.03969e-07
1.02651e-07
0.000101244
6.71756e-08
1.01934e-07
0.000100721
3.08898e-08
1.01206e-07
0.000100719
-1.20313e-09
1.00333e-07
0.000100704
-3.30821e-08
9.92049e-08
0.000100703
-6.8839e-08
9.78537e-08
0.000100716
-1.04759e-07
9.64903e-08
0.000100716
-2.68932e-07
9.54359e-08
0.000101232
9.33075e-08
9.97162e-05
2.71002e-07
6.57412e-08
9.9193e-05
1.03251e-07
6.55026e-08
0.000100721
6.65072e-08
6.49476e-08
0.000100201
2.99581e-08
6.40902e-08
0.000100199
-2.35674e-09
6.29895e-08
0.000100185
-3.44271e-08
6.15882e-08
0.000100185
-7.03093e-08
5.9933e-08
0.000100198
-1.05862e-07
5.82058e-08
0.000100199
-2.69363e-07
5.65781e-08
0.000100714
5.45423e-08
9.91983e-05
2.70947e-07
2.93085e-08
9.91917e-05
1.02624e-07
2.8939e-08
0.00010072
6.56431e-08
2.83119e-08
0.000100199
2.88262e-08
2.74105e-08
0.000100197
-3.76164e-09
2.6219e-08
0.000100183
-3.60594e-08
2.47213e-08
0.000100182
-7.20331e-08
2.29772e-08
0.000100195
-1.0742e-07
2.11415e-08
0.000100195
-2.7172e-07
1.94765e-08
0.000100711
1.7378e-08
9.91897e-05
2.70401e-07
-2.76701e-09
9.91783e-05
1.02044e-07
-3.26626e-09
0.000100706
6.47614e-08
-3.85398e-09
0.000100185
2.76306e-08
-4.70498e-09
0.000100183
-5.26089e-09
-5.84712e-09
0.000100168
-3.78044e-08
-7.2591e-09
0.000100167
-7.38848e-08
-8.87508e-09
0.000100179
-1.09131e-07
-1.0571e-08
0.000100178
-2.73762e-07
-1.21009e-08
0.000100696
-1.39434e-08
9.91686e-05
2.69933e-07
-3.45975e-08
9.91787e-05
1.01471e-07
-3.51789e-08
0.000100705
6.3907e-08
-3.56729e-08
0.000100185
2.64863e-08
-3.63959e-08
0.000100183
-6.67289e-09
-3.73822e-08
0.000100168
-3.94198e-08
-3.85754e-08
0.000100166
-7.55699e-08
-3.99092e-08
0.000100177
-1.10673e-07
-4.13067e-08
0.000100176
-2.75725e-07
-4.2541e-08
0.000100695
-4.39723e-08
9.91622e-05
2.69591e-07
-7.03527e-08
9.91928e-05
1.00958e-07
-7.09321e-08
0.000100718
6.31586e-08
-7.13439e-08
0.000100198
2.55003e-08
-7.18853e-08
0.000100196
-7.86393e-09
-7.26558e-08
0.000100181
-4.07503e-08
-7.35624e-08
0.000100179
-7.69317e-08
-7.45474e-08
0.00010019
-1.1188e-07
-7.55766e-08
0.000100188
-2.77443e-07
-7.64716e-08
0.000100708
-7.74083e-08
9.91711e-05
2.68875e-07
-1.05934e-07
9.9195e-05
1.00639e-07
-1.06898e-07
0.000100719
6.26149e-08
-1.06933e-07
0.0001002
2.47507e-08
-1.07273e-07
0.000100197
-8.77446e-09
-1.07825e-07
0.000100182
-4.1763e-08
-1.08447e-07
0.00010018
-7.79539e-08
-1.09079e-07
0.000100191
-1.12864e-07
-1.09831e-07
0.000100189
-2.78283e-07
-1.10655e-07
0.000100709
-1.10552e-07
9.91702e-05
2.69809e-07
-2.72719e-07
9.97134e-05
1.00627e-07
-2.73754e-07
0.00010124
6.22017e-08
-2.72886e-07
0.00010072
2.42464e-08
-2.73718e-07
0.000100718
-9.37485e-09
-2.74239e-07
0.000100703
-4.24008e-08
-2.74919e-07
0.000100702
-7.85876e-08
-2.75728e-07
0.000100714
-1.13664e-07
-2.76026e-07
0.000100712
-2.80133e-07
-2.77682e-07
0.000101237
-2.7737e-07
9.96924e-05
2.68824e-07
9.81875e-05
9.96732e-08
9.9709e-05
6.15782e-08
9.91912e-05
2.35732e-08
9.91876e-05
-1.00039e-08
9.91715e-05
-4.2959e-08
9.91683e-05
-7.89865e-08
9.91781e-05
-1.13322e-07
9.91755e-05
-2.79812e-07
9.96954e-05
9.81534e-05
2.85769e-07
2.85272e-07
9.76125e-05
1.13019e-07
2.86284e-07
9.95983e-05
7.2929e-08
2.84018e-07
9.89486e-05
3.51519e-08
2.83803e-07
9.89451e-05
1.02049e-09
2.82447e-07
9.89301e-05
-3.2877e-08
2.80851e-07
9.89331e-05
-7.0128e-08
2.79016e-07
9.89543e-05
-1.09511e-07
2.76071e-07
9.89637e-05
-2.7616e-07
2.75424e-07
9.96056e-05
2.72498e-07
9.76587e-05
2.86836e-07
1.11465e-07
9.95973e-05
1.13564e-07
1.12056e-07
0.00010159
7.25e-08
1.11018e-07
0.000100933
3.43046e-08
1.10016e-07
0.000100929
-5.03157e-10
1.08767e-07
0.000100911
-3.50821e-08
1.07083e-07
0.00010091
-7.27113e-08
1.04968e-07
0.000100926
-1.12718e-07
1.02682e-07
0.000100928
-2.79217e-07
1.00705e-07
0.000101571
9.72062e-08
9.96108e-05
2.84647e-07
7.06801e-08
9.89477e-05
1.12521e-07
7.04592e-08
0.000100934
7.15267e-08
6.96692e-08
0.000100281
3.2912e-08
6.84913e-08
0.000100277
-2.24992e-09
6.69314e-08
0.00010026
-3.71779e-08
6.48589e-08
0.00010026
-7.51476e-08
6.22916e-08
0.000100277
-1.1475e-07
5.94656e-08
0.00010028
-2.80354e-07
5.66317e-08
0.000100922
5.30948e-08
9.8961e-05
2.8469e-07
3.20835e-08
9.8944e-05
1.11677e-07
3.17471e-08
0.00010093
7.03369e-08
3.08486e-08
0.000100278
3.13021e-08
2.96108e-08
0.000100273
-4.3246e-09
2.79307e-08
0.000100256
-3.97034e-08
2.57349e-08
0.000100255
-7.79663e-08
2.30652e-08
0.00010027
-1.17468e-07
2.01368e-08
0.000100272
-2.84444e-07
1.72851e-08
0.000100916
1.36199e-08
9.8944e-05
2.83905e-07
-2.85431e-09
9.89278e-05
1.10897e-07
-3.42781e-09
0.000100912
6.91284e-08
-4.2312e-09
0.00010026
2.96128e-08
-5.38695e-09
0.000100256
-6.52278e-09
-6.98155e-09
0.000100237
-4.23742e-08
-9.02216e-09
0.000100236
-8.09205e-08
-1.14413e-08
0.00010025
-1.20378e-07
-1.40763e-08
0.00010025
-2.87938e-07
-1.66056e-08
0.000100896
-1.9741e-08
9.89136e-05
2.83328e-07
-3.7522e-08
9.89284e-05
1.1013e-07
-3.82795e-08
0.000100911
6.79624e-08
-3.89133e-08
0.00010026
2.80091e-08
-3.98787e-08
0.000100255
-8.56689e-09
-4.12343e-08
0.000100236
-4.47955e-08
-4.29192e-08
0.000100234
-8.35383e-08
-4.48499e-08
0.000100247
-1.22883e-07
-4.69173e-08
0.000100246
-2.91285e-07
-4.89e-08
0.000100894
-5.11215e-08
9.8902e-05
2.8302e-07
-7.53811e-08
9.8946e-05
1.09451e-07
-7.60974e-08
0.000100928
6.69527e-08
-7.66238e-08
0.000100277
2.66505e-08
-7.73336e-08
0.000100272
-1.02492e-08
-7.83672e-08
0.000100253
-4.67231e-08
-7.96007e-08
0.00010025
-8.55443e-08
-8.09388e-08
0.000100263
-1.24754e-07
-8.23772e-08
0.000100261
-2.94104e-07
-8.3614e-08
0.000100911
-8.49593e-08
9.89107e-05
2.8203e-07
-1.15144e-07
9.8951e-05
1.09035e-07
-1.16421e-07
0.00010093
6.62362e-08
-1.16397e-07
0.00010028
2.5648e-08
-1.16828e-07
0.000100275
-1.14905e-08
-1.17545e-07
0.000100256
-4.81078e-08
-1.18352e-07
0.000100253
-8.6972e-08
-1.19186e-07
0.000100265
-1.26057e-07
-1.20072e-07
0.000100263
-2.95275e-07
-1.2113e-07
0.000100915
-1.21146e-07
9.89106e-05
2.83433e-07
-2.86056e-07
9.95991e-05
1.09088e-07
-2.87484e-07
0.000101584
6.5712e-08
-2.86205e-07
0.000100931
2.50107e-08
-2.87352e-07
0.000100927
-1.22866e-08
-2.87914e-07
0.000100909
-4.9006e-08
-2.8881e-07
0.000100907
-8.7724e-08
-2.8991e-07
0.000100921
-1.27057e-07
-2.90136e-07
0.00010092
-2.98115e-07
-2.92607e-07
0.000101578
-2.92048e-07
9.95651e-05
2.82046e-07
9.7618e-05
1.07763e-07
9.95944e-05
6.49003e-08
9.89463e-05
2.40778e-08
9.89395e-05
-1.31201e-08
9.89191e-05
-4.96128e-08
9.89143e-05
-8.81699e-08
9.89251e-05
-1.26657e-07
9.89223e-05
-2.9755e-07
9.95732e-05
9.75638e-05
2.94812e-07
2.94914e-07
9.7021e-05
1.20213e-07
2.96362e-07
9.94747e-05
7.7681e-08
2.93403e-07
9.86958e-05
3.88429e-08
2.93156e-07
9.86888e-05
2.84082e-09
2.91223e-07
9.86729e-05
-3.26959e-08
2.88923e-07
9.86778e-05
-7.07136e-08
2.86121e-07
9.87043e-05
-1.12288e-07
2.81438e-07
9.87215e-05
-2.76408e-07
2.79506e-07
9.9488e-05
2.74507e-07
9.71054e-05
2.96335e-07
1.18485e-07
9.94755e-05
1.21004e-07
1.19339e-07
0.000101941
7.71889e-08
1.17932e-07
0.00010115
3.77926e-08
1.16591e-07
0.000101143
7.15129e-10
1.14819e-07
0.000101122
-3.60609e-08
1.12321e-07
0.000101121
-7.48068e-08
1.08991e-07
0.00010114
-1.17487e-07
1.05041e-07
0.000101145
-2.81678e-07
1.01378e-07
0.000101911
9.5168e-08
9.95069e-05
2.93481e-07
7.49173e-08
9.86958e-05
1.19586e-07
7.47297e-08
0.00010115
7.5817e-08
7.36443e-08
0.000100367
3.57715e-08
7.20598e-08
0.00010036
-1.90441e-09
6.98672e-08
0.00010034
-3.93868e-08
6.68188e-08
0.00010034
-7.89364e-08
6.28205e-08
0.00010036
-1.21218e-07
5.81084e-08
0.000100367
-2.84954e-07
5.308e-08
0.000101132
4.65805e-08
9.87237e-05
2.9361e-07
3.46984e-08
9.86886e-05
1.18486e-07
3.44264e-08
0.000101143
7.42121e-08
3.31882e-08
0.00010036
3.35084e-08
3.15214e-08
0.000100352
-4.95141e-09
2.91759e-08
0.000100332
-4.33214e-08
2.59748e-08
0.000100331
-8.36095e-08
2.18917e-08
0.000100349
-1.26026e-07
1.7103e-08
0.000100353
-2.92336e-07
1.21457e-08
0.000101122
5.4364e-09
9.86922e-05
2.92545e-07
-2.83646e-09
9.86707e-05
1.17449e-07
-3.46786e-09
0.000101123
7.25772e-08
-4.54734e-09
0.00010034
3.11429e-08
-6.08777e-09
0.000100332
-8.15813e-09
-8.28662e-09
0.000100311
-4.74076e-08
-1.12103e-08
0.000100309
-8.84233e-08
-1.4823e-08
0.000100325
-1.30973e-07
-1.89662e-08
0.000100327
-2.98845e-07
-2.3249e-08
0.000101098
-2.87653e-08
9.86485e-05
2.91846e-07
-4.00932e-08
9.86716e-05
1.16443e-07
-4.10213e-08
0.000101122
7.10114e-08
-4.18402e-08
0.00010034
2.89199e-08
-4.31043e-08
0.000100331
-1.10932e-08
-4.49365e-08
0.00010031
-5.10321e-08
-4.72808e-08
0.000100307
-9.25382e-08
-5.00493e-08
0.000100321
-1.35124e-07
-5.31236e-08
0.000100321
-3.04764e-07
-5.62395e-08
0.000101096
-5.98864e-08
9.86279e-05
2.91601e-07
-7.9572e-08
9.86915e-05
1.15574e-07
-8.04102e-08
0.000101141
6.96798e-08
-8.10849e-08
0.000100359
2.70784e-08
-8.20013e-08
0.00010035
-1.34342e-08
-8.33573e-08
0.000100328
-5.37986e-08
-8.50046e-08
0.000100324
-9.55185e-08
-8.68089e-08
0.000100338
-1.38002e-07
-8.87018e-08
0.000100336
-3.09384e-07
-9.04021e-08
0.000101116
-9.24846e-08
9.86332e-05
2.90342e-07
-1.2208e-07
9.87008e-05
1.15035e-07
-1.23707e-07
0.000101146
6.87509e-08
-1.23667e-07
0.000100366
2.57642e-08
-1.24226e-07
0.000100357
-1.50873e-08
-1.25142e-07
0.000100335
-5.56687e-08
-1.26185e-07
0.000100331
-9.73857e-08
-1.2719e-07
0.000100344
-1.3969e-07
-1.28179e-07
0.000100343
-3.11197e-07
-1.29493e-07
0.000101124
-1.2908e-07
9.86356e-05
2.92167e-07
-2.94694e-07
9.94772e-05
1.15112e-07
-2.96445e-07
0.000101931
6.80734e-08
-2.9475e-07
0.000101146
2.49416e-08
-2.96235e-07
0.000101139
-1.61425e-08
-2.96852e-07
0.000101118
-5.67941e-08
-2.97972e-07
0.000101116
-9.82545e-08
-2.99422e-07
0.000101131
-1.40916e-07
-2.9949e-07
0.000101131
-3.14476e-07
-3.02186e-07
0.000101924
-3.01626e-07
9.94221e-05
2.90439e-07
9.70314e-05
1.13419e-07
9.94732e-05
6.70396e-08
9.86961e-05
2.36807e-08
9.86846e-05
-1.72008e-08
9.8661e-05
-5.74945e-08
9.86543e-05
-9.869e-08
9.86647e-05
-1.39837e-07
9.86627e-05
-3.13899e-07
9.9444e-05
9.69467e-05
2.99291e-07
3.00386e-07
9.64195e-05
1.24849e-07
3.02321e-07
9.93449e-05
8.12477e-08
2.98623e-07
9.84388e-05
4.24088e-08
2.98266e-07
9.84274e-05
5.77734e-09
2.95614e-07
9.84121e-05
-3.01182e-08
2.92315e-07
9.84197e-05
-6.73113e-08
2.88057e-07
9.84519e-05
-1.08602e-07
2.80609e-07
9.84806e-05
-2.64596e-07
2.75692e-07
9.93653e-05
2.67209e-07
9.65721e-05
3.01331e-07
1.22996e-07
9.93497e-05
1.25893e-07
1.24128e-07
0.000102292
8.06777e-08
1.22274e-07
0.00010137
4.10768e-08
1.20497e-07
0.000101358
2.78272e-09
1.18002e-07
0.000101336
-3.51117e-08
1.14338e-07
0.000101335
-7.39834e-08
1.09156e-07
0.000101356
-1.17381e-07
1.02512e-07
0.000101365
-2.73734e-07
9.5292e-08
0.000102246
8.33153e-08
9.94151e-05
2.97772e-07
7.78534e-08
9.84412e-05
1.24017e-07
7.77294e-08
0.000101368
7.87689e-08
7.62597e-08
0.000100456
3.81985e-08
7.41474e-08
0.000100444
-1.08976e-09
7.10947e-08
0.000100424
-4.0314e-08
6.66519e-08
0.000100425
-8.08202e-08
6.05171e-08
0.000100447
-1.24553e-07
5.27462e-08
0.000100459
-2.82412e-07
4.37289e-08
0.00010134
3.06131e-08
9.8492e-05
2.97957e-07
3.67669e-08
9.84296e-05
1.22601e-07
3.65955e-08
0.000101358
7.66209e-08
3.49318e-08
0.000100445
3.50498e-08
3.27151e-08
0.000100433
-5.52892e-09
2.94726e-08
0.000100412
-4.63466e-08
2.48513e-08
0.000100411
-8.84518e-08
1.86413e-08
0.00010043
-1.33129e-07
1.0966e-08
0.000100438
-2.96951e-07
2.3907e-09
0.000101325
-1.01765e-08
9.84339e-05
2.96583e-07
-2.67834e-09
9.84113e-05
1.21236e-07
-3.33576e-09
0.000101336
7.44271e-08
-4.76181e-09
0.000100424
3.17651e-08
-6.78463e-09
0.000100412
-1.01677e-08
-9.78056e-09
0.00010039
-5.25673e-08
-1.39329e-08
0.000100387
-9.61085e-08
-1.9298e-08
0.000100403
-1.41518e-07
-2.57453e-08
0.000100406
-3.09514e-07
-3.28599e-08
0.000101299
-4.28038e-08
9.83693e-05
2.9576e-07
-4.18418e-08
9.84127e-05
1.19937e-07
-4.29234e-08
0.000101335
7.2351e-08
-4.39765e-08
0.000100424
2.87177e-08
-4.56033e-08
0.000100411
-1.43496e-08
-4.80388e-08
0.000100388
-5.79615e-08
-5.12711e-08
0.000100384
-1.0249e-07
-5.51945e-08
0.000100398
-1.48299e-07
-5.96598e-08
0.000100398
-3.20251e-07
-6.44354e-08
0.000101297
-7.06335e-08
9.83331e-05
2.95601e-07
-8.21898e-08
9.84339e-05
1.18853e-07
-8.31383e-08
0.000101355
7.06274e-08
-8.39866e-08
0.000100445
2.62614e-08
-8.51393e-08
0.000100431
-1.75808e-08
-8.68788e-08
0.000100408
-6.1883e-08
-8.90235e-08
0.000100403
-1.06819e-07
-9.13454e-08
0.000100415
-1.52647e-07
-9.36798e-08
0.000100413
-3.27912e-07
-9.5805e-08
0.000101319
-9.86105e-08
9.83308e-05
2.94107e-07
-1.26323e-07
9.84483e-05
1.18174e-07
-1.28225e-07
0.000101365
6.94552e-08
-1.28159e-07
0.000100456
2.45754e-08
-1.2885e-07
0.000100443
-1.9725e-08
-1.29961e-07
0.000100419
-6.42799e-08
-1.31207e-07
0.000100414
-1.0911e-07
-1.32305e-07
0.000100426
-1.54664e-07
-1.33118e-07
0.000100424
-3.30363e-07
-1.33882e-07
0.000101335
-1.33173e-07
9.83367e-05
2.96401e-07
-2.98726e-07
9.93506e-05
1.18282e-07
-3.00831e-07
0.000102279
6.86099e-08
-2.98738e-07
0.000101363
2.35526e-08
-3.00535e-07
0.000101353
-2.10102e-08
-3.01189e-07
0.00010133
-6.55602e-08
-3.02564e-07
0.000101328
-1.09798e-07
-3.04307e-07
0.000101344
-1.55235e-07
-3.0392e-07
0.000101344
-3.338e-07
-3.0678e-07
0.000102271
-3.05689e-07
9.9257e-05
2.94298e-07
9.64364e-05
1.16215e-07
9.93485e-05
6.73378e-08
9.84441e-05
2.19376e-08
9.84271e-05
-2.23576e-08
9.84013e-05
-6.63321e-08
9.83927e-05
-1.10012e-07
9.8401e-05
-1.53808e-07
9.83995e-05
-3.32771e-07
9.93123e-05
9.63061e-05
3.00681e-07
3.03444e-07
9.58132e-05
1.27787e-07
3.05927e-07
9.92097e-05
8.38273e-08
3.01498e-07
9.81791e-05
4.59341e-08
3.0098e-07
9.81623e-05
1.0213e-08
2.97514e-07
9.81486e-05
-2.39856e-08
2.92991e-07
9.81595e-05
-5.83089e-08
2.86592e-07
9.81981e-05
-9.69356e-08
2.74844e-07
9.82426e-05
-2.32309e-07
2.64062e-07
9.92348e-05
2.47401e-07
9.60915e-05
3.03322e-07
1.26041e-07
9.92215e-05
1.29108e-07
1.27473e-07
0.000102643
8.32095e-08
1.25115e-07
0.00010159
4.42676e-08
1.2282e-07
0.000101573
6.16199e-09
1.19418e-07
0.00010155
-3.13085e-08
1.14202e-07
0.000101549
-6.89974e-08
1.06318e-07
0.000101572
-1.12292e-07
9.51141e-08
0.000101585
-2.50601e-07
8.04243e-08
0.000102565
5.53438e-08
9.93554e-05
2.99061e-07
7.98285e-08
9.81859e-05
1.26709e-07
7.98265e-08
0.000101586
8.06374e-08
7.78973e-08
0.000100547
4.03054e-08
7.51558e-08
0.00010053
5.99044e-10
7.1009e-08
0.000100509
-3.92421e-08
6.46882e-08
0.000100511
-8.02557e-08
5.54419e-08
0.000100536
-1.26238e-07
4.27248e-08
0.000100553
-2.73302e-07
2.58927e-08
0.000101537
-2.30122e-09
9.82738e-05
2.99282e-07
3.83323e-08
9.81693e-05
1.24931e-07
3.83296e-08
0.000101571
7.78357e-08
3.61697e-08
0.000100531
3.60219e-08
3.33012e-08
0.000100513
-5.73699e-09
2.89156e-08
0.000100492
-4.83127e-08
2.23529e-08
0.000100492
-9.26642e-08
1.30195e-08
0.000100513
-1.41551e-07
6.10679e-10
0.000100524
-3.03925e-07
-1.5179e-08
0.000101524
-4.15345e-08
9.81654e-05
2.97612e-07
-2.26907e-09
9.81516e-05
1.23189e-07
-2.88467e-09
0.000101549
7.4966e-08
-4.71246e-09
0.00010051
3.15521e-08
-7.29574e-09
0.000100492
-1.23541e-08
-1.12935e-08
0.00010047
-5.76875e-08
-1.71059e-08
0.000100467
-1.05114e-07
-2.50352e-08
0.000100483
-1.57163e-07
-3.52685e-08
0.000100488
-3.30656e-07
-4.79514e-08
0.0001015
-6.82101e-08
9.80607e-05
2.96691e-07
-4.26136e-08
9.81535e-05
1.21565e-07
-4.3783e-08
0.000101548
7.22855e-08
-4.5103e-08
0.000100511
2.74574e-08
-4.71342e-08
0.000100492
-1.82363e-08
-5.03007e-08
0.000100468
-6.56904e-08
-5.46692e-08
0.000100464
-1.15313e-07
-6.01472e-08
0.000100477
-1.69423e-07
-6.66949e-08
0.000100477
-3.51471e-07
-7.41707e-08
0.000101499
-8.53653e-08
9.79934e-05
2.96668e-07
-8.34676e-08
9.8175e-05
1.20261e-07
-8.44721e-08
0.000101569
7.01189e-08
-8.55025e-08
0.000100532
2.42481e-08
-8.69022e-08
0.000100513
-2.26105e-08
-8.90675e-08
0.000100489
-7.11906e-08
-9.17829e-08
0.000100483
-1.21669e-07
-9.4661e-08
0.000100494
-1.76181e-07
-9.72874e-08
0.000100492
-3.64251e-07
-9.89389e-08
0.000101526
-1.01449e-07
9.79768e-05
2.95011e-07
-1.28762e-07
9.81955e-05
1.1945e-07
-1.30927e-07
0.000101583
6.86912e-08
-1.30861e-07
0.000100549
2.2151e-08
-1.31684e-07
0.00010053
-2.53054e-08
-1.32998e-07
0.000100506
-7.41514e-08
-1.34457e-07
0.0001005
-1.24187e-07
-1.3549e-07
0.000100511
-1.77448e-07
-1.35399e-07
0.000100509
-3.65961e-07
-1.34242e-07
0.000101552
-1.29574e-07
9.79929e-05
2.97723e-07
-2.99967e-07
9.92209e-05
1.19569e-07
-3.0233e-07
0.000102625
6.76618e-08
-2.99857e-07
0.000101581
2.08958e-08
-3.01939e-07
0.000101566
-2.68415e-08
-3.02667e-07
0.000101543
-7.54088e-08
-3.0433e-07
0.00010154
-1.23929e-07
-3.06294e-07
0.000101557
-1.75772e-07
-3.04946e-07
0.000101559
-3.6528e-07
-3.05742e-07
0.000102625
-2.99104e-07
9.90556e-05
2.95326e-07
9.58389e-05
1.17151e-07
9.9222e-05
6.61095e-08
9.81927e-05
1.88354e-08
9.81695e-05
-2.85721e-08
9.81426e-05
-7.62821e-08
9.81321e-05
-1.23772e-07
9.81379e-05
-1.72264e-07
9.81381e-05
-3.5919e-07
9.91885e-05
9.56436e-05
2.99978e-07
3.05436e-07
9.52056e-05
1.29792e-07
3.08544e-07
9.90692e-05
8.58995e-08
3.03419e-07
9.79175e-05
4.97152e-08
3.02692e-07
9.78939e-05
1.65408e-08
2.98346e-07
9.78818e-05
-1.35994e-08
2.92405e-07
9.78961e-05
-4.15643e-08
2.83327e-07
9.79429e-05
-7.14674e-08
2.6501e-07
9.80079e-05
-1.58651e-07
2.4075e-07
9.90843e-05
2.04233e-07
9.5732e-05
3.03333e-07
1.28617e-07
9.90927e-05
1.31421e-07
1.30375e-07
0.00010299
8.52712e-08
1.27455e-07
0.00010181
4.76807e-08
1.24533e-07
0.000101787
1.12473e-08
1.19985e-07
0.000101763
-2.37824e-08
1.12736e-07
0.000101762
-5.87676e-08
1.01253e-07
0.000101788
-1.00868e-07
8.26121e-08
0.000101809
-2.01487e-07
5.34355e-08
0.000102853
-1.11769e-08
9.93691e-05
2.98399e-07
8.15389e-08
9.79322e-05
1.28429e-07
8.17381e-08
0.000101802
8.18714e-08
7.92747e-08
0.000100639
4.23218e-08
7.57812e-08
0.000100615
3.42333e-09
7.02413e-08
0.000100595
-3.5396e-08
6.14527e-08
0.000100598
-7.66979e-08
4.79278e-08
0.000100627
-1.27749e-07
2.78837e-08
0.000100655
-2.61835e-07
-8.9285e-10
0.000101721
-5.71186e-08
9.80524e-05
2.98654e-07
3.97931e-08
9.79098e-05
1.26241e-07
4.00607e-08
0.000101782
7.82732e-08
3.73453e-08
0.000100618
3.65684e-08
3.37268e-08
0.000100594
-5.45163e-09
2.79237e-08
0.000100573
-4.88169e-08
1.87989e-08
0.000100574
-9.60749e-08
5.13911e-09
0.000100598
-1.53689e-07
-1.41691e-08
0.000100617
-3.25216e-07
-4.03131e-08
0.000101726
-8.33993e-08
9.78569e-05
2.96743e-07
-1.51611e-09
9.78934e-05
1.24085e-07
-1.96738e-09
0.00010176
7.46068e-08
-4.22875e-09
0.000100598
3.06091e-08
-7.41539e-09
0.000100574
-1.47137e-08
-1.26005e-08
0.000100551
-6.26084e-08
-2.05576e-08
0.000100549
-1.15404e-07
-3.20513e-08
0.000100567
-1.78152e-07
-4.81183e-08
0.000100576
-3.72516e-07
-7.02565e-08
0.000101712
-1.08631e-07
9.77005e-05
2.95793e-07
-4.26194e-08
9.78959e-05
1.22133e-07
-4.37538e-08
0.00010176
7.12578e-08
-4.53461e-08
0.000100599
2.52591e-08
-4.77679e-08