/*--------------------------------*- C++ -*----------------------------------*\
  =========                 |
  \\      /  F ield         | OpenFOAM: The Open Source CFD Toolbox
   \\    /   O peration     | Website:  https://openfoam.org
    \\  /    A nd           | Version:  6
     \\/     M anipulation  |
\*---------------------------------------------------------------------------*/
FoamFile
{
    version     2.0;
    format      ascii;
    class       volScalarField;
    location    "0.73";
    object      T;
}
// * * * * * * * * * * * * * * * * * * * * * * * * * * * * * * * * * * * * * //

dimensions      [0 0 0 1 0 0 0];

internalField   nonuniform List<scalar> 
7000
(
106.264
106.262
106.258
106.253
106.247
106.24
106.233
106.226
106.222
106.219
106.264
106.262
106.258
106.253
106.247
106.24
106.233
106.226
106.222
106.219
106.264
106.262
106.258
106.253
106.247
106.24
106.233
106.226
106.222
106.219
106.264
106.262
106.258
106.253
106.247
106.24
106.233
106.226
106.222
106.219
106.264
106.262
106.258
106.253
106.247
106.24
106.233
106.226
106.222
106.219
106.264
106.262
106.258
106.253
106.247
106.24
106.233
106.226
106.222
106.219
106.264
106.262
106.258
106.253
106.247
106.24
106.233
106.226
106.222
106.219
106.264
106.262
106.258
106.253
106.247
106.24
106.233
106.226
106.222
106.219
106.264
106.262
106.258
106.253
106.247
106.24
106.233
106.226
106.222
106.219
106.264
106.262
106.258
106.253
106.247
106.24
106.233
106.226
106.222
106.219
98.8184
98.8124
98.8009
98.7846
98.7647
98.7429
98.7212
98.7019
98.6874
98.6796
98.8184
98.8124
98.8009
98.7846
98.7647
98.7429
98.7212
98.7019
98.6874
98.6796
98.8184
98.8124
98.8009
98.7845
98.7647
98.7428
98.7212
98.7019
98.6874
98.6796
98.8184
98.8124
98.8009
98.7845
98.7647
98.7428
98.7211
98.7019
98.6874
98.6796
98.8183
98.8124
98.8009
98.7845
98.7646
98.7428
98.7211
98.7019
98.6874
98.6796
98.8183
98.8124
98.8009
98.7845
98.7646
98.7428
98.7211
98.7019
98.6874
98.6796
98.8183
98.8124
98.8009
98.7845
98.7646
98.7428
98.7211
98.7019
98.6874
98.6796
98.8183
98.8124
98.8009
98.7845
98.7647
98.7428
98.7211
98.7019
98.6874
98.6796
98.8184
98.8124
98.8009
98.7845
98.7647
98.7428
98.7212
98.7019
98.6874
98.6796
98.8184
98.8124
98.8009
98.7846
98.7647
98.7429
98.7212
98.7019
98.6874
98.6796
91.4494
91.4391
91.4193
91.3911
91.3565
91.3183
91.28
91.2458
91.2198
91.2058
91.4494
91.4391
91.4193
91.3911
91.3565
91.3183
91.28
91.2458
91.2198
91.2057
91.4494
91.4391
91.4193
91.391
91.3565
91.3183
91.28
91.2458
91.2198
91.2057
91.4493
91.4391
91.4192
91.391
91.3565
91.3183
91.28
91.2458
91.2198
91.2057
91.4493
91.4391
91.4192
91.391
91.3564
91.3183
91.28
91.2457
91.2198
91.2057
91.4493
91.4391
91.4192
91.391
91.3564
91.3183
91.28
91.2457
91.2198
91.2057
91.4493
91.4391
91.4192
91.391
91.3564
91.3183
91.28
91.2457
91.2198
91.2057
91.4493
91.4391
91.4192
91.391
91.3565
91.3183
91.28
91.2458
91.2198
91.2057
91.4494
91.4391
91.4193
91.391
91.3565
91.3183
91.28
91.2458
91.2198
91.2057
91.4494
91.4391
91.4193
91.3911
91.3565
91.3183
91.28
91.2458
91.2198
91.2058
84.2073
84.1924
84.1633
84.1218
84.0704
84.013
83.9548
83.902
83.8614
83.8392
84.2073
84.1924
84.1633
84.1217
84.0704
84.013
83.9548
83.902
83.8614
83.8392
84.2073
84.1923
84.1633
84.1217
84.0703
84.013
83.9548
83.9019
83.8613
83.8391
84.2073
84.1923
84.1633
84.1217
84.0703
84.013
83.9547
83.9019
83.8613
83.8391
84.2073
84.1923
84.1632
84.1217
84.0703
84.013
83.9547
83.9019
83.8613
83.8391
84.2073
84.1923
84.1632
84.1217
84.0703
84.013
83.9547
83.9019
83.8613
83.8391
84.2073
84.1923
84.1632
84.1217
84.0703
84.013
83.9547
83.9019
83.8613
83.8391
84.2073
84.1923
84.1633
84.1217
84.0703
84.013
83.9548
83.9019
83.8613
83.8391
84.2073
84.1923
84.1633
84.1217
84.0703
84.013
83.9548
83.9019
83.8613
83.8391
84.2073
84.1924
84.1633
84.1217
84.0704
84.013
83.9548
83.902
83.8614
83.8392
77.1406
77.1204
77.0811
77.0243
76.9534
76.8729
76.7896
76.7124
76.6519
76.6182
77.1406
77.1204
77.081
77.0243
76.9533
76.8728
76.7896
76.7124
76.6518
76.6181
77.1405
77.1204
77.081
77.0243
76.9533
76.8728
76.7896
76.7124
76.6518
76.6181
77.1405
77.1204
77.081
77.0243
76.9533
76.8728
76.7895
76.7124
76.6518
76.6181
77.1405
77.1204
77.081
77.0243
76.9533
76.8728
76.7895
76.7124
76.6518
76.6181
77.1405
77.1204
77.081
77.0243
76.9533
76.8728
76.7895
76.7124
76.6518
76.6181
77.1405
77.1204
77.081
77.0243
76.9533
76.8728
76.7895
76.7124
76.6518
76.6181
77.1405
77.1204
77.081
77.0243
76.9533
76.8728
76.7895
76.7124
76.6518
76.6181
77.1405
77.1204
77.081
77.0243
76.9533
76.8728
76.7896
76.7124
76.6518
76.6181
77.1405
77.1204
77.0811
77.0243
76.9533
76.8729
76.7896
76.7124
76.6518
76.6182
70.2951
70.2693
70.2186
70.1448
70.051
69.9423
69.8269
69.7166
69.6271
69.5757
70.295
70.2693
70.2186
70.1447
70.0509
69.9423
69.8269
69.7166
69.627
69.5757
70.295
70.2692
70.2185
70.1447
70.0509
69.9423
69.8269
69.7166
69.627
69.5757
70.295
70.2692
70.2185
70.1447
70.0509
69.9422
69.8269
69.7165
69.627
69.5757
70.295
70.2692
70.2185
70.1447
70.0509
69.9422
69.8268
69.7165
69.627
69.5757
70.295
70.2692
70.2185
70.1447
70.0508
69.9422
69.8268
69.7165
69.627
69.5757
70.295
70.2692
70.2185
70.1447
70.0509
69.9422
69.8268
69.7165
69.627
69.5757
70.295
70.2692
70.2185
70.1447
70.0509
69.9422
69.8269
69.7165
69.627
69.5757
70.295
70.2692
70.2186
70.1447
70.0509
69.9423
69.8269
69.7166
69.627
69.5757
70.295
70.2693
70.2186
70.1447
70.0509
69.9423
69.8269
69.7166
69.627
69.5757
63.7136
63.682
63.6194
63.5269
63.4072
63.2649
63.1083
62.9516
62.8176
62.7368
63.7136
63.682
63.6193
63.5269
63.4072
63.2649
63.1082
62.9516
62.8176
62.7367
63.7136
63.6819
63.6193
63.5269
63.4072
63.2648
63.1082
62.9515
62.8176
62.7367
63.7135
63.6819
63.6193
63.5268
63.4071
63.2648
63.1082
62.9515
62.8175
62.7367
63.7135
63.6819
63.6193
63.5268
63.4071
63.2648
63.1081
62.9515
62.8175
62.7367
63.7135
63.6819
63.6193
63.5268
63.4071
63.2648
63.1081
62.9515
62.8175
62.7367
63.7135
63.6819
63.6193
63.5268
63.4071
63.2648
63.1081
62.9515
62.8175
62.7367
63.7135
63.6819
63.6193
63.5269
63.4072
63.2648
63.1082
62.9515
62.8176
62.7367
63.7136
63.6819
63.6193
63.5269
63.4072
63.2648
63.1082
62.9516
62.8176
62.7367
63.7136
63.682
63.6193
63.5269
63.4072
63.2649
63.1082
62.9516
62.8176
62.7368
57.4351
57.3979
57.3236
57.2124
57.0651
56.8842
56.6759
56.4541
56.2485
56.1122
57.4351
57.3979
57.3235
57.2123
57.0651
56.8842
56.6758
56.454
56.2484
56.1122
57.435
57.3978
57.3235
57.2123
57.065
56.8842
56.6758
56.454
56.2484
56.1122
57.435
57.3978
57.3235
57.2123
57.065
56.8841
56.6758
56.454
56.2484
56.1121
57.435
57.3978
57.3235
57.2122
57.065
56.8841
56.6757
56.454
56.2483
56.1121
57.435
57.3978
57.3235
57.2122
57.065
56.8841
56.6757
56.454
56.2483
56.1121
57.435
57.3978
57.3235
57.2122
57.065
56.8841
56.6758
56.454
56.2484
56.1121
57.435
57.3978
57.3235
57.2123
57.065
56.8841
56.6758
56.454
56.2484
56.1122
57.4351
57.3978
57.3235
57.2123
57.065
56.8842
56.6758
56.454
56.2484
56.1122
57.4351
57.3979
57.3235
57.2123
57.0651
56.8842
56.6759
56.4541
56.2485
56.1122
51.4936
51.4517
51.3675
51.2396
51.0664
50.8457
50.5771
50.2664
49.941
49.686
51.4935
51.4517
51.3674
51.2396
51.0663
50.8457
50.577
50.2663
49.941
49.6859
51.4935
51.4516
51.3674
51.2395
51.0663
50.8456
50.577
50.2663
49.941
49.6859
51.4935
51.4516
51.3673
51.2395
51.0662
50.8456
50.577
50.2662
49.9409
49.6858
51.4934
51.4516
51.3673
51.2395
51.0662
50.8456
50.5769
50.2662
49.9409
49.6858
51.4934
51.4516
51.3673
51.2395
51.0662
50.8456
50.5769
50.2662
49.9409
49.6858
51.4934
51.4516
51.3673
51.2395
51.0662
50.8456
50.577
50.2662
49.9409
49.6858
51.4935
51.4516
51.3674
51.2395
51.0663
50.8456
50.577
50.2663
49.9409
49.6859
51.4935
51.4516
51.3674
51.2395
51.0663
50.8457
50.577
50.2663
49.941
49.6859
51.4935
51.4517
51.3674
51.2396
51.0663
50.8457
50.5771
50.2663
49.941
49.686
45.917
45.8724
45.7819
45.6431
45.4511
45.1978
44.8707
44.4522
43.9309
43.3783
45.917
45.8723
45.7819
45.643
45.451
45.1977
44.8706
44.4521
43.9308
43.3783
45.9169
45.8723
45.7818
45.643
45.451
45.1977
44.8706
44.4521
43.9308
43.3782
45.9169
45.8722
45.7818
45.643
45.4509
45.1977
44.8706
44.452
43.9308
43.3782
45.9169
45.8722
45.7818
45.643
45.4509
45.1977
44.8705
44.452
43.9308
43.3782
45.9169
45.8722
45.7818
45.643
45.4509
45.1977
44.8705
44.452
43.9308
43.3782
45.9169
45.8722
45.7818
45.643
45.4509
45.1977
44.8705
44.452
43.9308
43.3782
45.9169
45.8722
45.7818
45.643
45.4509
45.1977
44.8706
44.4521
43.9308
43.3782
45.9169
45.8723
45.7819
45.643
45.451
45.1977
44.8706
44.4521
43.9308
43.3783
45.917
45.8723
45.7819
45.6431
45.451
45.1978
44.8707
44.4522
43.9309
43.3783
40.7264
40.6817
40.5909
40.4506
40.2543
39.9895
39.6319
39.1295
38.355
36.9344
40.7264
40.6817
40.5908
40.4505
40.2542
39.9894
39.6318
39.1294
38.355
36.9343
40.7264
40.6816
40.5908
40.4505
40.2542
39.9894
39.6318
39.1294
38.3549
36.9342
40.7263
40.6816
40.5908
40.4505
40.2541
39.9894
39.6318
39.1293
38.3549
36.9342
40.7263
40.6816
40.5907
40.4504
40.2541
39.9893
39.6317
39.1293
38.3549
36.9342
40.7263
40.6816
40.5907
40.4504
40.2541
39.9893
39.6317
39.1293
38.3549
36.9342
40.7263
40.6816
40.5907
40.4504
40.2541
39.9894
39.6317
39.1293
38.3549
36.9342
40.7263
40.6816
40.5908
40.4505
40.2541
39.9894
39.6318
39.1294
38.3549
36.9342
40.7264
40.6816
40.5908
40.4505
40.2542
39.9894
39.6318
39.1294
38.355
36.9343
40.7264
40.6817
40.5909
40.4506
40.2542
39.9895
39.6319
39.1295
38.355
36.9343
35.9349
35.8933
35.8091
35.6795
35.4992
35.2576
34.9348
34.4928
33.8619
32.9359
35.9348
35.8932
35.809
35.6794
35.4991
35.2575
34.9347
34.4927
33.8618
32.9358
35.9348
35.8932
35.809
35.6794
35.4991
35.2575
34.9347
34.4927
33.8617
32.9358
35.9348
35.8932
35.8089
35.6794
35.499
35.2575
34.9347
34.4926
33.8617
32.9357
35.9348
35.8932
35.8089
35.6794
35.499
35.2574
34.9346
34.4926
33.8617
32.9357
35.9348
35.8932
35.8089
35.6794
35.499
35.2574
34.9346
34.4926
33.8617
32.9357
35.9348
35.8932
35.8089
35.6794
35.499
35.2575
34.9347
34.4926
33.8617
32.9357
35.9348
35.8932
35.809
35.6794
35.4991
35.2575
34.9347
34.4927
33.8617
32.9357
35.9348
35.8932
35.809
35.6794
35.4991
35.2575
34.9347
34.4927
33.8618
32.9358
35.9349
35.8933
35.809
35.6795
35.4992
35.2576
34.9348
34.4928
33.8618
32.9359
31.5468
31.5115
31.4407
31.3338
31.1889
31.0025
30.768
30.4761
30.1209
29.7304
31.5468
31.5115
31.4407
31.3337
31.1888
31.0024
30.7679
30.476
30.1208
29.7303
31.5467
31.5114
31.4406
31.3337
31.1888
31.0024
30.7679
30.476
30.1208
29.7303
31.5467
31.5114
31.4406
31.3336
31.1888
31.0024
30.7679
30.4759
30.1207
29.7302
31.5467
31.5114
31.4406
31.3336
31.1888
31.0023
30.7679
30.4759
30.1207
29.7302
31.5467
31.5114
31.4406
31.3336
31.1888
31.0023
30.7679
30.4759
30.1207
29.7302
31.5467
31.5114
31.4406
31.3336
31.1888
31.0024
30.7679
30.4759
30.1207
29.7302
31.5467
31.5114
31.4406
31.3337
31.1888
31.0024
30.7679
30.4759
30.1208
29.7303
31.5468
31.5115
31.4407
31.3337
31.1888
31.0024
30.7679
30.476
30.1208
29.7303
31.5468
31.5115
31.4407
31.3338
31.1889
31.0025
30.768
30.4761
30.1209
29.7304
27.5585
27.5319
27.4799
27.4043
27.3084
27.1969
27.0771
26.9627
26.8826
26.9026
27.5585
27.5319
27.4798
27.4043
27.3084
27.1969
27.0771
26.9626
26.8825
26.9026
27.5584
27.5318
27.4798
27.4042
27.3083
27.1968
27.077
26.9625
26.8824
26.9025
27.5584
27.5318
27.4797
27.4042
27.3083
27.1968
27.077
26.9625
26.8824
26.9025
27.5584
27.5318
27.4797
27.4042
27.3083
27.1968
27.077
26.9625
26.8824
26.9024
27.5584
27.5318
27.4797
27.4042
27.3083
27.1968
27.077
26.9625
26.8824
26.9024
27.5584
27.5318
27.4797
27.4042
27.3083
27.1968
27.077
26.9625
26.8824
26.9025
27.5584
27.5318
27.4798
27.4042
27.3083
27.1968
27.077
26.9625
26.8824
26.9025
27.5584
27.5319
27.4798
27.4042
27.3084
27.1969
27.0771
26.9626
26.8825
26.9025
27.5585
27.5319
27.4798
27.4043
27.3084
27.1969
27.0771
26.9626
26.8825
26.9026
23.9589
23.9424
23.9119
23.8721
23.8312
23.8011
23.8004
23.8568
24.0134
24.3381
23.9588
23.9424
23.9118
23.8721
23.8311
23.8011
23.8003
23.8567
24.0134
24.338
23.9588
23.9423
23.9118
23.872
23.8311
23.801
23.8003
23.8566
24.0133
24.3379
23.9588
23.9423
23.9118
23.872
23.831
23.801
23.8003
23.8566
24.0133
24.3379
23.9587
23.9423
23.9117
23.872
23.831
23.801
23.8003
23.8566
24.0133
24.3379
23.9587
23.9423
23.9117
23.872
23.831
23.801
23.8003
23.8566
24.0133
24.3379
23.9588
23.9423
23.9118
23.872
23.831
23.801
23.8003
23.8566
24.0133
24.3379
23.9588
23.9423
23.9118
23.872
23.831
23.801
23.8003
23.8566
24.0133
24.3379
23.9588
23.9424
23.9118
23.8721
23.8311
23.8011
23.8003
23.8567
24.0134
24.338
23.9588
23.9424
23.9119
23.8721
23.8311
23.8011
23.8004
23.8567
24.0134
24.338
20.7311
20.7249
20.7161
20.712
20.7246
20.7723
20.8812
21.088
21.4416
22.0027
20.731
20.7248
20.716
20.7119
20.7246
20.7722
20.8811
21.088
21.4415
22.0026
20.731
20.7248
20.716
20.7119
20.7245
20.7722
20.8811
21.0879
21.4415
22.0026
20.731
20.7248
20.716
20.7118
20.7245
20.7722
20.8811
21.0879
21.4415
22.0025
20.7309
20.7248
20.7159
20.7118
20.7245
20.7721
20.8811
21.0879
21.4414
22.0025
20.7309
20.7248
20.7159
20.7118
20.7245
20.7721
20.8811
21.0879
21.4414
22.0025
20.731
20.7248
20.716
20.7118
20.7245
20.7721
20.8811
21.0879
21.4415
22.0025
20.731
20.7248
20.716
20.7119
20.7245
20.7722
20.8811
21.0879
21.4415
22.0025
20.731
20.7248
20.716
20.7119
20.7246
20.7722
20.8811
21.088
21.4415
22.0026
20.731
20.7249
20.7161
20.7119
20.7246
20.7723
20.8812
21.088
21.4416
22.0027
17.8542
17.8573
17.868
17.8953
17.9545
18.0681
18.2687
18.6003
19.1181
19.8811
17.8541
17.8573
17.8679
17.8952
17.9544
18.0681
18.2686
18.6002
19.118
19.881
17.8541
17.8572
17.8679
17.8952
17.9544
18.068
18.2686
18.6002
19.118
19.8809
17.8541
17.8572
17.8678
17.8952
17.9543
18.068
18.2686
18.6001
19.118
19.8809
17.8541
17.8572
17.8678
17.8952
17.9543
18.068
18.2686
18.6001
19.1179
19.8809
17.8541
17.8572
17.8678
17.8952
17.9543
18.068
18.2686
18.6001
19.118
19.8809
17.8541
17.8572
17.8678
17.8952
17.9543
18.068
18.2686
18.6001
19.118
19.8809
17.8541
17.8572
17.8679
17.8952
17.9544
18.068
18.2686
18.6002
19.118
19.8809
17.8541
17.8572
17.8679
17.8952
17.9544
18.0681
18.2686
18.6002
19.118
19.881
17.8541
17.8573
17.8679
17.8953
17.9545
18.0681
18.2687
18.6003
19.1181
19.8811
15.3049
15.3154
15.3414
15.3929
15.4868
15.6485
15.9152
16.3394
16.991
17.9477
15.3048
15.3154
15.3413
15.3929
15.4867
15.6484
15.9151
16.3393
16.991
17.9476
15.3048
15.3153
15.3413
15.3928
15.4867
15.6484
15.9151
16.3393
16.9909
17.9476
15.3048
15.3153
15.3413
15.3928
15.4867
15.6483
15.915
16.3393
16.9909
17.9476
15.3047
15.3153
15.3413
15.3928
15.4867
15.6483
15.915
16.3393
16.9909
17.9476
15.3047
15.3153
15.3413
15.3928
15.4867
15.6483
15.915
16.3393
16.9909
17.9476
15.3048
15.3153
15.3413
15.3928
15.4867
15.6483
15.915
16.3393
16.9909
17.9476
15.3048
15.3153
15.3413
15.3928
15.4867
15.6484
15.9151
16.3393
16.9909
17.9476
15.3048
15.3154
15.3413
15.3929
15.4867
15.6484
15.9151
16.3393
16.991
17.9477
15.3048
15.3154
15.3414
15.3929
15.4868
15.6485
15.9152
16.3394
16.991
17.9477
13.059
13.0745
13.1105
13.1769
13.2905
13.4769
13.7751
14.245
14.9813
16.1293
13.0589
13.0745
13.1104
13.1768
13.2904
13.4768
13.775
14.2449
14.9812
16.1292
13.0589
13.0745
13.1104
13.1768
13.2904
13.4768
13.775
14.2449
14.9812
16.1292
13.0589
13.0744
13.1104
13.1768
13.2904
13.4768
13.775
14.2448
14.9811
16.1291
13.0589
13.0744
13.1104
13.1768
13.2903
13.4768
13.7749
14.2448
14.9811
16.1291
13.0589
13.0744
13.1104
13.1768
13.2903
13.4768
13.7749
14.2448
14.9811
16.1291
13.0589
13.0744
13.1104
13.1768
13.2904
13.4768
13.775
14.2449
14.9811
16.1291
13.0589
13.0745
13.1104
13.1768
13.2904
13.4768
13.775
14.2449
14.9812
16.1292
13.0589
13.0745
13.1104
13.1768
13.2904
13.4768
13.775
14.2449
14.9812
16.1292
13.059
13.0745
13.1105
13.1769
13.2905
13.4769
13.7751
14.245
14.9813
16.1293
11.0927
11.1108
11.1511
11.2226
11.3399
11.525
11.8114
12.2538
12.9574
14.1874
11.0927
11.1107
11.151
11.2226
11.3398
11.5249
11.8114
12.2538
12.9573
14.1873
11.0927
11.1107
11.151
11.2225
11.3398
11.5249
11.8113
12.2537
12.9573
14.1873
11.0926
11.1107
11.151
11.2225
11.3398
11.5249
11.8113
12.2537
12.9573
14.1872
11.0926
11.1107
11.151
11.2225
11.3398
11.5249
11.8113
12.2537
12.9573
14.1872
11.0926
11.1107
11.151
11.2225
11.3398
11.5249
11.8113
12.2537
12.9573
14.1872
11.0926
11.1107
11.151
11.2225
11.3398
11.5249
11.8113
12.2537
12.9573
14.1872
11.0927
11.1107
11.151
11.2225
11.3398
11.5249
11.8113
12.2537
12.9573
14.1873
11.0927
11.1107
11.151
11.2226
11.3398
11.5249
11.8114
12.2538
12.9574
14.1873
11.0927
11.1107
11.1511
11.2226
11.3399
11.525
11.8114
12.2538
12.9574
14.1874
33.5376
32.5007
33.1127
35.1449
38.5831
43.5515
50.3161
59.3482
71.5013
88.483
33.5375
32.5006
33.1126
35.1448
38.5829
43.5514
50.316
59.348
71.5011
88.4829
33.5375
32.5006
33.1125
35.1448
38.5829
43.5513
50.3159
59.3479
71.501
88.4828
33.5374
32.5005
33.1124
35.1447
38.5828
43.5512
50.3158
59.3478
71.501
88.4827
33.5374
32.5005
33.1124
35.1447
38.5828
43.5512
50.3158
59.3478
71.5009
88.4827
33.5374
32.5005
33.1124
35.1447
38.5828
43.5512
50.3157
59.3478
71.5009
88.4827
33.5374
32.5005
33.1124
35.1447
38.5828
43.5512
50.3158
59.3478
71.5009
88.4827
33.5374
32.5005
33.1125
35.1447
38.5828
43.5513
50.3158
59.3479
71.501
88.4827
33.5375
32.5006
33.1125
35.1448
38.5829
43.5513
50.3159
59.3479
71.5011
88.4828
33.5375
32.5006
33.1126
35.1448
38.5829
43.5514
50.316
59.348
71.5012
88.4829
31.7087
31.4358
32.3261
34.4216
37.7836
42.5342
48.8745
57.0988
67.5879
80.655
31.7086
31.4357
32.326
34.4215
37.7834
42.5341
48.8744
57.0987
67.5878
80.6549
31.7085
31.4356
32.3259
34.4215
37.7834
42.534
48.8743
57.0986
67.5877
80.6548
31.7085
31.4356
32.3259
34.4214
37.7833
42.5339
48.8742
57.0985
67.5876
80.6547
31.7085
31.4356
32.3259
34.4214
37.7833
42.5339
48.8742
57.0985
67.5876
80.6546
31.7085
31.4356
32.3259
34.4214
37.7833
42.5339
48.8742
57.0985
67.5876
80.6546
31.7085
31.4356
32.3259
34.4214
37.7833
42.5339
48.8742
57.0985
67.5876
80.6547
31.7085
31.4356
32.3259
34.4214
37.7833
42.534
48.8743
57.0986
67.5877
80.6547
31.7086
31.4357
32.326
34.4215
37.7834
42.534
48.8743
57.0987
67.5877
80.6548
31.7086
31.4357
32.326
34.4216
37.7835
42.5341
48.8745
57.0988
67.5879
80.6549
29.4632
29.793
30.9673
33.1126
36.3236
40.7028
46.3711
53.4521
62.007
71.8497
29.4631
29.7929
30.9673
33.1125
36.3235
40.7027
46.371
53.452
62.0068
71.8496
29.463
29.7929
30.9672
33.1124
36.3234
40.7026
46.3709
53.4519
62.0067
71.8495
29.463
29.7928
30.9671
33.1124
36.3233
40.7026
46.3708
53.4518
62.0067
71.8494
29.463
29.7928
30.9671
33.1124
36.3233
40.7025
46.3708
53.4518
62.0066
71.8494
29.463
29.7928
30.9671
33.1124
36.3233
40.7025
46.3708
53.4518
62.0066
71.8494
29.463
29.7928
30.9671
33.1124
36.3233
40.7025
46.3708
53.4518
62.0067
71.8494
29.463
29.7928
30.9672
33.1124
36.3234
40.7026
46.3709
53.4519
62.0067
71.8495
29.4631
29.7929
30.9672
33.1125
36.3234
40.7027
46.371
53.452
62.0068
71.8496
29.4631
29.793
30.9673
33.1126
36.3235
40.7028
46.3711
53.4521
62.0069
71.8497
27.1619
27.8907
29.2679
31.4143
34.4182
38.3514
43.2695
49.1901
56.0385
63.549
27.1618
27.8906
29.2678
31.4142
34.4181
38.3513
43.2694
49.19
56.0384
63.5488
27.1618
27.8906
29.2677
31.4142
34.418
38.3512
43.2693
49.1899
56.0383
63.5487
27.1617
27.8905
29.2677
31.4141
34.4179
38.3511
43.2693
49.1898
56.0382
63.5487
27.1617
27.8905
29.2677
31.4141
34.4179
38.3511
43.2692
49.1898
56.0382
63.5486
27.1617
27.8905
29.2677
31.4141
34.4179
38.3511
43.2692
49.1898
56.0382
63.5486
27.1617
27.8905
29.2677
31.4141
34.4179
38.3511
43.2692
49.1898
56.0382
63.5487
27.1618
27.8906
29.2677
31.4141
34.418
38.3512
43.2693
49.1898
56.0382
63.5487
27.1618
27.8906
29.2678
31.4142
34.418
38.3513
43.2694
49.1899
56.0383
63.5488
27.1619
27.8907
29.2679
31.4143
34.4181
38.3514
43.2695
49.1901
56.0385
63.549
24.9314
25.9217
27.4244
29.5285
32.2983
35.7748
39.9692
44.8462
50.294
56.0867
24.9313
25.9216
27.4243
29.5284
32.2982
35.7747
39.9691
44.8461
50.2939
56.0866
24.9312
25.9215
27.4242
29.5283
32.2982
35.7746
39.969
44.846
50.2938
56.0865
24.9312
25.9215
27.4242
29.5282
32.2981
35.7746
39.969
44.8459
50.2937
56.0864
24.9312
25.9215
27.4241
29.5282
32.2981
35.7746
39.9689
44.8459
50.2937
56.0864
24.9311
25.9215
27.4241
29.5282
32.2981
35.7746
39.9689
44.8459
50.2937
56.0864
24.9312
25.9215
27.4241
29.5282
32.2981
35.7746
39.969
44.8459
50.2937
56.0864
24.9312
25.9215
27.4242
29.5283
32.2981
35.7746
39.969
44.846
50.2938
56.0865
24.9313
25.9216
27.4243
29.5283
32.2982
35.7747
39.9691
44.8461
50.2939
56.0866
24.9313
25.9217
27.4243
29.5284
32.2983
35.7748
39.9692
44.8462
50.294
56.0867
22.8387
24.0156
25.5971
27.6381
30.177
33.2289
36.7769
40.7622
45.0731
49.5397
22.8386
24.0155
25.597
27.638
30.1769
33.2287
36.7767
40.7621
45.073
49.5396
22.8386
24.0154
25.597
27.638
30.1769
33.2287
36.7767
40.762
45.0729
49.5395
22.8385
24.0154
25.5969
27.6379
30.1768
33.2286
36.7766
40.762
45.0728
49.5394
22.8385
24.0154
25.5969
27.6379
30.1768
33.2286
36.7766
40.7619
45.0728
49.5394
22.8385
24.0154
25.5969
27.6379
30.1768
33.2286
36.7766
40.7619
45.0728
49.5394
22.8385
24.0154
25.5969
27.6379
30.1768
33.2286
36.7766
40.762
45.0728
49.5394
22.8385
24.0154
25.597
27.638
30.1769
33.2287
36.7767
40.762
45.0729
49.5395
22.8386
24.0155
25.597
27.638
30.1769
33.2287
36.7767
40.7621
45.073
49.5396
22.8387
24.0156
25.5971
27.6381
30.177
33.2289
36.7769
40.7622
45.0731
49.5397
20.9311
22.2712
23.919
25.9014
28.2371
30.9227
33.9232
37.1664
40.5446
43.9297
20.931
22.2711
23.9189
25.9013
28.237
30.9226
33.9231
37.1663
40.5445
43.9296
20.9309
22.271
23.9188
25.9012
28.2369
30.9225
33.923
37.1662
40.5444
43.9295
20.9309
22.271
23.9188
25.9012
28.2369
30.9225
33.9229
37.1661
40.5443
43.9294
20.9309
22.271
23.9188
25.9012
28.2368
30.9224
33.9229
37.1661
40.5443
43.9294
20.9309
22.271
23.9188
25.9012
28.2369
30.9224
33.9229
37.1661
40.5443
43.9294
20.9309
22.271
23.9188
25.9012
28.2369
30.9225
33.9229
37.1661
40.5443
43.9294
20.9309
22.271
23.9188
25.9012
28.2369
30.9225
33.923
37.1662
40.5444
43.9295
20.931
22.2711
23.9189
25.9013
28.237
30.9226
33.9231
37.1663
40.5445
43.9296
20.9311
22.2712
23.919
25.9014
28.2371
30.9227
33.9232
37.1664
40.5446
43.9297
19.2473
20.7746
22.5046
24.4525
26.6305
29.0253
31.5883
34.2318
36.8364
39.281
19.2473
20.7745
22.5045
24.4524
26.6304
29.0252
31.5882
34.2317
36.8363
39.2809
19.2472
20.7744
22.5044
24.4524
26.6303
29.0251
31.5881
34.2316
36.8362
39.2808
19.2472
20.7744
22.5044
24.4523
26.6303
29.0251
31.588
34.2316
36.8362
39.2807
19.2471
20.7744
22.5043
24.4523
26.6303
29.025
31.588
34.2316
36.8362
39.2807
19.2471
20.7744
22.5043
24.4523
26.6303
29.0251
31.588
34.2316
36.8362
39.2807
19.2472
20.7744
22.5044
24.4523
26.6303
29.0251
31.588
34.2316
36.8362
39.2807
19.2472
20.7744
22.5044
24.4524
26.6303
29.0251
31.5881
34.2316
36.8363
39.2808
19.2473
20.7745
22.5045
24.4525
26.6304
29.0252
31.5882
34.2317
36.8364
39.2809
19.2473
20.7746
22.5046
24.4525
26.6305
29.0253
31.5883
34.2318
36.8365
39.281
17.8356
19.6191
21.4604
23.4054
25.4804
27.6722
29.9212
32.1164
34.0953
35.6679
17.8356
19.6191
21.4603
23.4053
25.4803
27.6721
29.9211
32.1163
34.0952
35.6678
17.8355
19.619
21.4603
23.4052
25.4802
27.6721
29.921
32.1162
34.0951
35.6677
17.8355
19.619
21.4602
23.4052
25.4802
27.672
29.921
32.1161
34.0951
35.6676
17.8355
19.619
21.4602
23.4052
25.4801
27.672
29.921
32.1161
34.0951
35.6676
17.8355
19.619
21.4602
23.4052
25.4801
27.672
29.921
32.1161
34.0951
35.6676
17.8355
19.619
21.4602
23.4052
25.4802
27.672
29.921
32.1161
34.0951
35.6676
17.8355
19.619
21.4603
23.4052
25.4802
27.6721
29.9211
32.1162
34.0952
35.6677
17.8356
19.6191
21.4603
23.4053
25.4803
27.6722
29.9212
32.1163
34.0953
35.6678
17.8356
19.6192
21.4604
23.4054
25.4804
27.6723
29.9213
32.1164
34.0954
35.6679
16.8307
18.939
20.8924
22.8523
24.8791
26.9661
29.0464
30.9844
32.5505
33.3507
16.8307
18.9389
20.8923
22.8523
24.879
26.966
29.0463
30.9843
32.5504
33.3506
16.8306
18.9389
20.8922
22.8522
24.879
26.966
29.0462
30.9843
32.5503
33.3505
16.8306
18.9388
20.8922
22.8522
24.8789
26.9659
29.0462
30.9842
32.5503
33.3504
16.8306
18.9388
20.8922
22.8522
24.8789
26.9659
29.0461
30.9842
32.5503
33.3504
16.8306
18.9388
20.8922
22.8522
24.8789
26.9659
29.0462
30.9842
32.5503
33.3504
16.8306
18.9388
20.8922
22.8522
24.8789
26.9659
29.0462
30.9842
32.5503
33.3505
16.8307
18.9389
20.8923
22.8522
24.879
26.966
29.0462
30.9843
32.5504
33.3505
16.8307
18.9389
20.8923
22.8523
24.8791
26.9661
29.0463
30.9844
32.5504
33.3506
16.8308
18.939
20.8924
22.8524
24.8792
26.9662
29.0464
30.9845
32.5506
33.3507
114.248
126.483
133.969
139.201
143.065
145.962
148.106
149.626
150.601
151.077
114.248
126.483
133.969
139.2
143.065
145.962
148.106
149.626
150.601
151.077
114.248
126.483
133.969
139.2
143.065
145.962
148.106
149.626
150.601
151.077
114.248
126.483
133.969
139.2
143.065
145.962
148.106
149.626
150.601
151.077
114.248
126.483
133.969
139.2
143.065
145.961
148.106
149.626
150.601
151.077
114.248
126.483
133.969
139.2
143.065
145.961
148.106
149.626
150.601
151.077
114.248
126.483
133.969
139.2
143.065
145.962
148.106
149.626
150.601
151.077
114.248
126.483
133.969
139.2
143.065
145.962
148.106
149.626
150.601
151.077
114.248
126.483
133.969
139.2
143.065
145.962
148.106
149.626
150.601
151.077
114.248
126.483
133.969
139.201
143.065
145.962
148.106
149.626
150.601
151.078
95.6493
106.552
114.252
119.831
123.967
127.052
129.323
130.926
131.951
132.451
95.6492
106.552
114.251
119.831
123.967
127.052
129.323
130.926
131.951
132.451
95.6491
106.552
114.251
119.831
123.966
127.052
129.323
130.926
131.95
132.451
95.649
106.552
114.251
119.831
123.966
127.052
129.323
130.926
131.95
132.45
95.649
106.552
114.251
119.831
123.966
127.052
129.323
130.926
131.95
132.45
95.649
106.552
114.251
119.831
123.966
127.052
129.323
130.926
131.95
132.45
95.649
106.552
114.251
119.831
123.966
127.052
129.323
130.926
131.95
132.451
95.6491
106.552
114.251
119.831
123.966
127.052
129.323
130.926
131.951
132.451
95.6492
106.552
114.251
119.831
123.967
127.052
129.323
130.926
131.951
132.451
95.6493
106.552
114.252
119.831
123.967
127.052
129.323
130.926
131.951
132.451
82.1272
90.8396
97.6926
102.967
106.998
110.052
112.317
113.922
114.95
115.452
82.127
90.8394
97.6925
102.966
106.998
110.052
112.317
113.922
114.95
115.452
82.1269
90.8393
97.6923
102.966
106.998
110.052
112.317
113.922
114.95
115.452
82.1269
90.8392
97.6923
102.966
106.998
110.052
112.317
113.922
114.949
115.451
82.1268
90.8392
97.6922
102.966
106.998
110.052
112.317
113.922
114.949
115.451
82.1268
90.8392
97.6922
102.966
106.998
110.052
112.317
113.922
114.949
115.451
82.1269
90.8392
97.6923
102.966
106.998
110.052
112.317
113.922
114.949
115.452
82.1269
90.8393
97.6923
102.966
106.998
110.052
112.317
113.922
114.95
115.452
82.127
90.8394
97.6925
102.966
106.998
110.052
112.317
113.922
114.95
115.452
82.1272
90.8396
97.6926
102.967
106.998
110.052
112.317
113.922
114.95
115.452
71.1443
77.9909
83.744
88.399
92.0803
94.9315
97.0762
98.6088
99.5959
100.079
71.1441
77.9907
83.7438
88.3989
92.0802
94.9314
97.0761
98.6087
99.5957
100.079
71.144
77.9906
83.7437
88.3988
92.0801
94.9313
97.0759
98.6086
99.5956
100.079
71.1439
77.9906
83.7436
88.3987
92.08
94.9312
97.0759
98.6085
99.5955
100.079
71.1439
77.9905
83.7436
88.3987
92.08
94.9312
97.0758
98.6085
99.5955
100.079
71.1439
77.9905
83.7436
88.3987
92.08
94.9312
97.0759
98.6085
99.5955
100.079
71.1439
77.9905
83.7436
88.3987
92.08
94.9312
97.0759
98.6085
99.5956
100.079
71.144
77.9906
83.7437
88.3988
92.0801
94.9313
97.076
98.6086
99.5957
100.079
71.1441
77.9907
83.7438
88.3989
92.0802
94.9314
97.0761
98.6087
99.5958
100.079
71.1443
77.9909
83.744
88.399
92.0804
94.9316
97.0763
98.6089
99.596
100.079
61.8671
67.2228
71.9069
75.842
79.0495
81.591
83.5341
84.9385
85.8497
86.2978
61.8669
67.2227
71.9068
75.8418
79.0494
81.5908
83.534
84.9384
85.8495
86.2977
61.8668
67.2226
71.9067
75.8417
79.0493
81.5907
83.5339
84.9383
85.8494
86.2976
61.8668
67.2225
71.9066
75.8416
79.0492
81.5906
83.5338
84.9382
85.8494
86.2975
61.8667
67.2225
71.9066
75.8416
79.0492
81.5906
83.5338
84.9382
85.8493
86.2975
61.8667
67.2225
71.9066
75.8416
79.0492
81.5906
83.5338
84.9382
85.8494
86.2975
61.8668
67.2225
71.9066
75.8416
79.0492
81.5906
83.5338
84.9382
85.8494
86.2976
61.8668
67.2226
71.9067
75.8417
79.0493
81.5907
83.5339
84.9383
85.8495
86.2977
61.8669
67.2227
71.9068
75.8418
79.0494
81.5908
83.534
84.9384
85.8496
86.2978
61.8671
67.2228
71.9069
75.842
79.0496
81.591
83.5342
84.9386
85.8498
86.298
53.949
58.0892
61.8068
65.0223
67.7139
69.8938
71.5892
72.8298
73.6415
74.0427
53.9489
58.089
61.8067
65.0222
67.7138
69.8937
71.5891
72.8297
73.6414
74.0425
53.9488
58.0889
61.8066
65.0221
67.7137
69.8936
71.589
72.8296
73.6413
74.0425
53.9487
58.0889
61.8065
65.022
67.7136
69.8935
71.5889
72.8295
73.6412
74.0424
53.9487
58.0888
61.8065
65.022
67.7136
69.8935
71.5889
72.8295
73.6412
74.0424
53.9487
58.0888
61.8065
65.022
67.7136
69.8935
71.5889
72.8295
73.6412
74.0424
53.9487
58.0889
61.8065
65.022
67.7136
69.8936
71.5889
72.8296
73.6413
74.0425
53.9488
58.089
61.8066
65.0221
67.7137
69.8936
71.589
72.8296
73.6413
74.0425
53.9489
58.0891
61.8067
65.0222
67.7138
69.8937
71.5891
72.8298
73.6415
74.0427
53.949
58.0892
61.8068
65.0223
67.714
69.8939
71.5893
72.8299
73.6416
74.0428
47.2076
50.3109
53.1641
55.7019
57.883
59.6893
61.1193
62.1796
62.8797
63.2276
47.2075
50.3107
53.164
55.7018
57.8828
59.6892
61.1191
62.1795
62.8796
63.2275
47.2074
50.3106
53.1639
55.7017
57.8827
59.6891
61.119
62.1794
62.8795
63.2274
47.2073
50.3106
53.1638
55.7016
57.8827
59.689
61.119
62.1793
62.8795
63.2274
47.2073
50.3105
53.1638
55.7016
57.8826
59.689
61.1189
62.1793
62.8794
63.2274
47.2073
50.3106
53.1638
55.7016
57.8826
59.689
61.1189
62.1793
62.8795
63.2274
47.2073
50.3106
53.1638
55.7017
57.8827
59.689
61.119
62.1794
62.8795
63.2274
47.2074
50.3107
53.1639
55.7017
57.8828
59.6891
61.1191
62.1795
62.8796
63.2275
47.2075
50.3108
53.164
55.7018
57.8829
59.6892
61.1192
62.1796
62.8797
63.2276
47.2076
50.3109
53.1642
55.702
57.883
59.6894
61.1193
62.1797
62.8799
63.2278
41.5183
43.681
45.7543
47.673
49.3768
50.8245
51.9934
52.8726
53.4589
53.7519
41.5182
43.6808
45.7542
47.6729
49.3767
50.8244
51.9932