/*--------------------------------*- C++ -*----------------------------------*\
  =========                 |
  \\      /  F ield         | OpenFOAM: The Open Source CFD Toolbox
   \\    /   O peration     | Website:  https://openfoam.org
    \\  /    A nd           | Version:  6
     \\/     M anipulation  |
\*---------------------------------------------------------------------------*/
FoamFile
{
    version     2.0;
    format      ascii;
    class       volScalarField;
    location    "0.615";
    object      T;
}
// * * * * * * * * * * * * * * * * * * * * * * * * * * * * * * * * * * * * * //

dimensions      [0 0 0 1 0 0 0];

internalField   nonuniform List<scalar> 
7000
(
105.958
105.956
105.952
105.945
105.938
105.93
105.922
105.915
105.909
105.907
105.958
105.956
105.952
105.945
105.938
105.93
105.922
105.915
105.909
105.907
105.958
105.956
105.952
105.945
105.938
105.93
105.922
105.915
105.909
105.907
105.958
105.956
105.952
105.945
105.938
105.93
105.922
105.915
105.909
105.907
105.958
105.956
105.952
105.945
105.938
105.93
105.922
105.915
105.909
105.907
105.958
105.956
105.952
105.945
105.938
105.93
105.922
105.915
105.909
105.907
105.958
105.956
105.952
105.945
105.938
105.93
105.922
105.915
105.909
105.907
105.958
105.956
105.952
105.945
105.938
105.93
105.922
105.915
105.909
105.907
105.958
105.956
105.952
105.945
105.938
105.93
105.922
105.915
105.909
105.907
105.958
105.956
105.952
105.945
105.938
105.93
105.922
105.915
105.909
105.907
97.9065
97.8997
97.8866
97.8679
97.8452
97.8202
97.7952
97.773
97.7563
97.7473
97.9065
97.8997
97.8865
97.8679
97.8452
97.8201
97.7952
97.773
97.7563
97.7473
97.9064
97.8997
97.8865
97.8679
97.8452
97.8201
97.7952
97.773
97.7563
97.7473
97.9064
97.8997
97.8865
97.8679
97.8451
97.8201
97.7952
97.773
97.7563
97.7473
97.9064
97.8996
97.8865
97.8679
97.8451
97.8201
97.7952
97.773
97.7563
97.7473
97.9064
97.8996
97.8865
97.8679
97.8451
97.8201
97.7952
97.773
97.7563
97.7473
97.9064
97.8996
97.8865
97.8679
97.8451
97.8201
97.7952
97.773
97.7563
97.7473
97.9064
97.8997
97.8865
97.8679
97.8451
97.8201
97.7952
97.773
97.7563
97.7473
97.9064
97.8997
97.8865
97.8679
97.8452
97.8201
97.7952
97.773
97.7563
97.7473
97.9064
97.8997
97.8865
97.8679
97.8452
97.8201
97.7952
97.773
97.7563
97.7473
89.9511
89.9394
89.9166
89.8841
89.8443
89.8001
89.7557
89.7159
89.6856
89.6692
89.9511
89.9393
89.9165
89.8841
89.8442
89.8001
89.7557
89.7159
89.6856
89.6692
89.9511
89.9393
89.9165
89.8841
89.8442
89.8001
89.7557
89.7158
89.6856
89.6692
89.951
89.9393
89.9165
89.8841
89.8442
89.8
89.7557
89.7158
89.6856
89.6692
89.951
89.9393
89.9165
89.8841
89.8442
89.8
89.7556
89.7158
89.6856
89.6692
89.951
89.9393
89.9165
89.8841
89.8442
89.8
89.7556
89.7158
89.6856
89.6692
89.951
89.9393
89.9165
89.8841
89.8442
89.8
89.7557
89.7158
89.6856
89.6692
89.951
89.9393
89.9165
89.8841
89.8442
89.8
89.7557
89.7158
89.6856
89.6692
89.951
89.9393
89.9165
89.8841
89.8442
89.8001
89.7557
89.7159
89.6856
89.6692
89.9511
89.9393
89.9165
89.8841
89.8442
89.8001
89.7557
89.7159
89.6856
89.6692
82.1541
82.1368
82.1031
82.0548
81.9949
81.9278
81.8594
81.7973
81.7494
81.7231
82.1541
82.1368
82.1031
82.0547
81.9948
81.9277
81.8594
81.7972
81.7493
81.7231
82.1541
82.1368
82.103
82.0547
81.9948
81.9277
81.8594
81.7972
81.7493
81.7231
82.154
82.1367
82.103
82.0547
81.9948
81.9277
81.8594
81.7972
81.7493
81.7231
82.154
82.1367
82.103
82.0547
81.9948
81.9277
81.8594
81.7972
81.7493
81.7231
82.154
82.1367
82.103
82.0547
81.9948
81.9277
81.8594
81.7972
81.7493
81.7231
82.154
82.1367
82.103
82.0547
81.9948
81.9277
81.8594
81.7972
81.7493
81.7231
82.154
82.1367
82.103
82.0547
81.9948
81.9277
81.8594
81.7972
81.7493
81.7231
82.1541
82.1368
82.103
82.0547
81.9948
81.9277
81.8594
81.7972
81.7493
81.7231
82.1541
82.1368
82.1031
82.0547
81.9948
81.9277
81.8594
81.7972
81.7493
81.7231
74.5749
74.5512
74.505
74.4381
74.3541
74.2586
74.1594
74.0673
73.9947
73.9543
74.5748
74.5512
74.5049
74.438
74.3541
74.2586
74.1594
74.0672
73.9947
73.9543
74.5748
74.5512
74.5049
74.438
74.3541
74.2585
74.1594
74.0672
73.9947
73.9543
74.5748
74.5512
74.5049
74.438
74.354
74.2585
74.1594
74.0672
73.9946
73.9542
74.5748
74.5511
74.5048
74.438
74.354
74.2585
74.1593
74.0672
73.9946
73.9542
74.5748
74.5511
74.5048
74.438
74.354
74.2585
74.1593
74.0672
73.9946
73.9542
74.5748
74.5511
74.5049
74.438
74.354
74.2585
74.1594
74.0672
73.9946
73.9542
74.5748
74.5512
74.5049
74.438
74.354
74.2585
74.1594
74.0672
73.9947
73.9543
74.5748
74.5512
74.5049
74.438
74.3541
74.2585
74.1594
74.0672
73.9947
73.9543
74.5748
74.5512
74.5049
74.438
74.3541
74.2586
74.1594
74.0673
73.9947
73.9543
67.2688
67.2381
67.1775
67.089
66.9762
66.8451
66.7053
66.5714
66.4624
66.3999
67.2687
67.238
67.1774
67.0889
66.9761
66.845
66.7053
66.5713
66.4624
66.3999
67.2687
67.238
67.1774
67.0889
66.9761
66.845
66.7053
66.5713
66.4623
66.3998
67.2687
67.2379
67.1774
67.0889
66.9761
66.845
66.7052
66.5713
66.4623
66.3998
67.2687
67.2379
67.1773
67.0889
66.976
66.8449
66.7052
66.5713
66.4623
66.3998
67.2687
67.2379
67.1773
67.0889
66.976
66.8449
66.7052
66.5713
66.4623
66.3998
67.2687
67.2379
67.1774
67.0889
66.976
66.845
66.7052
66.5713
66.4623
66.3998
67.2687
67.2379
67.1774
67.0889
66.9761
66.845
66.7053
66.5713
66.4623
66.3998
67.2687
67.238
67.1774
67.0889
66.9761
66.845
66.7053
66.5713
66.4624
66.3999
67.2687
67.238
67.1774
67.089
66.9761
66.845
66.7053
66.5714
66.4624
66.3999
60.2864
60.248
60.1716
60.0588
59.9121
59.737
59.5438
59.3503
59.1846
59.0846
60.2863
60.2479
60.1716
60.0587
59.912
59.7369
59.5438
59.3502
59.1845
59.0846
60.2863
60.2479
60.1716
60.0587
59.912
59.7369
59.5437
59.3502
59.1845
59.0846
60.2863
60.2478
60.1715
60.0586
59.9119
59.7369
59.5437
59.3501
59.1845
59.0846
60.2863
60.2478
60.1715
60.0586
59.9119
59.7369
59.5437
59.3501
59.1845
59.0845
60.2863
60.2478
60.1715
60.0586
59.9119
59.7369
59.5437
59.3501
59.1845
59.0845
60.2863
60.2478
60.1715
60.0586
59.9119
59.7369
59.5437
59.3501
59.1845
59.0846
60.2863
60.2478
60.1715
60.0587
59.9119
59.7369
59.5437
59.3502
59.1845
59.0846
60.2863
60.2479
60.1716
60.0587
59.912
59.7369
59.5437
59.3502
59.1845
59.0846
60.2863
60.2479
60.1716
60.0587
59.912
59.737
59.5438
59.3502
59.1846
59.0847
53.6724
53.6261
53.5335
53.3946
53.2101
52.9829
52.7208
52.4418
52.1838
52.0134
53.6723
53.6261
53.5335
53.3946
53.2101
52.9829
52.7207
52.4418
52.1837
52.0134
53.6723
53.626
53.5334
53.3945
53.21
52.9828
52.7207
52.4417
52.1837
52.0133
53.6722
53.626
53.5334
53.3945
53.21
52.9828
52.7207
52.4417
52.1836
52.0133
53.6722
53.626
53.5334
53.3945
53.21
52.9828
52.7206
52.4417
52.1836
52.0133
53.6722
53.626
53.5334
53.3945
53.21
52.9828
52.7206
52.4417
52.1836
52.0133
53.6722
53.626
53.5334
53.3945
53.21
52.9828
52.7206
52.4417
52.1836
52.0133
53.6722
53.626
53.5334
53.3945
53.21
52.9828
52.7207
52.4417
52.1837
52.0133
53.6723
53.626
53.5335
53.3946
53.2101
52.9829
52.7207
52.4418
52.1837
52.0134
53.6723
53.6261
53.5335
53.3946
53.2101
52.9829
52.7208
52.4418
52.1838
52.0134
47.4645
47.4111
47.3033
47.1393
46.9165
46.6323
46.2866
45.8885
45.475
45.154
47.4645
47.411
47.3033
47.1393
46.9164
46.6323
46.2866
45.8885
45.4749
45.1539
47.4644
47.411
47.3032
47.1392
46.9164
46.6322
46.2865
45.8884
45.4749
45.1539
47.4644
47.411
47.3032
47.1392
46.9164
46.6322
46.2865
45.8884
45.4748
45.1539
47.4644
47.411
47.3032
47.1392
46.9164
46.6322
46.2865
45.8884
45.4748
45.1539
47.4644
47.4109
47.3032
47.1392
46.9164
46.6322
46.2865
45.8884
45.4748
45.1539
47.4644
47.411
47.3032
47.1392
46.9164
46.6322
46.2865
45.8884
45.4748
45.1539
47.4644
47.411
47.3032
47.1392
46.9164
46.6322
46.2865
45.8884
45.4749
45.1539
47.4644
47.411
47.3032
47.1393
46.9164
46.6323
46.2866
45.8885
45.4749
45.1539
47.4645
47.4111
47.3033
47.1393
46.9165
46.6323
46.2866
45.8885
45.475
45.154
41.6928
41.6339
41.5142
41.33
41.0745
40.7378
40.3048
39.7568
39.0862
38.3911
41.6928
41.6338
41.5141
41.3299
41.0745
40.7377
40.3047
39.7567
39.0861
38.3911
41.6927
41.6338
41.5141
41.3298
41.0744
40.7377
40.3047
39.7567
39.0861
38.391
41.6927
41.6337
41.5141
41.3298
41.0744
40.7376
40.3047
39.7566
39.086
38.391
41.6927
41.6337
41.5141
41.3298
41.0744
40.7376
40.3046
39.7566
39.086
38.391
41.6927
41.6337
41.5141
41.3298
41.0744
40.7376
40.3046
39.7566
39.086
38.391
41.6927
41.6337
41.5141
41.3298
41.0744
40.7376
40.3046
39.7566
39.086
38.391
41.6927
41.6337
41.5141
41.3298
41.0744
40.7377
40.3047
39.7567
39.086
38.391
41.6927
41.6338
41.5141
41.3299
41.0745
40.7377
40.3047
39.7567
39.0861
38.3911
41.6928
41.6338
41.5142
41.3299
41.0745
40.7378
40.3048
39.7568
39.0862
38.3911
36.3781
36.3163
36.1905
35.9955
35.7219
35.3532
34.8593
34.1785
33.1639
31.3863
36.378
36.3162
36.1905
35.9955
35.7218
35.3532
34.8592
34.1784
33.1639
31.3862
36.378
36.3162
36.1904
35.9954
35.7218
35.3531
34.8591
34.1784
33.1638
31.3862
36.3779
36.3162
36.1904
35.9954
35.7218
35.3531
34.8591
34.1783
33.1638
31.3862
36.3779
36.3162
36.1904
35.9954
35.7217
35.3531
34.8591
34.1783
33.1638
31.3861
36.3779
36.3162
36.1904
35.9954
35.7217
35.3531
34.8591
34.1783
33.1638
31.3861
36.3779
36.3162
36.1904
35.9954
35.7218
35.3531
34.8591
34.1783
33.1638
31.3862
36.3779
36.3162
36.1904
35.9954
35.7218
35.3531
34.8591
34.1784
33.1638
31.3862
36.378
36.3162
36.1904
35.9954
35.7218
35.3531
34.8592
34.1784
33.1639
31.3862
36.378
36.3163
36.1905
35.9955
35.7219
35.3532
34.8592
34.1785
33.1639
31.3863
31.5313
31.4702
31.3457
31.1529
30.8829
30.5198
30.0363
29.3832
28.4726
27.1685
31.5312
31.4701
31.3456
31.1529
30.8828
30.5197
30.0363
29.3831
28.4725
27.1684
31.5312
31.47
31.3456
31.1528
30.8828
30.5197
30.0362
29.3831
28.4724
27.1684
31.5312
31.47
31.3456
31.1528
30.8827
30.5197
30.0362
29.3831
28.4724
27.1684
31.5311
31.47
31.3455
31.1528
30.8827
30.5197
30.0362
29.383
28.4724
27.1683
31.5311
31.47
31.3455
31.1528
30.8827
30.5197
30.0362
29.383
28.4724
27.1683
31.5312
31.47
31.3456
31.1528
30.8827
30.5197
30.0362
29.3831
28.4724
27.1683
31.5312
31.47
31.3456
31.1528
30.8828
30.5197
30.0362
29.3831
28.4724
27.1684
31.5312
31.4701
31.3456
31.1529
30.8828
30.5197
30.0363
29.3831
28.4725
27.1684
31.5313
31.4701
31.3457
31.1529
30.8829
30.5198
30.0363
29.3832
28.4725
27.1685
27.1532
27.0962
26.9808
26.8036
26.5589
26.2377
25.8258
25.3043
24.6552
23.8939
27.1532
27.0961
26.9807
26.8035
26.5589
26.2376
25.8257
25.3042
24.6551
23.8938
27.1531
27.0961
26.9806
26.8035
26.5588
26.2375
25.8257
25.3042
24.6551
23.8938
27.1531
27.0961
26.9806
26.8034
26.5588
26.2375
25.8256
25.3041
24.6551
23.8937
27.1531
27.0961
26.9806
26.8034
26.5588
26.2375
25.8256
25.3041
24.655
23.8937
27.1531
27.0961
26.9806
26.8034
26.5588
26.2375
25.8256
25.3041
24.655
23.8937
27.1531
27.0961
26.9806
26.8034
26.5588
26.2375
25.8256
25.3041
24.6551
23.8937
27.1531
27.0961
26.9806
26.8035
26.5588
26.2375
25.8257
25.3042
24.6551
23.8938
27.1531
27.0961
26.9807
26.8035
26.5589
26.2376
25.8257
25.3042
24.6551
23.8938
27.1532
27.0962
26.9807
26.8036
26.5589
26.2377
25.8258
25.3043
24.6552
23.8939
23.2348
23.1848
23.0847
22.9336
22.7307
22.475
22.167
21.8127
21.4331
21.089
23.2347
23.1848
23.0846
22.9336
22.7306
22.4749
22.167
21.8126
21.4331
21.0889
23.2347
23.1847
23.0846
22.9335
22.7306
22.4749
22.1669
21.8126
21.433
21.0888
23.2346
23.1847
23.0846
22.9335
22.7305
22.4748
22.1669
21.8125
21.433
21.0888
23.2346
23.1847
23.0845
22.9335
22.7305
22.4748
22.1669
21.8125
21.433
21.0888
23.2346
23.1847
23.0845
22.9335
22.7305
22.4748
22.1669
21.8125
21.433
21.0888
23.2346
23.1847
23.0846
22.9335
22.7305
22.4748
22.1669
21.8125
21.433
21.0888
23.2346
23.1847
23.0846
22.9335
22.7306
22.4749
22.1669
21.8126
21.433
21.0888
23.2347
23.1848
23.0846
22.9336
22.7306
22.4749
22.167
21.8126
21.4331
21.0889
23.2347
23.1848
23.0847
22.9336
22.7307
22.475
22.167
21.8127
21.4331
21.0889
19.7583
19.7174
19.6365
19.5179
19.3651
19.1851
18.9896
18.7997
18.653
18.6145
19.7582
19.7173
19.6365
19.5178
19.3651
19.185
18.9895
18.7996
18.6529
18.6144
19.7582
19.7173
19.6365
19.5178
19.365
19.185
18.9895
18.7996
18.6528
18.6144
19.7581
19.7172
19.6364
19.5177
19.365
19.185
18.9894
18.7996
18.6528
18.6143
19.7581
19.7172
19.6364
19.5177
19.365
19.1849
18.9894
18.7995
18.6528
18.6143
19.7581
19.7172
19.6364
19.5177
19.365
19.1849
18.9894
18.7995
18.6528
18.6143
19.7581
19.7172
19.6364
19.5177
19.365
19.185
18.9895
18.7996
18.6528
18.6143
19.7582
19.7173
19.6364
19.5178
19.365
19.185
18.9895
18.7996
18.6528
18.6144
19.7582
19.7173
19.6365
19.5178
19.3651
19.185
18.9895
18.7996
18.6529
18.6144
19.7582
19.7174
19.6365
19.5179
19.3651
19.1851
18.9896
18.7997
18.653
18.6145
16.6993
16.6682
16.6082
16.5237
16.4226
16.3175
16.2282
16.1846
16.2298
16.4227
16.6993
16.6682
16.6081
16.5236
16.4225
16.3174
16.2282
16.1845
16.2298
16.4226
16.6992
16.6682
16.6081
16.5236
16.4225
16.3174
16.2281
16.1845
16.2297
16.4226
16.6992
16.6681
16.6081
16.5236
16.4224
16.3174
16.2281
16.1844
16.2297
16.4225
16.6992
16.6681
16.6081
16.5236
16.4224
16.3173
16.2281
16.1844
16.2297
16.4225
16.6992
16.6681
16.6081
16.5236
16.4224
16.3174
16.2281
16.1844
16.2297
16.4225
16.6992
16.6681
16.6081
16.5236
16.4224
16.3174
16.2281
16.1844
16.2297
16.4225
16.6992
16.6681
16.6081
16.5236
16.4225
16.3174
16.2281
16.1845
16.2297
16.4226
16.6993
16.6682
16.6081
16.5236
16.4225
16.3174
16.2282
16.1845
16.2298
16.4226
16.6993
16.6682
16.6082
16.5237
16.4226
16.3175
16.2282
16.1846
16.2298
16.4227
14.0288
14.0072
13.967
13.9146
13.8608
13.8225
13.8249
13.904
14.1075
14.4899
14.0287
14.0071
13.967
13.9146
13.8608
13.8224
13.8248
13.904
14.1074
14.4898
14.0287
14.0071
13.967
13.9146
13.8607
13.8224
13.8248
13.9039
14.1074
14.4898
14.0287
14.0071
13.9669
13.9145
13.8607
13.8223
13.8248
13.9039
14.1073
14.4897
14.0286
14.0071
13.9669
13.9145
13.8607
13.8223
13.8247
13.9039
14.1073
14.4897
14.0286
14.0071
13.9669
13.9145
13.8607
13.8223
13.8247
13.9039
14.1073
14.4897
14.0287
14.0071
13.9669
13.9145
13.8607
13.8223
13.8248
13.9039
14.1073
14.4898
14.0287
14.0071
13.967
13.9146
13.8607
13.8224
13.8248
13.9039
14.1074
14.4898
14.0287
14.0071
13.967
13.9146
13.8608
13.8224
13.8248
13.904
14.1074
14.4898
14.0287
14.0072
13.967
13.9147
13.8608
13.8225
13.8249
13.904
14.1075
14.4899
11.7146
11.7014
11.6784
11.6531
11.6381
11.6527
11.7263
11.9008
12.2334
12.7894
11.7146
11.7014
11.6784
11.6531
11.638
11.6527
11.7262
11.9008
12.2333
12.7894
11.7146
11.7013
11.6784
11.6531
11.638
11.6526
11.7262
11.9007
12.2333
12.7893
11.7145
11.7013
11.6783
11.653
11.638
11.6526
11.7262
11.9007
12.2332
12.7893
11.7145
11.7013
11.6783
11.653
11.6379
11.6526
11.7261
11.9007
12.2332
12.7893
11.7145
11.7013
11.6783
11.653
11.6379
11.6526
11.7261
11.9007
12.2332
12.7893
11.7145
11.7013
11.6783
11.653
11.638
11.6526
11.7262
11.9007
12.2332
12.7893
11.7146
11.7013
11.6784
11.6531
11.638
11.6526
11.7262
11.9007
12.2333
12.7893
11.7146
11.7014
11.6784
11.6531
11.638
11.6527
11.7262
11.9008
12.2333
12.7894
11.7146
11.7014
11.6784
11.6532
11.6381
11.6527
11.7263
11.9008
12.2334
12.7895
9.72396
9.71732
9.70764
9.70255
9.71487
9.76461
9.88239
10.1155
10.5378
11.2615
9.72392
9.71728
9.7076
9.70251
9.71483
9.76456
9.88234
10.1154
10.5377
11.2614
9.72389
9.71725
9.70757
9.70248
9.7148
9.76453
9.88231
10.1154
10.5377
11.2614
9.72387
9.71723
9.70755
9.70246
9.71478
9.76451
9.88228
10.1153
10.5377
11.2614
9.72386
9.71722
9.70754
9.70245
9.71477
9.7645
9.88227
10.1153
10.5377
11.2613
9.72386
9.71722
9.70754
9.70245
9.71477
9.7645
9.88228
10.1153
10.5377
11.2614
9.72387
9.71723
9.70755
9.70246
9.71478
9.76451
9.88229
10.1154
10.5377
11.2614
9.72389
9.71725
9.70757
9.70249
9.7148
9.76454
9.88232
10.1154
10.5377
11.2614
9.72391
9.71728
9.7076
9.70252
9.71484
9.76457
9.88235
10.1154
10.5378
11.2614
9.72395
9.71732
9.70765
9.70256
9.71489
9.76462
9.8824
10.1155
10.5378
11.2615
8.02417
8.02216
8.02146
8.02903
8.05636
8.12108
8.25011
8.4869
8.91303
9.72664
8.02414
8.02212
8.02142
8.02899
8.05632
8.12104
8.25007
8.48686
8.91298
9.72659
8.02411
8.0221
8.0214
8.02897
8.05629
8.12101
8.25004
8.48682
8.91295
9.72656
8.02409
8.02208
8.02138
8.02895
8.05627
8.12099
8.25002
8.4868
8.91293
9.72653
8.02408
8.02207
8.02137
8.02894
8.05627
8.12099
8.25001
8.48679
8.91292
9.72652
8.02408
8.02207
8.02137
8.02894
8.05627
8.12099
8.25001
8.4868
8.91292
9.72653
8.02409
8.02208
8.02138
8.02895
8.05628
8.121
8.25002
8.48681
8.91294
9.72654
8.02411
8.0221
8.0214
8.02897
8.0563
8.12102
8.25005
8.48684
8.91296
9.72657
8.02414
8.02213
8.02143
8.029
8.05633
8.12106
8.25008
8.48687
8.913
9.72661
8.02417
8.02216
8.02147
8.02904
8.05637
8.1211
8.25013
8.48692
8.91305
9.72667
27.3177
25.6842
25.7152
27.1591
29.9934
34.3414
40.472
48.8628
60.375
76.7245
27.3176
25.6841
25.715
27.159
29.9933
34.3413
40.4719
48.8626
60.3748
76.7243
27.3176
25.6841
25.715
27.1589
29.9932
34.3412
40.4718
48.8625
60.3747
76.7242
27.3175
25.684
25.7149
27.1589
29.9931
34.3411
40.4717
48.8624
60.3746
76.7241
27.3175
25.684
25.7149
27.1588
29.9931
34.3411
40.4717
48.8624
60.3746
76.724
27.3175
25.684
25.7149
27.1588
29.9931
34.341
40.4717
48.8624
60.3746
76.724
27.3175
25.684
25.7149
27.1588
29.9931
34.3411
40.4717
48.8624
60.3746
76.7241
27.3175
25.684
25.7149
27.1589
29.9931
34.3411
40.4717
48.8624
60.3747
76.7241
27.3176
25.6841
25.715
27.1589
29.9932
34.3412
40.4718
48.8625
60.3748
76.7242
27.3176
25.6841
25.7151
27.159
29.9933
34.3413
40.4719
48.8626
60.3749
76.7243
25.4322
24.6192
24.952
26.472
29.2397
33.3793
39.0966
46.6931
56.5597
69.0234
25.4321
24.6191
24.9519
26.4719
29.2396
33.3792
39.0965
46.693
56.5595
69.0232
25.4321
24.619
24.9519
26.4718
29.2395
33.3791
39.0964
46.6929
56.5594
69.0231
25.432
24.619
24.9518
26.4718
29.2394
33.379
39.0963
46.6928
56.5593
69.023
25.432
24.619
24.9518
26.4717
29.2394
33.379
39.0963
46.6928
56.5593
69.023
25.432
24.619
24.9518
26.4717
29.2394
33.379
39.0963
46.6928
56.5593
69.023
25.432
24.619
24.9518
26.4718
29.2394
33.379
39.0963
46.6928
56.5593
69.023
25.432
24.619
24.9518
26.4718
29.2394
33.3791
39.0963
46.6928
56.5594
69.0231
25.4321
24.6191
24.9519
26.4719
29.2395
33.3791
39.0964
46.6929
56.5595
69.0232
25.4322
24.6191
24.952
26.472
29.2396
33.3792
39.0965
46.6931
56.5596
69.0233
23.1758
23.0062
23.6484
25.2361
27.8687
31.6539
36.7189
43.1959
51.1566
60.429
23.1758
23.0061
23.6483
25.236
27.8686
31.6537
36.7188
43.1957
51.1565
60.4289
23.1757
23.0061
23.6483
25.2359
27.8685
31.6536
36.7187
43.1956
51.1563
60.4287
23.1757
23.006
23.6482
25.2359
27.8685
31.6536
36.7186
43.1955
51.1563
60.4287
23.1756
23.006
23.6482
25.2359
27.8684
31.6536
36.7186
43.1955
51.1562
60.4286
23.1756
23.006
23.6482
25.2359
27.8684
31.6535
36.7186
43.1955
51.1562
60.4286
23.1756
23.006
23.6482
25.2359
27.8684
31.6536
36.7186
43.1955
51.1563
60.4286
23.1757
23.006
23.6482
25.2359
27.8685
31.6536
36.7186
43.1956
51.1563
60.4287
23.1757
23.0061
23.6483
25.236
27.8686
31.6537
36.7187
43.1957
51.1564
60.4288
23.1758
23.0062
23.6484
25.2361
27.8687
31.6538
36.7188
43.1958
51.1566
60.429
20.9212
21.1741
22.0388
23.6454
26.0895
29.4504
33.7914
39.1391
45.4293
52.4074
20.9211
21.174
22.0387
23.6453
26.0894
29.4502
33.7913
39.139
45.4291
52.4073
20.9211
21.1739
22.0386
23.6452
26.0893
29.4502
33.7912
39.1389
45.429
52.4072
20.921
21.1739
22.0386
23.6452
26.0893
29.4501
33.7911
39.1388
45.4289
52.4071
20.921
21.1739
22.0385
23.6451
26.0892
29.4501
33.7911
39.1388
45.4289
52.4071
20.921
21.1739
22.0385
23.6451
26.0892
29.4501
33.7911
39.1388
45.4289
52.4071
20.921
21.1739
22.0386
23.6451
26.0893
29.4501
33.7911
39.1388
45.4289
52.4071
20.9211
21.1739
22.0386
23.6452
26.0893
29.4501
33.7912
39.1389
45.429
52.4072
20.9211
21.174
22.0387
23.6453
26.0894
29.4502
33.7912
39.139
45.4291
52.4073
20.9212
21.1741
22.0388
23.6454
26.0895
29.4503
33.7914
39.1391
45.4292
52.4074
18.7885
19.3134
20.3157
21.8945
24.1233
27.0514
30.6991
35.0402
39.9723
45.2782
18.7885
19.3133
20.3156
21.8944
24.1232
27.0513
30.699
35.0401
39.9722
45.2781
18.7884
19.3133
20.3155
21.8943
24.1231
27.0512
30.6989
35.04
39.9721
45.278
18.7884
19.3132
20.3155
21.8943
24.1231
27.0512
30.6988
35.0399
39.972
45.2779
18.7883
19.3132
20.3154
21.8943
24.123
27.0512
30.6988
35.0399
39.972
45.2779
18.7883
19.3132
20.3154
21.8943
24.123
27.0512
30.6988
35.0399
39.972
45.2779
18.7884
19.3132
20.3155
21.8943
24.1231
27.0512
30.6988
35.0399
39.972
45.2779
18.7884
19.3132
20.3155
21.8943
24.1231
27.0512
30.6989
35.04
39.9721
45.278
18.7884
19.3133
20.3156
21.8944
24.1232
27.0513
30.699
35.0401
39.9722
45.2781
18.7885
19.3134
20.3156
21.8945
24.1233
27.0514
30.6991
35.0402
39.9723
45.2782
16.8353
17.5456
18.6303
20.1556
22.1699
24.6975
27.7314
31.2221
35.0665
39.1012
16.8352
17.5455
18.6303
20.1555
22.1698
24.6974
27.7312
31.222
35.0664
39.1011
16.8352
17.5455
18.6302
20.1555
22.1697
24.6973
27.7312
31.2219
35.0663
39.101
16.8351
17.5454
18.6301
20.1554
22.1697
24.6973
27.7311
31.2218
35.0662
39.1009
16.8351
17.5454
18.6301
20.1554
22.1696
24.6973
27.7311
31.2218
35.0662
39.1009
16.8351
17.5454
18.6301
20.1554
22.1696
24.6973
27.7311
31.2218
35.0662
39.1009
16.8351
17.5454
18.6301
20.1554
22.1697
24.6973
27.7311
31.2218
35.0662
39.1009
16.8352
17.5455
18.6302
20.1555
22.1697
24.6973
27.7312
31.2219
35.0663
39.101
16.8352
17.5455
18.6302
20.1555
22.1698
24.6974
27.7312
31.222
35.0664
39.1011
16.8353
17.5456
18.6303
20.1556
22.1699
24.6975
27.7314
31.2221
35.0665
39.1012
15.099
15.9582
17.1029
18.5727
20.3964
22.5803
25.0994
27.892
30.8595
33.8786
15.0989
15.9581
17.1028
18.5726
20.3963
22.5801
25.0992
27.8919
30.8594
33.8785
15.0988
15.958
17.1027
18.5725
20.3962
22.5801
25.0992
27.8918
30.8593
33.8784
15.0988
15.958
17.1027
18.5725
20.3962
22.58
25.0991
27.8917
30.8592
33.8784
15.0988
15.958
17.1027
18.5724
20.3961
22.58
25.0991
27.8917
30.8592
33.8783
15.0988
15.958
17.1027
18.5724
20.3961
22.58
25.0991
27.8917
30.8592
33.8783
15.0988
15.958
17.1027
18.5725
20.3962
22.58
25.0991
27.8917
30.8592
33.8784
15.0988
15.9581
17.1027
18.5725
20.3962
22.5801
25.0992
27.8918
30.8593
33.8784
15.0989
15.9581
17.1028
18.5726
20.3963
22.5802
25.0993
27.8919
30.8594
33.8785
15.099
15.9582
17.1029
18.5727
20.3964
22.5803
25.0994
27.892
30.8595
33.8787
13.6087
14.6231
15.8323
17.2637
18.9375
20.8495
22.9617
25.1989
27.4539
29.6124
13.6087
14.623
15.8322
17.2636
18.9374
20.8494
22.9616
25.1988
27.4537
29.6123
13.6086
14.6229
15.8322
17.2636
18.9374
20.8493
22.9615
25.1987
27.4537
29.6122
13.6086
14.6229
15.8321
17.2635
18.9373
20.8493
22.9615
25.1987
27.4536
29.6122
13.6086
14.6229
15.8321
17.2635
18.9373
20.8493
22.9614
25.1986
27.4536
29.6121
13.6086
14.6229
15.8321
17.2635
18.9373
20.8493
22.9614
25.1986
27.4536
29.6121
13.6086
14.6229
15.8322
17.2635
18.9373
20.8493
22.9615
25.1987
27.4536
29.6122
13.6086
14.6229
15.8322
17.2636
18.9374
20.8493
22.9615
25.1987
27.4537
29.6122
13.6087
14.623
15.8323
17.2636
18.9375
20.8494
22.9616
25.1988
27.4538
29.6123
13.6087
14.6231
15.8323
17.2637
18.9376
20.8495
22.9617
25.1989
27.4539
29.6125
12.4001
13.6141
14.9063
16.3251
17.8991
19.6219
21.445
23.2734
24.9644
26.3474
12.4001
13.614
14.9062
16.325
17.899
19.6218
21.4449
23.2733
24.9643
26.3473
12.4
13.6139
14.9062
16.3249
17.899
19.6218
21.4448
23.2732
24.9642
26.3473
12.4
13.6139
14.9061
16.3249
17.8989
19.6217
21.4448
23.2731
24.9642
26.3472
12.4
13.6139
14.9061
16.3249
17.8989
19.6217
21.4448
23.2731
24.9642
26.3472
12.4
13.6139
14.9061
16.3249
17.8989
19.6217
21.4448
23.2731
24.9642
26.3472
12.4
13.6139
14.9062
16.3249
17.899
19.6217
21.4448
23.2731
24.9642
26.3472
12.4
13.6139
14.9062
16.325
17.899
19.6218
21.4449
23.2732
24.9643
26.3473
12.4001
13.614
14.9063
16.325
17.8991
19.6219
21.4449
23.2733
24.9644
26.3474
12.4002
13.6141
14.9063
16.3251
17.8992
19.622
21.4451
23.2734
24.9645
26.3475
11.5732
13.033
14.4081
15.8323
17.3584
18.9836
20.6526
22.2496
23.5756
24.2885
11.5731
13.0329
14.4081
15.8323
17.3583
18.9835
20.6525
22.2495
23.5755
24.2884
11.5731
13.0329
14.408
15.8322
17.3583
18.9835
20.6525
22.2495
23.5754
24.2883
11.5731
13.0328
14.408
15.8322
17.3583
18.9834
20.6524
22.2494
23.5754
24.2883
11.5731
13.0328
14.408
15.8321
17.3582
18.9834
20.6524
22.2494
23.5754
24.2882
11.5731
13.0328
14.408
15.8321
17.3582
18.9834
20.6524
22.2494
23.5754
24.2882
11.5731
13.0328
14.408
15.8322
17.3583
18.9834
20.6524
22.2494
23.5754
24.2883
11.5731
13.0329
14.4081
15.8322
17.3583
18.9835
20.6525
22.2495
23.5755
24.2883
11.5732
13.0329
14.4081
15.8323
17.3584
18.9836
20.6526
22.2496
23.5755
24.2884
11.5732
13.033
14.4082
15.8324
17.3585
18.9837
20.6527
22.2497
23.5757
24.2885
101.87
113.699
120.854
125.795
129.406
132.086
134.053
135.437
136.32
136.75
101.87
113.699
120.853
125.795
129.406
132.086
134.052
135.437
136.32
136.75
101.869
113.699
120.853
125.795
129.405
132.086
134.052
135.436
136.32
136.75
101.869
113.699
120.853
125.795
129.405
132.085
134.052
135.436
136.319
136.75
101.869
113.699
120.853
125.794
129.405
132.085
134.052
135.436
136.319
136.75
101.869
113.699
120.853
125.794
129.405
132.085
134.052
135.436
136.319
136.75
101.869
113.699
120.853
125.795
129.405
132.085
134.052
135.436
136.319
136.75
101.869
113.699
120.853
125.795
129.405
132.086
134.052
135.436
136.32
136.75
101.869
113.699
120.853
125.795
129.406
132.086
134.052
135.437
136.32
136.75
101.87
113.699
120.853
125.795
129.406
132.086
134.053
135.437
136.32
136.75
83.4574
93.9004
101.214
106.463
110.316
113.163
115.242
116.698
117.625
118.075
83.4572
93.9002
101.213
106.463
110.315
113.163
115.242
116.698
117.625
118.075
83.4571
93.9001
101.213
106.463
110.315
113.163
115.241
116.698
117.624
118.075
83.457
93.9
101.213
106.462
110.315
113.163
115.241
116.698
117.624
118.075
83.457
93.8999
101.213
106.462
110.315
113.163
115.241
116.698
117.624
118.075
83.457
93.8999
101.213
106.462
110.315
113.163
115.241
116.698
117.624
118.075
83.457
93.9
101.213
106.462
110.315
113.163
115.241
116.698
117.624
118.075
83.4571
93.9
101.213
106.463
110.315
113.163
115.241
116.698
117.624
118.075
83.4572
93.9002
101.213
106.463
110.315
113.163
115.242
116.698
117.625
118.075
83.4573
93.9003
101.214
106.463
110.315
113.163
115.242
116.698
117.625
118.075
70.1782
78.4262
84.8767
89.8032
93.5375
96.3431
98.408
99.861
100.787
101.238
70.178
78.426
84.8765
89.803
93.5374
96.3429
98.4078
99.8608
100.787
101.238
70.1779
78.4259
84.8764
89.8029
93.5372
96.3428
98.4076
99.8606
100.787
101.238
70.1778
78.4258
84.8763
89.8028
93.5371
96.3427
98.4076
99.8605
100.787
101.238
70.1778
78.4258
84.8762
89.8028
93.5371
96.3427
98.4075
99.8605
100.787
101.238
70.1778
78.4258
84.8762
89.8028
93.5371
96.3427
98.4075
99.8605
100.787
101.238
70.1778
78.4258
84.8763
89.8028
93.5371
96.3427
98.4076
99.8606
100.787
101.238
70.1779
78.4259
84.8764
89.8029
93.5372
96.3428
98.4077
99.8607
100.787
101.238
70.178
78.426
84.8765
89.8031
93.5374
96.343
98.4078
99.8608
100.787
101.238
70.1782
78.4262
84.8767
89.8032
93.5376
96.3432
98.408
99.861
100.787
101.238
59.5086
65.9099
71.2689
75.5797
78.9651
81.5679
83.5122
84.8932
85.7784
86.2108
59.5085
65.9098
71.2687
75.5796
78.9649
81.5677
83.512
84.893
85.7782
86.2106
59.5083
65.9096
71.2686
75.5794
78.9648
81.5676
83.5119
84.8929
85.7781
86.2105
59.5083
65.9096
71.2685
75.5794
78.9647
81.5675
83.5118
84.8928
85.7781
86.2104
59.5082
65.9095
71.2685
75.5793
78.9646
81.5675
83.5118
84.8927
85.778
86.2104
59.5082
65.9095
71.2685
75.5793
78.9646
81.5675
83.5118
84.8928
85.778
86.2104
59.5083
65.9096
71.2685
75.5794
78.9647
81.5675
83.5118
84.8928
85.7781
86.2105
59.5083
65.9096
71.2686
75.5795
78.9648
81.5676
83.5119
84.8929
85.7782
86.2106
59.5084
65.9098
71.2687
75.5796
78.9649
81.5678
83.5121
84.8931
85.7784
86.2108
59.5086
65.9099
71.2689
75.5798
78.9651
81.568
83.5123
84.8933
85.7786
86.211
50.6079
55.5538
59.8705
63.4808
66.4065
68.71
70.4602
71.7182
72.5308
72.9294
50.6078
55.5537
59.8703
63.4806
66.4064
68.7098
70.46
71.718
72.5306
72.9293
50.6077
55.5535
59.8702
63.4805
66.4063
68.7097
70.4599
71.7179
72.5305
72.9292
50.6076
55.5535
59.8701
63.4804
66.4062
68.7096
70.4598
71.7178
72.5305
72.9291
50.6076
55.5534
59.8701
63.4804
66.4061
68.7096
70.4598
71.7178
72.5304
72.9291
50.6076
55.5534
59.8701
63.4804
66.4061
68.7096
70.4598
71.7178
72.5304
72.9291
50.6076
55.5535
59.8701
63.4804
66.4062
68.7096
70.4599
71.7178
72.5305
72.9292
50.6077
55.5535
59.8702
63.4805
66.4063
68.7097
70.46
71.7179
72.5306
72.9293
50.6078
55.5537
59.8703
63.4806
66.4064
68.7099
70.4601
71.7181
72.5307
72.9294
50.6079
55.5538
59.8705
63.4808
66.4066
68.71
70.4603
71.7183
72.5309
72.9296
43.1153
46.8954
50.2868
53.21
55.6448
57.6055
59.1217
60.2256
60.945
61.2996
43.1151
46.8952
50.2866
53.2098
55.6446
57.6053
59.1216
60.2255
60.9448
61.2995
43.115
46.8951
50.2865
53.2097
55.6445
57.6052
59.1214
60.2254
60.9447
61.2994
43.1149
46.895
50.2864
53.2097
55.6444
57.6051
59.1214
60.2253
60.9447
61.2994
43.1149
46.895
50.2864
53.2096
55.6444
57.6051
59.1213
60.2253
60.9447
61.2993
43.1149
46.895
50.2864
53.2096
55.6444
57.6051
59.1214
60.2253
60.9447
61.2994
43.1149
46.8951
50.2864
53.2097
55.6444
57.6052
59.1214
60.2253
60.9447
61.2994
43.115
46.8951
50.2865
53.2098
55.6445
57.6053
59.1215
60.2254
60.9448
61.2995
43.1151
46.8953
50.2866
53.2099
55.6447
57.6054
59.1216
60.2256
60.945
61.2997
43.1153
46.8954
50.2868
53.21
55.6448
57.6056
59.1218
60.2257
60.9451
61.2998
36.8319
39.6395
42.2201
44.5082
46.4654
48.0776
49.347
50.2838
50.9001
51.2055
36.8317
39.6394
42.22
44.5081
46.4652
48.0774
49.3468
50.2837
50.8999
51.2054
36.8316
39.6393
42.2199
44.508
46.4651
48.0773
49.3467
50.2836
50.8998
51.2053
36.8316
39.6392
42.2198
44.5079
46.465
48.0772
49.3467
50.2835
50.8998
51.2053
36.8316
39.6392
42.2198
44.5079
46.465
48.0772
49.3466
50.2835
50.8997
51.2053
36.8316
39.6392
42.2198
44.5079
46.465
48.0772
49.3467
50.2835
50.8998
51.2053
36.8316
39.6392
42.2198
44.5079
46.4651
48.0773
49.3467
50.2836
50.8998
51.2053
36.8317
39.6393
42.2199
44.508
46.4652
48.0774
49.3468
50.2837
50.8999
51.2054
36.8318
39.6394
42.22
44.5081
46.4653
48.0775
49.3469
50.2838
50.9
51.2056
36.8319
39.6396
42.2202
44.5083
46.4654
48.0776
49.3471
50.284
50.9002
51.2057
31.6185
33.5664
35.4309
37.1491
38.6667
39.9491
40.9789
41.7499
42.2622
42.5176
31.6183
33.5662
35.4307
37.149
38.6666
39.949
40.9787
41.7498