/*--------------------------------*- C++ -*----------------------------------*\
  =========                 |
  \\      /  F ield         | OpenFOAM: The Open Source CFD Toolbox
   \\    /   O peration     | Website:  https://openfoam.org
    \\  /    A nd           | Version:  6
     \\/     M anipulation  |
\*---------------------------------------------------------------------------*/
FoamFile
{
    version     2.0;
    format      ascii;
    class       volScalarField;
    location    "0.405";
    object      T;
}
// * * * * * * * * * * * * * * * * * * * * * * * * * * * * * * * * * * * * * //

dimensions      [0 0 0 1 0 0 0];

internalField   nonuniform List<scalar> 
7000
(
105.089
105.087
105.084
105.079
105.074
105.068
105.061
105.056
105.051
105.049
105.089
105.087
105.084
105.079
105.074
105.068
105.061
105.056
105.051
105.049
105.089
105.087
105.084
105.079
105.074
105.068
105.061
105.056
105.051
105.049
105.089
105.087
105.084
105.079
105.074
105.068
105.061
105.056
105.051
105.049
105.089
105.087
105.084
105.079
105.074
105.068
105.061
105.056
105.051
105.049
105.089
105.087
105.084
105.079
105.074
105.068
105.061
105.056
105.051
105.049
105.089
105.087
105.084
105.079
105.074
105.068
105.061
105.056
105.051
105.049
105.089
105.087
105.084
105.079
105.074
105.068
105.061
105.056
105.051
105.049
105.089
105.087
105.084
105.079
105.074
105.068
105.061
105.056
105.051
105.049
105.089
105.087
105.084
105.079
105.074
105.068
105.061
105.056
105.051
105.049
95.3256
95.3206
95.3108
95.2969
95.2795
95.2601
95.2405
95.2228
95.2093
95.2019
95.3256
95.3206
95.3108
95.2968
95.2795
95.2601
95.2405
95.2228
95.2092
95.2019
95.3256
95.3206
95.3108
95.2968
95.2795
95.2601
95.2405
95.2227
95.2092
95.2019
95.3256
95.3205
95.3108
95.2968
95.2795
95.2601
95.2405
95.2227
95.2092
95.2019
95.3255
95.3205
95.3108
95.2968
95.2794
95.2601
95.2404
95.2227
95.2092
95.2019
95.3255
95.3205
95.3108
95.2968
95.2794
95.2601
95.2404
95.2227
95.2092
95.2019
95.3255
95.3205
95.3108
95.2968
95.2794
95.2601
95.2404
95.2227
95.2092
95.2019
95.3256
95.3205
95.3108
95.2968
95.2795
95.2601
95.2405
95.2227
95.2092
95.2019
95.3256
95.3205
95.3108
95.2968
95.2795
95.2601
95.2405
95.2228
95.2092
95.2019
95.3256
95.3206
95.3108
95.2968
95.2795
95.2601
95.2405
95.2228
95.2093
95.2019
85.7398
85.731
85.7137
85.6888
85.6577
85.6226
85.5868
85.554
85.5288
85.515
85.7398
85.7309
85.7136
85.6887
85.6576
85.6226
85.5867
85.554
85.5288
85.515
85.7397
85.7309
85.7136
85.6887
85.6576
85.6226
85.5867
85.554
85.5288
85.515
85.7397
85.7308
85.7136
85.6887
85.6576
85.6225
85.5867
85.5539
85.5287
85.515
85.7397
85.7308
85.7136
85.6887
85.6576
85.6225
85.5867
85.5539
85.5287
85.515
85.7397
85.7308
85.7136
85.6887
85.6576
85.6225
85.5867
85.5539
85.5287
85.515
85.7397
85.7308
85.7136
85.6887
85.6576
85.6225
85.5867
85.5539
85.5287
85.515
85.7397
85.7308
85.7136
85.6887
85.6576
85.6226
85.5867
85.554
85.5288
85.515
85.7397
85.7309
85.7136
85.6887
85.6576
85.6226
85.5867
85.554
85.5288
85.515
85.7397
85.7309
85.7136
85.6887
85.6577
85.6226
85.5867
85.554
85.5288
85.515
76.4424
76.429
76.4027
76.3646
76.3164
76.2613
76.204
76.1509
76.1093
76.0863
76.4423
76.429
76.4027
76.3645
76.3163
76.2612
76.204
76.1508
76.1092
76.0862
76.4423
76.4289
76.4026
76.3645
76.3163
76.2612
76.2039
76.1508
76.1092
76.0862
76.4423
76.4289
76.4026
76.3644
76.3163
76.2612
76.2039
76.1508
76.1092
76.0862
76.4423
76.4289
76.4026
76.3644
76.3162
76.2612
76.2039
76.1508
76.1092
76.0862
76.4422
76.4289
76.4026
76.3644
76.3162
76.2612
76.2039
76.1508
76.1092
76.0862
76.4423
76.4289
76.4026
76.3644
76.3162
76.2612
76.2039
76.1508
76.1092
76.0862
76.4423
76.4289
76.4026
76.3645
76.3163
76.2612
76.2039
76.1508
76.1092
76.0862
76.4423
76.4289
76.4026
76.3645
76.3163
76.2612
76.204
76.1508
76.1092
76.0863
76.4423
76.429
76.4027
76.3645
76.3164
76.2613
76.204
76.1509
76.1093
76.0863
67.5349
67.516
67.4788
67.4241
67.3541
67.2725
67.1857
67.1033
67.0371
66.9998
67.5348
67.5159
67.4787
67.424
67.354
67.2724
67.1857
67.1032
67.0371
66.9998
67.5347
67.5159
67.4786
67.424
67.3539
67.2723
67.1856
67.1032
67.037
66.9997
67.5347
67.5158
67.4786
67.4239
67.3539
67.2723
67.1856
67.1031
67.037
66.9997
67.5347
67.5158
67.4786
67.4239
67.3539
67.2723
67.1856
67.1031
67.037
66.9997
67.5347
67.5158
67.4786
67.4239
67.3539
67.2723
67.1856
67.1031
67.037
66.9997
67.5347
67.5158
67.4786
67.4239
67.3539
67.2723
67.1856
67.1031
67.037
66.9997
67.5347
67.5159
67.4786
67.424
67.3539
67.2723
67.1856
67.1032
67.037
66.9998
67.5347
67.5159
67.4787
67.424
67.354
67.2724
67.1857
67.1032
67.0371
66.9998
67.5348
67.516
67.4787
67.4241
67.354
67.2724
67.1857
67.1033
67.0371
66.9999
59.1057
59.0804
59.0299
58.9549
58.8569
58.7401
58.6121
58.4862
58.3815
58.3206
59.1056
59.0803
59.0298
58.9548
58.8569
58.74
58.612
58.4861
58.3815
58.3205
59.1055
59.0802
59.0298
58.9547
58.8568
58.74
58.612
58.4861
58.3814
58.3205
59.1055
59.0802
59.0297
58.9547
58.8568
58.7399
58.612
58.4861
58.3814
58.3204
59.1055
59.0801
59.0297
58.9547
58.8567
58.7399
58.6119
58.486
58.3814
58.3204
59.1055
59.0801
59.0297
58.9547
58.8567
58.7399
58.6119
58.486
58.3814
58.3204
59.1055
59.0802
59.0297
58.9547
58.8568
58.7399
58.612
58.4861
58.3814
58.3204
59.1055
59.0802
59.0297
58.9547
58.8568
58.74
58.612
58.4861
58.3814
58.3205
59.1055
59.0802
59.0298
58.9548
58.8568
58.74
58.612
58.4862
58.3815
58.3205
59.1056
59.0803
59.0299
58.9548
58.8569
58.7401
58.6121
58.4862
58.3816
58.3206
51.2282
51.1954
51.1296
51.0302
50.8977
50.7347
50.5494
50.3582
50.1904
50.0874
51.2281
51.1953
51.1295
51.0302
50.8976
50.7347
50.5493
50.3581
50.1903
50.0873
51.228
51.1953
51.1295
51.0301
50.8975
50.7346
50.5492
50.358
50.1903
50.0873
51.228
51.1952
51.1294
51.03
50.8975
50.7346
50.5492
50.358
50.1903
50.0872
51.228
51.1952
51.1294
51.03
50.8975
50.7345
50.5492
50.358
50.1902
50.0872
51.2279
51.1952
51.1294
51.03
50.8975
50.7345
50.5492
50.358
50.1902
50.0872
51.228
51.1952
51.1294
51.03
50.8975
50.7346
50.5492
50.358
50.1903
50.0872
51.228
51.1953
51.1294
51.0301
50.8975
50.7346
50.5492
50.358
50.1903
50.0873
51.228
51.1953
51.1295
51.0301
50.8976
50.7347
50.5493
50.3581
50.1904
50.0873
51.2281
51.1954
51.1296
51.0302
50.8977
50.7347
50.5494
50.3582
50.1905
50.0874
43.9589
43.9182
43.8355
43.7087
43.5352
43.3146
43.0514
42.7623
42.4877
42.3027
43.9588
43.9181
43.8354
43.7086
43.5352
43.3145
43.0513
42.7622
42.4876
42.3027
43.9588
43.918
43.8354
43.7085
43.5351
43.3144
43.0512
42.7622
42.4875
42.3026
43.9587
43.918
43.8353
43.7085
43.535
43.3144
43.0512
42.7621
42.4875
42.3026
43.9587
43.918
43.8353
43.7084
43.535
43.3144
43.0512
42.7621
42.4875
42.3026
43.9587
43.918
43.8353
43.7084
43.535
43.3144
43.0512
42.7621
42.4875
42.3026
43.9587
43.918
43.8353
43.7085
43.5351
43.3144
43.0512
42.7622
42.4875
42.3026
43.9587
43.918
43.8354
43.7085
43.5351
43.3144
43.0512
42.7622
42.4876
42.3026
43.9588
43.9181
43.8354
43.7086
43.5352
43.3145
43.0513
42.7623
42.4876
42.3027
43.9588
43.9181
43.8355
43.7087
43.5352
43.3146
43.0514
42.7623
42.4877
42.3028
37.3369
37.2883
37.1888
37.0336
36.8159
36.5285
36.1661
35.7349
35.2749
34.911
37.3368
37.2882
37.1887
37.0335
36.8158
36.5284
36.166
35.7349
35.2748
34.9109
37.3367
37.2881
37.1886
37.0334
36.8158
36.5283
36.166
35.7348
35.2747
34.9109
37.3367
37.2881
37.1886
37.0334
36.8157
36.5283
36.1659
35.7348
35.2747
34.9109
37.3367
37.2881
37.1886
37.0333
36.8157
36.5283
36.1659
35.7347
35.2747
34.9108
37.3367
37.2881
37.1886
37.0333
36.8157
36.5283
36.1659
35.7347
35.2747
34.9108
37.3367
37.2881
37.1886
37.0334
36.8157
36.5283
36.1659
35.7348
35.2747
34.9109
37.3367
37.2881
37.1886
37.0334
36.8158
36.5283
36.166
35.7348
35.2748
34.9109
37.3368
37.2882
37.1887
37.0335
36.8159
36.5284
36.166
35.7349
35.2748
34.911
37.3368
37.2883
37.1888
37.0336
36.8159
36.5285
36.1661
35.735
35.2749
34.9111
31.3833
31.328
31.2138
31.0332
30.7743
30.42
29.9472
29.3292
28.5548
27.7421
31.3832
31.3279
31.2137
31.0331
30.7742
30.4199
29.9471
29.3291
28.5547
27.742
31.3832
31.3278
31.2136
31.033
30.7741
30.4198
29.9471
29.3291
28.5547
27.742
31.3831
31.3278
31.2136
31.033
30.7741
30.4198
29.947
29.329
28.5546
27.7419
31.3831
31.3278
31.2136
31.033
30.7741
30.4198
29.947
29.329
28.5546
27.7419
31.3831
31.3278
31.2136
31.033
30.7741
30.4198
29.947
29.329
28.5546
27.7419
31.3831
31.3278
31.2136
31.033
30.7741
30.4198
29.947
29.329
28.5547
27.742
31.3832
31.3278
31.2136
31.033
30.7741
30.4198
29.9471
29.3291
28.5547
27.742
31.3832
31.3279
31.2137
31.0331
30.7742
30.4199
29.9472
29.3292
28.5548
27.7421
31.3833
31.328
31.2138
31.0332
30.7743
30.42
29.9472
29.3292
28.5549
27.7421
26.102
26.0421
25.9179
25.7199
25.4318
25.0281
24.4661
23.667
22.4559
20.3406
26.1019
26.042
25.9178
25.7198
25.4317
25.028
24.466
23.667
22.4558
20.3406
26.1018
26.0419
25.9178
25.7197
25.4317
25.0279
24.4659
23.6669
22.4558
20.3405
26.1018
26.0419
25.9177
25.7197
25.4316
25.0279
24.4659
23.6669
22.4557
20.3405
26.1017
26.0419
25.9177
25.7196
25.4316
25.0279
24.4659
23.6668
22.4557
20.3405
26.1017
26.0419
25.9177
25.7196
25.4316
25.0279
24.4659
23.6669
22.4557
20.3405
26.1018
26.0419
25.9177
25.7197
25.4316
25.0279
24.4659
23.6669
22.4557
20.3405
26.1018
26.0419
25.9178
25.7197
25.4317
25.0279
24.4659
23.6669
22.4558
20.3405
26.1019
26.042
25.9178
25.7198
25.4317
25.028
24.466
23.667
22.4559
20.3406
26.1019
26.0421
25.9179
25.7199
25.4318
25.0281
24.4661
23.6671
22.4559
20.3407
21.48
21.4186
21.2911
21.0875
20.7909
20.3745
19.7961
18.9858
17.8256
16.1341
21.4799
21.4185
21.291
21.0874
20.7908
20.3745
19.796
18.9857
17.8255
16.1341
21.4798
21.4184
21.291
21.0874
20.7907
20.3744
19.796
18.9856
17.8255
16.134
21.4798
21.4184
21.2909
21.0873
20.7907
20.3744
19.796
18.9856
17.8254
16.134
21.4798
21.4184
21.2909
21.0873
20.7907
20.3743
19.7959
18.9856
17.8254
16.1339
21.4798
21.4184
21.2909
21.0873
20.7907
20.3743
19.7959
18.9856
17.8254
16.1339
21.4798
21.4184
21.2909
21.0873
20.7907
20.3744
19.796
18.9856
17.8255
16.134
21.4798
21.4184
21.291
21.0874
20.7907
20.3744
19.796
18.9857
17.8255
16.134
21.4799
21.4185
21.291
21.0874
20.7908
20.3745
19.7961
18.9857
17.8256
16.1341
21.48
21.4186
21.2911
21.0875
20.7909
20.3746
19.7962
18.9858
17.8256
16.1342
17.4897
17.43
17.3064
17.1099
16.8262
16.4341
15.9037
15.1952
14.2645
13.0955
17.4896
17.4299
17.3063
17.1098
16.8262
16.4341
15.9036
15.1951
14.2644
13.0954
17.4895
17.4298
17.3062
17.1098
16.8261
16.434
15.9035
15.195
14.2644
13.0953
17.4895
17.4298
17.3062
17.1098
16.8261
16.434
15.9035
15.195
14.2644
13.0953
17.4895
17.4298
17.3062
17.1097
16.8261
16.434
15.9035
15.195
14.2643
13.0953
17.4895
17.4298
17.3062
17.1097
16.8261
16.434
15.9035
15.195
14.2643
13.0953
17.4895
17.4298
17.3062
17.1098
16.8261
16.434
15.9035
15.195
14.2644
13.0953
17.4895
17.4298
17.3062
17.1098
16.8261
16.434
15.9036
15.1951
14.2644
13.0954
17.4896
17.4299
17.3063
17.1099
16.8262
16.4341
15.9036
15.1951
14.2645
13.0954
17.4897
17.43
17.3064
17.1099
16.8263
16.4342
15.9037
15.1952
14.2645
13.0955
14.0908
14.0356
13.922
13.7432
13.489
13.1459
12.6983
12.1323
11.4464
10.6773
14.0907
14.0355
13.9219
13.7431
13.4889
13.1458
12.6983
12.1323
11.4464
10.6772
14.0907
14.0355
13.9219
13.743
13.4888
13.1458
12.6982
12.1322
11.4463
10.6772
14.0907
14.0355
13.9218
13.743
13.4888
13.1457
12.6982
12.1322
11.4463
10.6772
14.0906
14.0354
13.9218
13.743
13.4888
13.1457
12.6982
12.1322
11.4463
10.6771
14.0906
14.0355
13.9218
13.743
13.4888
13.1457
12.6982
12.1322
11.4463
10.6771
14.0907
14.0355
13.9218
13.743
13.4888
13.1458
12.6982
12.1322
11.4463
10.6772
14.0907
14.0355
13.9219
13.7431
13.4889
13.1458
12.6982
12.1322
11.4463
10.6772
14.0907
14.0356
13.9219
13.7431
13.4889
13.1459
12.6983
12.1323
11.4464
10.6773
14.0908
14.0356
13.922
13.7432
13.489
13.1459
12.6984
12.1324
11.4465
10.6773
11.2338
11.1851
11.0857
10.9311
10.7157
10.433
10.0788
9.65487
9.1782
8.69439
11.2337
11.1851
11.0856
10.9311
10.7156
10.433
10.0787
9.65481
9.17814
8.69433
11.2337
11.185
11.0856
10.931
10.7156
10.4329
10.0787
9.65477
9.1781
8.69428
11.2337
11.185
11.0855
10.931
10.7155
10.4329
10.0787
9.65475
9.17807
8.69425
11.2337
11.185
11.0855
10.931
10.7155
10.4329
10.0787
9.65473
9.17806
8.69424
11.2337
11.185
11.0855
10.931
10.7155
10.4329
10.0787
9.65474
9.17806
8.69425
11.2337
11.185
11.0855
10.931
10.7155
10.4329
10.0787
9.65476
9.17808
8.69426
11.2337
11.1851
11.0856
10.931
10.7156
10.433
10.0787
9.6548
9.17812
8.6943
11.2338
11.1851
11.0856
10.9311
10.7156
10.433
10.0788
9.65485
9.17817
8.69435
11.2338
11.1852
11.0857
10.9311
10.7157
10.4331
10.0788
9.65491
9.17824
8.69442
8.86321
8.82211
8.73881
8.61129
8.43747
8.21656
7.95149
7.65257
7.34274
7.06326
8.86315
8.82206
8.73875
8.61124
8.43742
8.21651
7.95144
7.65252
7.34268
7.06321
8.86312
8.82202
8.73872
8.6112
8.43738
8.21648
7.9514
7.65248
7.34265
7.06317
8.86309
8.82199
8.73869
8.61118
8.43736
8.21645
7.95138
7.65246
7.34262
7.06314
8.86308
8.82198
8.73868
8.61117
8.43735
8.21644
7.95137
7.65245
7.34261
7.06313
8.86308
8.82198
8.73869
8.61117
8.43735
8.21645
7.95137
7.65245
7.34262
7.06314
8.8631
8.822
8.7387
8.61119
8.43737
8.21647
7.95139
7.65247
7.34263
7.06315
8.86313
8.82203
8.73873
8.61122
8.4374
8.2165
7.95142
7.6525
7.34267
7.06319
8.86316
8.82207
8.73878
8.61127
8.43745
8.21654
7.95147
7.65255
7.34271
7.06323
8.86321
8.82213
8.73884
8.61133
8.43751
8.21661
7.95153
7.65261
7.34277
7.0633
6.92087
6.88751
6.82054
6.71971
6.5857
6.4215
6.23453
6.03935
5.86047
5.7333
6.92083
6.88747
6.82049
6.71967
6.58566
6.42146
6.23448
6.0393
5.86042
5.73325
6.92079
6.88743
6.82046
6.71964
6.58563
6.42143
6.23445
6.03927
5.86039
5.73322
6.92077
6.88741
6.82044
6.71962
6.58561
6.42141
6.23443
6.03925
5.86037
5.7332
6.92076
6.8874
6.82043
6.71961
6.5856
6.4214
6.23442
6.03924
5.86036
5.73319
6.92077
6.88741
6.82044
6.71961
6.5856
6.4214
6.23443
6.03925
5.86036
5.73319
6.92078
6.88742
6.82045
6.71963
6.58562
6.42142
6.23444
6.03926
5.86038
5.73321
6.9208
6.88745
6.82048
6.71966
6.58565
6.42145
6.23447
6.03929
5.86041
5.73324
6.92084
6.88748
6.82052
6.7197
6.58569
6.42149
6.23451
6.03933
5.86045
5.73328
6.92088
6.88753
6.82057
6.71975
6.58574
6.42154
6.23457
6.03939
5.8605
5.73334
5.3489
5.32279
5.27093
5.19428
5.09533
4.97941
4.85659
4.74408
4.66828
4.66376
5.34886
5.32276
5.27089
5.19424
5.09529
4.97937
4.85655
4.74404
4.66824
4.66372
5.34884
5.32273
5.27086
5.19421
5.09527
4.97935
4.85652
4.74401
4.66821
4.66369
5.34882
5.32271
5.27084
5.19419
5.09525
4.97933
4.85651
4.74399
4.66819
4.66367
5.34881
5.3227
5.27084
5.19419
5.09524
4.97932
4.8565
4.74398
4.66818
4.66366
5.34881
5.32271
5.27084
5.19419
5.09525
4.97933
4.85651
4.74399
4.66818
4.66366
5.34883
5.32272
5.27085
5.19421
5.09526
4.97934
4.85652
4.744
4.6682
4.66368
5.34885
5.32274
5.27088
5.19423
5.09529
4.97937
4.85655
4.74403
4.66823
4.66371
5.34888
5.32277
5.27091
5.19427
5.09532
4.9794
4.85658
4.74407
4.66826
4.66375
5.34891
5.32282
5.27096
5.19431
5.09537
4.97945
4.85663
4.74411
4.66831
4.66379
4.09189
4.07212
4.03327
3.97703
3.90682
3.82903
3.75496
3.70365
3.70602
3.80889
4.09186
4.07208
4.03324
3.977
3.90678
3.829
3.75493
3.70362
3.70598
3.80885
4.09183
4.07206
4.03322
3.97698
3.90676
3.82898
3.75491
3.70359
3.70595
3.80882
4.09182
4.07205
4.03321
3.97697
3.90675
3.82896
3.75489
3.70358
3.70594
3.80881
4.09181
4.07204
4.0332
3.97696
3.90674
3.82896
3.75489
3.70357
3.70593
3.8088
4.09181
4.07204
4.0332
3.97696
3.90675
3.82896
3.75489
3.70358
3.70594
3.8088
4.09183
4.07205
4.03321
3.97698
3.90676
3.82897
3.75491
3.70359
3.70595
3.80882
4.09184
4.07207
4.03323
3.977
3.90678
3.82899
3.75493
3.70361
3.70597
3.80884
4.09187
4.0721
4.03326
3.97703
3.90681
3.82902
3.75496
3.70364
3.70601
3.80887
4.0919
4.07214
4.0333
3.97707
3.90685
3.82906
3.755
3.70368
3.70605
3.80892
3.09853
3.08398
3.05571
3.01562
2.96727
2.91692
2.87513
2.85998
2.90493
3.08546
3.09851
3.08395
3.05569
3.01559
2.96725
2.91689
2.8751
2.85995
2.9049
3.08543
3.09849
3.08393
3.05567
3.01558
2.96723
2.91687
2.87508
2.85993
2.90488
3.08541
3.09847
3.08392
3.05566
3.01556
2.96722
2.91686
2.87507
2.85992
2.90487
3.08539
3.09847
3.08392
3.05565
3.01556
2.96721
2.91685
2.87507
2.85991
2.90487
3.08539
3.09847
3.08392
3.05565
3.01556
2.96722
2.91686
2.87507
2.85992
2.90487
3.08539
3.09848
3.08393
3.05566
3.01557
2.96723
2.91687
2.87508
2.85993
2.90488
3.08541
3.0985
3.08395
3.05568
3.01559
2.96724
2.91689
2.8751
2.85995
2.9049
3.08543
3.09852
3.08397
3.05571
3.01562
2.96727
2.91691
2.87513
2.85997
2.90493
3.08546
3.09854
3.084
3.05574
3.01565
2.9673
2.91695
2.87516
2.86001
2.90496
3.0855
15.5921
13.1827
12.2757
12.5843
14.0643
16.8263
21.1311
27.4481
36.62
50.3045
15.592
13.1826
12.2756
12.5842
14.0642
16.8262
21.1309
27.4479
36.6199
50.3043
15.592
13.1825
12.2756
12.5841
14.0641
16.8261
21.1308
27.4478
36.6197
50.3041
15.5919
13.1825
12.2755
12.5841
14.0641
16.826
21.1307
27.4477
36.6196
50.304
15.5919
13.1825
12.2755
12.5841
14.064
16.826
21.1307
27.4477
36.6196
50.304
15.5919
13.1825
12.2755
12.5841
14.064
16.826
21.1307
27.4476
36.6196
50.304
15.5919
13.1825
12.2755
12.5841
14.0641
16.826
21.1307
27.4477
36.6196
50.304
15.592
13.1825
12.2756
12.5841
14.0641
16.826
21.1308
27.4477
36.6197
50.3041
15.592
13.1826
12.2756
12.5842
14.0642
16.8261
21.1308
27.4478
36.6198
50.3042
15.5921
13.1826
12.2757
12.5842
14.0642
16.8262
21.1309
27.4479
36.6199
50.3044
13.8128
12.255
11.6674
12.0708
13.511
16.104
20.054
25.6674
33.3484
43.4599
13.8127
12.255
11.6673
12.0707
13.5109
16.1039
20.0539
25.6672
33.3483
43.4597
13.8127
12.2549
11.6672
12.0707
13.5108
16.1038
20.0537
25.6671
33.3481
43.4596
13.8126
12.2549
11.6672
12.0706
13.5108
16.1038
20.0537
25.667
33.348
43.4594
13.8126
12.2548
11.6672
12.0706
13.5107
16.1037
20.0536
25.667
33.348
43.4594
13.8126
12.2548
11.6672
12.0706
13.5107
16.1037
20.0536
25.667
33.348
43.4594
13.8126
12.2549
11.6672
12.0706
13.5108
16.1037
20.0537
25.667
33.348
43.4594
13.8127
12.2549
11.6672
12.0707
13.5108
16.1038
20.0537
25.6671
33.3481
43.4595
13.8127
12.255
11.6673
12.0707
13.5109
16.1039
20.0538
25.6672
33.3482
43.4597
13.8128
12.255
11.6674
12.0708
13.511
16.104
20.0539
25.6673
33.3483
43.4598
11.8137
10.919
10.6627
11.1657
12.5189
14.8279
18.2263
22.863
28.8428
36.0556
11.8137
10.9189
10.6626
11.1656
12.5188
14.8278
18.2262
22.8629
28.8427
36.0554
11.8136
10.9189
10.6625
11.1656
12.5187
14.8277
18.2261
22.8628
28.8425
36.0553
11.8136
10.9188
10.6625
11.1655
12.5187
14.8276
18.226
22.8627
28.8425
36.0552
11.8135
10.9188
10.6625
11.1655
12.5186
14.8276
18.226
22.8626
28.8424
36.0551
11.8135
10.9188
10.6625
11.1655
12.5186
14.8276
18.226
22.8626
28.8424
36.0551
11.8136
10.9188
10.6625
11.1655
12.5187
14.8276
18.226
22.8627
28.8425
36.0552
11.8136
10.9189
10.6625
11.1655
12.5187
14.8277
18.226
22.8627
28.8425
36.0552
11.8137
10.9189
10.6626
11.1656
12.5188
14.8278
18.2261
22.8628
28.8426
36.0554
11.8137
10.919
10.6627
11.1657
12.5189
14.8279
18.2262
22.863
28.8428
36.0555
9.94528
9.48252
9.47031
10.0311
11.2576
13.2325
16.032
19.7062
24.2293
29.4054
9.94521
9.48244
9.47023
10.031
11.2575
13.2324
16.0319
19.706
24.2291
29.4053
9.94516
9.48239
9.47017
10.031
11.2574
13.2323
16.0318
19.7059
24.229
29.4051
9.94513
9.48235
9.47013
10.0309
11.2574
13.2323
16.0317
19.7059
24.2289
29.405
9.94511
9.48234
9.47011
10.0309
11.2573
13.2322
16.0317
19.7058
24.2289
29.405
9.94511
9.48234
9.47011
10.0309
11.2573
13.2322
16.0317
19.7058
24.2289
29.405
9.94513
9.48236
9.47013
10.0309
11.2573
13.2323
16.0317
19.7059
24.2289
29.405
9.94517
9.4824
9.47017
10.031
11.2574
13.2323
16.0318
19.7059
24.229
29.4051
9.94523
9.48245
9.47023
10.031
11.2575
13.2324
16.0318
19.706
24.2291
29.4052
9.9453
9.48253
9.47031
10.0311
11.2576
13.2325
16.032
19.7062
24.2293
29.4054
8.29256
8.10251
8.24564
8.81879
9.89727
11.539
13.7809
16.6235
20.0018
23.7459
8.2925
8.10244
8.24556
8.81871
9.89718
11.5389
13.7807
16.6234
20.0016
23.7458
8.29245
8.10239
8.24551
8.81865
9.89712
11.5388
13.7807
16.6233
20.0015
23.7457
8.29242
8.10236
8.24547
8.81861
9.89707
11.5387
13.7806
16.6233
20.0015
23.7456
8.29241
8.10234
8.24545
8.81859
9.89705
11.5387
13.7806
16.6232
20.0014
23.7455
8.29241
8.10234
8.24546
8.81859
9.89705
11.5387
13.7806
16.6232
20.0014
23.7456
8.29243
8.10236
8.24548
8.81861
9.89707
11.5387
13.7806
16.6233
20.0015
23.7456
8.29247
8.1024
8.24551
8.81865
9.89712
11.5388
13.7807
16.6233
20.0015
23.7457
8.29252
8.10245
8.24557
8.81871
9.89718
11.5389
13.7807
16.6234
20.0016
23.7458
8.29259
8.10252
8.24565
8.8188
9.89727
11.539
13.7809
16.6235
20.0018
23.7459
6.87665
6.86116
7.09615
7.65113
8.58075
9.92158
11.6864
13.8541
16.3559
19.0655
6.87659
6.86109
7.09608
7.65105
8.58066
9.92148
11.6863
13.8539
16.3558
19.0654
6.87655
6.86105
7.09603
7.651
8.5806
9.92141
11.6862
13.8539
16.3557
19.0653
6.87652
6.86102
7.096
7.65096
8.58056
9.92137
11.6862
13.8538
16.3557
19.0652
6.87651
6.86101
7.09598
7.65094
8.58054
9.92135
11.6861
13.8538
16.3556
19.0652
6.87651
6.86101
7.09599
7.65095
8.58054
9.92135
11.6861
13.8538
16.3556
19.0652
6.87653
6.86103
7.09601
7.65097
8.58057
9.92137
11.6862
13.8538
16.3557
19.0652
6.87657
6.86106
7.09604
7.651
8.58061
9.92142
11.6862
13.8539
16.3557
19.0653
6.87661
6.86111
7.0961
7.65106
8.58067
9.92149
11.6863
13.854
16.3558
19.0654
6.87668
6.86118
7.09617
7.65114
8.58075
9.92158
11.6864
13.8541
16.356
19.0656
5.70056
5.80469
6.09505
6.61959
7.41605
8.50523
9.88499
11.5243
13.3591
15.2964
5.7005
5.80463
6.09499
6.61952
7.41597
8.50514
9.8849
11.5242
13.359
15.2963
5.70046
5.80459
6.09494
6.61947
7.41592
8.50508
9.88483
11.5241
13.3589
15.2962
5.70044
5.80457
6.09491
6.61944
7.41588
8.50504
9.88479
11.5241
13.3589
15.2962
5.70043
5.80455
6.0949
6.61943
7.41586
8.50502
9.88477
11.524
13.3589
15.2961
5.70043
5.80456
6.0949
6.61943
7.41587
8.50502
9.88477
11.524
13.3589
15.2961
5.70045
5.80457
6.09492
6.61945
7.41589
8.50505
9.8848
11.5241
13.3589
15.2962
5.70048
5.80461
6.09496
6.61949
7.41593
8.50509
9.88484
11.5241
13.359
15.2962
5.70052
5.80465
6.095
6.61954
7.41599
8.50516
9.88492
11.5242
13.359
15.2963
5.70058
5.80471
6.09507
6.61961
7.41606
8.50524
9.88501
11.5243
13.3592
15.2965
4.76189
4.96237
5.29312
5.7899
6.4804
7.37533
8.46259
9.70329
11.0321
12.3689
4.76184
4.96232
5.29307
5.78984
6.48033
7.37525
8.4625
9.7032
11.032
12.3688
4.7618
4.96228
5.29303
5.78979
6.48028
7.3752
8.46244
9.70313
11.0319
12.3687
4.76178
4.96226
5.293
5.78976
6.48025
7.37516
8.4624
9.70309
11.0319
12.3687
4.76177
4.96225
5.29299
5.78975
6.48023
7.37515
8.46238
9.70307
11.0319
12.3686
4.76178
4.96225
5.29299
5.78975
6.48024
7.37515
8.46239
9.70307
11.0319
12.3686
4.76179
4.96227
5.29301
5.78977
6.48026
7.37517
8.46241
9.7031
11.0319
12.3687
4.76182
4.9623
5.29304
5.78981
6.48029
7.37521
8.46246
9.70315
11.032
12.3687
4.76186
4.96234
5.29309
5.78986
6.48035
7.37527
8.46253
9.70323
11.032
12.3688
4.76191
4.9624
5.29315
5.78992
6.48042
7.37535
8.46261
9.70332
11.0321
12.3689
4.06156
4.35922
4.72834
5.20874
5.82718
6.58964
7.47672
8.43929
9.39624
10.2428
4.06152
4.35917
4.72829
5.20868
5.82711
6.58957
7.47664
8.43921
9.39615
10.2427
4.06149
4.35914
4.72825
5.20864
5.82707
6.58952
7.47659
8.43915
9.39609
10.2426
4.06147
4.35912
4.72823
5.20862
5.82704
6.58949
7.47655
8.43911
9.39605
10.2426
4.06147
4.35911
4.72822
5.20861
5.82703
6.58948
7.47654
8.4391
9.39603
10.2426
4.06147
4.35911
4.72823
5.20861
5.82703
6.58948
7.47654
8.4391
9.39604
10.2426
4.06148
4.35913
4.72824
5.20863
5.82705
6.58951
7.47657
8.43913
9.39607
10.2426
4.06151
4.35916
4.72827
5.20866
5.82709
6.58955
7.47661
8.43918
9.39612
10.2427
4.06155
4.3592
4.72832
5.20871
5.82714
6.5896
7.47667
8.43925
9.3962
10.2427
4.0616
4.35925
4.72837
5.20877
5.82721
6.58968
7.47676
8.43934
9.3963
10.2428
3.62836
4.02983
4.43289
4.90873
5.49143
6.18646
6.96986
7.78199
8.51385
8.97394
3.62832
4.0298
4.43285
4.90868
5.49138
6.18641
6.9698
7.78193
8.51379
8.97387
3.6283
4.02977
4.43282
4.90865
5.49134
6.18637
6.96976
7.78188
8.51373
8.97381
3.62828
4.02975
4.4328
4.90862
5.49131
6.18634
6.96973
7.78185
8.5137
8.97377
3.62827
4.02974
4.43279
4.90861
5.4913
6.18633
6.96971
7.78183
8.51368
8.97376
3.62828
4.02975
4.43279
4.90862
5.49131
6.18633
6.96972
7.78184
8.51369
8.97377
3.62829
4.02976
4.43281
4.90863
5.49133
6.18635
6.96974
7.78186
8.51372
8.97379
3.62832
4.02979
4.43284
4.90867
5.49136
6.18639
6.96978
7.78191
8.51377
8.97385
3.62835
4.02983
4.43288
4.90871
5.49141
6.18645
6.96984
7.78198
8.51384
8.97392
3.62839
4.02988
4.43294
4.90877
5.49148
6.18652
6.96993
7.78206
8.51393
8.97402
72.2762
82.2612
88.033
91.8343
94.4857
96.3692
97.6976
98.6016
99.1637
99.4332
72.2759
82.2608
88.0326
91.8339
94.4853
96.3689
97.6972
98.6012
99.1634
99.433
72.2757
82.2606
88.0324
91.8337
94.4851
96.3686
97.697
98.601
99.1631
99.4328
72.2756
82.2605
88.0323
91.8336
94.4849
96.3685
97.6969
98.6009
99.163
99.4327
72.2755
82.2604
88.0322
91.8335
94.4849
96.3684
97.6968
98.6008
99.163
99.4326
72.2755
82.2604
88.0322
91.8335
94.4849
96.3684
97.6968
98.6008
99.163
99.4326
72.2756
82.2605
88.0323
91.8336
94.485
96.3685
97.6969
98.6009
99.1631
99.4327
72.2757
82.2606
88.0324
91.8337
94.4851
96.3687
97.6971
98.6011
99.1633
99.4329
72.2759
82.2608
88.0326
91.8339
94.4854
96.3689
97.6973
98.6014
99.1635
99.4332
72.276
82.261
88.0329
91.8342
94.4856
96.3692
97.6976
98.6016
99.1638
99.4335
55.4996
64.0282
69.8008
73.7802
76.5789
78.5628
79.9559
80.9001
81.4855
81.7658
55.4994
64.028
69.8005
73.7799
76.5786
78.5625
79.9555
80.8998
81.4852
81.7655
55.4992
64.0278
69.8003
73.7797
76.5784
78.5623
79.9553
80.8996
81.485
81.7654
55.4991
64.0277
69.8002
73.7795
76.5783
78.5621
79.9552
80.8995
81.4849
81.7653
55.499
64.0276
69.8001
73.7795
76.5782
78.5621
79.9551
80.8994
81.4849
81.7652
55.499
64.0276
69.8001
73.7795
76.5782
78.5621
79.9552
80.8994
81.4849
81.7652
55.4991
64.0277
69.8002
73.7796
76.5783
78.5622
79.9553
80.8995
81.485
81.7653
55.4992
64.0278
69.8003
73.7797
76.5785
78.5623
79.9554
80.8997
81.4852
81.7655
55.4993
64.0279
69.8005
73.7799
76.5787
78.5625
79.9557
80.8999
81.4854
81.7658
55.4995
64.0282
69.8008
73.7802
76.579
78.5628
79.956
80.9003
81.4857
81.7661
43.7841
50.2442
55.1667
58.8017
61.4552
63.3738
64.7354
65.6637
66.2409
66.5177
43.7839
50.244
55.1665
58.8014
61.455
63.3735
64.7351
65.6634
66.2407
66.5175
43.7837
50.2438
55.1663
58.8012
61.4548
63.3733
64.735
65.6632
66.2405
66.5173
43.7836
50.2437
55.1662
58.8011
61.4547
63.3732
64.7348
65.6631
66.2404
66.5172
43.7835
50.2436
55.1661
58.8011
61.4546
63.3732
64.7348
65.663
66.2403
66.5172
43.7835
50.2436
55.1662
58.8011
61.4546
63.3732
64.7348
65.6631
66.2404
66.5172
43.7836
50.2437
55.1662
58.8011
61.4547
63.3733
64.7349
65.6632
66.2405
66.5173
43.7837
50.2438
55.1663
58.8013
61.4548
63.3734
64.735
65.6633
66.2406
66.5175
43.7838
50.244
55.1665
58.8015
61.4551
63.3736
64.7353
65.6635
66.2409
66.5177
43.784
50.2442
55.1668
58.8017
61.4553
63.3739
64.7356
65.6638
66.2412
66.518
34.7524
39.5417
43.4726
46.5468
48.8827
50.6174
51.8705
52.7345
53.2757
53.5361
34.7522
39.5415
43.4724
46.5465
48.8824
50.6172
51.8703
52.7343
53.2755
53.5359
34.752
39.5414
43.4722
46.5464
48.8823
50.617
51.8701
52.7341
53.2753
53.5358
34.7519
39.5413
43.4721
46.5463
48.8822
50.6169
51.87
52.734
53.2752
53.5357
34.7519
39.5412
43.472
46.5462
48.8821
50.6169
51.87
52.734
53.2752
53.5357
34.7519
39.5412
43.4721
46.5462
48.8821
50.6169
51.87
52.734
53.2752
53.5357
34.7519
39.5413
43.4721
46.5463
48.8822
50.617
51.8701
52.7341
53.2753
53.5358
34.752
39.5414
43.4722
46.5464
48.8823
50.6171
51.8702
52.7343
53.2754
53.536
34.7522
39.5415
43.4724
46.5466
48.8825
50.6173
51.8704
52.7345
53.2757
53.5362
34.7524
39.5418
43.4726
46.5468
48.8828
50.6176
51.8707
52.7347
53.2759
53.5365
27.5611
31.0927
34.1286
36.608
38.5596
40.0486
41.1456
41.9126
42.3974
42.6319
27.5609
31.0925
34.1284
36.6078
38.5594
40.0484
41.1454
41.9124
42.3972
42.6318
27.5608
31.0923
34.1282
36.6076
38.5593
40.0483
41.1452
41.9122
42.397
42.6316
27.5607
31.0923
34.1282
36.6075
38.5592
40.0482
41.1451
41.9121
42.397
42.6316
27.5607
31.0922
34.1281
36.6075
38.5592
40.0481
41.1451
41.9121
42.3969
42.6315
27.5607
31.0922
34.1281
36.6075
38.5592
40.0481
41.1451
41.9121
42.397
42.6316
27.5607
31.0923
34.1282
36.6076
38.5592
40.0482
41.1452
41.9122
42.397
42.6317
27.5608
31.0924
34.1283
36.6077
38.5594
40.0483
41.1453
41.9123
42.3972
42.6318
27.561
31.0925
34.1284
36.6079
38.5595
40.0485
41.1455
41.9125
42.3974
42.632
27.5611
31.0927
34.1286
36.6081
38.5598
40.0488
41.1458
41.9128
42.3976
42.6323
21.8051
24.3863
26.6744
28.6058
30.1725
31.398
32.3189
32.9722
33.3894
33.5924
21.8049
24.3862
26.6742
28.6057
30.1723
31.3978
32.3187
32.9721
33.3892
33.5923
21.8048
24.386
26.6741
28.6055
30.1722
31.3977
32.3186
32.9719
33.3891
33.5922
21.8047
24.386
26.674
28.6054
30.1721
31.3976
32.3185
32.9719
33.3891
33.5921
21.8047
24.3859
26.674
28.6054
30.1721
31.3976
32.3184
32.9718
33.389
33.5921
21.8047
24.3859
26.674
28.6054
30.1721
31.3976
32.3185
32.9718
33.3891
33.5921
21.8048
24.386
26.6741
28.6055
30.1721
31.3977
32.3185
32.9719
33.3891
33.5922
21.8048
24.3861
26.6742
28.6056
30.1722
31.3978
32.3187
32.972
33.3893
33.5924
21.805
24.3862
26.6743
28.6057
30.1724
31.398
32.3188
32.9722
33.3894
33.5925
21.8051
24.3864
26.6745
28.6059
30.1726
31.3982
32.319
32.9724
33.3897
33.5928
17.2318
19.0766
20.7532
22.2097
23.4239
24.3967
25.1419
25.6786
26.0249
26.1944
17.2317
19.0765
20.753
22.2095
23.4238
24.3966
25.1418
25.6785
26.0247
26.1943
17.2316
19.0764
20.7529
22.2094
23.4237
24.3964
25.1417
25.6783
26.0246
26.1942
17.2315
19.0763
20.7529
22.2093
23.4236
24.3964
25.1416
25.6783
26.0246
26.1942
17.2315
19.0763
20.7528
22.2093
23.4236
24.3963
25.1416
25.6783
26.0245
26.1942
17.2315
19.0763
20.7528
22.2093
23.4236
24.3964
25.1416
25.6783
26.0246
26.1942
17.2315
19.0763
20.7529
22.2094
23.4237
24.3964
25.1417
25.6783
26.0246
26.1943
17.2316
19.0764
20.753
22.2095
23.4238
24.3965
25.1418
25.6785
26.0248
26.1944
17.2317
19.0765
20.7531
22.2096
23.4239
24.3967
25.1419
25.6786
26.0249
26.1945
17.2318
19.0767
20.7533
22.2098
23.4241
24.3969
25.1421
25.6788
26.0251
26.1947
13.6539
14.9026
16.078
17.1354
18.044
18.7903
19.3736
19.8
20.0782
20.2152
13.6538
14.9024
16.0779
17.1353
18.0439
18.7902