/*--------------------------------*- C++ -*----------------------------------*\
  =========                 |
  \\      /  F ield         | OpenFOAM: The Open Source CFD Toolbox
   \\    /   O peration     | Website:  https://openfoam.org
    \\  /    A nd           | Version:  6
     \\/     M anipulation  |
\*---------------------------------------------------------------------------*/
FoamFile
{
    version     2.0;
    format      ascii;
    class       volScalarField;
    location    "0.85";
    object      T;
}
// * * * * * * * * * * * * * * * * * * * * * * * * * * * * * * * * * * * * * //

dimensions      [0 0 0 1 0 0 0];

internalField   nonuniform List<scalar> 
7000
(
106.525
106.524
106.521
106.517
106.512
106.507
106.502
106.497
106.494
106.492
106.525
106.524
106.521
106.517
106.512
106.507
106.502
106.497
106.494
106.492
106.525
106.524
106.521
106.517
106.512
106.507
106.502
106.497
106.494
106.492
106.525
106.524
106.521
106.517
106.512
106.507
106.502
106.497
106.494
106.492
106.525
106.524
106.521
106.517
106.512
106.507
106.502
106.497
106.494
106.492
106.525
106.524
106.521
106.517
106.512
106.507
106.502
106.497
106.494
106.492
106.525
106.524
106.521
106.517
106.512
106.507
106.502
106.497
106.494
106.492
106.525
106.524
106.521
106.517
106.512
106.507
106.502
106.497
106.494
106.492
106.525
106.524
106.521
106.517
106.512
106.507
106.502
106.497
106.494
106.492
106.525
106.524
106.521
106.517
106.512
106.507
106.502
106.497
106.494
106.492
99.5966
99.5922
99.5837
99.5717
99.5571
99.5411
99.5251
99.511
99.5003
99.4946
99.5966
99.5922
99.5837
99.5717
99.5571
99.541
99.5251
99.511
99.5003
99.4946
99.5966
99.5922
99.5837
99.5717
99.5571
99.541
99.5251
99.511
99.5003
99.4946
99.5966
99.5922
99.5837
99.5717
99.5571
99.541
99.5251
99.5109
99.5003
99.4946
99.5966
99.5922
99.5837
99.5717
99.5571
99.541
99.5251
99.5109
99.5003
99.4946
99.5966
99.5922
99.5837
99.5717
99.5571
99.541
99.5251
99.5109
99.5003
99.4946
99.5966
99.5922
99.5837
99.5717
99.5571
99.541
99.5251
99.5109
99.5003
99.4946
99.5966
99.5922
99.5837
99.5717
99.5571
99.541
99.5251
99.5109
99.5003
99.4946
99.5966
99.5922
99.5837
99.5717
99.5571
99.541
99.5251
99.511
99.5003
99.4946
99.5966
99.5922
99.5837
99.5717
99.5571
99.541
99.5251
99.511
99.5003
99.4946
92.7324
92.7249
92.7104
92.6899
92.6647
92.6369
92.609
92.5841
92.5652
92.5549
92.7324
92.7249
92.7104
92.6899
92.6647
92.6369
92.609
92.5841
92.5652
92.5549
92.7323
92.7249
92.7104
92.6899
92.6647
92.6369
92.609
92.5841
92.5652
92.5549
92.7323
92.7249
92.7104
92.6898
92.6647
92.6369
92.609
92.5841
92.5651
92.5549
92.7323
92.7249
92.7104
92.6898
92.6647
92.6369
92.609
92.5841
92.5651
92.5549
92.7323
92.7249
92.7104
92.6898
92.6647
92.6369
92.609
92.5841
92.5651
92.5549
92.7323
92.7249
92.7104
92.6898
92.6647
92.6369
92.609
92.5841
92.5651
92.5549
92.7323
92.7249
92.7104
92.6898
92.6647
92.6369
92.609
92.5841
92.5652
92.5549
92.7323
92.7249
92.7104
92.6899
92.6647
92.6369
92.609
92.5841
92.5652
92.5549
92.7324
92.7249
92.7104
92.6899
92.6647
92.6369
92.609
92.5841
92.5652
92.5549
85.9744
85.9636
85.9427
85.9129
85.876
85.8349
85.7931
85.7551
85.7259
85.71
85.9743
85.9636
85.9427
85.9129
85.876
85.8349
85.7931
85.7551
85.7259
85.7099
85.9743
85.9636
85.9427
85.9129
85.876
85.8348
85.793
85.7551
85.7259
85.7099
85.9743
85.9636
85.9427
85.9129
85.876
85.8348
85.793
85.7551
85.7259
85.7099
85.9743
85.9636
85.9427
85.9129
85.876
85.8348
85.793
85.7551
85.7259
85.7099
85.9743
85.9636
85.9427
85.9129
85.876
85.8348
85.793
85.7551
85.7259
85.7099
85.9743
85.9636
85.9427
85.9129
85.876
85.8348
85.793
85.7551
85.7259
85.7099
85.9743
85.9636
85.9427
85.9129
85.876
85.8348
85.793
85.7551
85.7259
85.7099
85.9743
85.9636
85.9427
85.9129
85.876
85.8348
85.793
85.7551
85.7259
85.7099
85.9743
85.9636
85.9427
85.9129
85.876
85.8349
85.7931
85.7551
85.7259
85.71
79.3633
79.3492
79.3215
79.2816
79.2316
79.1749
79.1162
79.0617
79.0188
78.9949
79.3633
79.3491
79.3214
79.2815
79.2316
79.1749
79.1161
79.0616
79.0187
78.9948
79.3633
79.3491
79.3214
79.2815
79.2315
79.1748
79.1161
79.0616
79.0187
78.9948
79.3633
79.3491
79.3214
79.2815
79.2315
79.1748
79.1161
79.0616
79.0187
78.9948
79.3633
79.3491
79.3214
79.2815
79.2315
79.1748
79.1161
79.0616
79.0187
78.9948
79.3633
79.3491
79.3214
79.2815
79.2315
79.1748
79.1161
79.0616
79.0187
78.9948
79.3633
79.3491
79.3214
79.2815
79.2315
79.1748
79.1161
79.0616
79.0187
78.9948
79.3633
79.3491
79.3214
79.2815
79.2315
79.1748
79.1161
79.0616
79.0187
78.9948
79.3633
79.3491
79.3214
79.2815
79.2315
79.1749
79.1161
79.0616
79.0187
78.9948
79.3633
79.3491
79.3214
79.2815
79.2316
79.1749
79.1162
79.0616
79.0187
78.9949
72.9384
72.9207
72.886
72.8354
72.7709
72.6962
72.6165
72.54
72.4777
72.4418
72.9384
72.9207
72.886
72.8353
72.7709
72.6961
72.6165
72.54
72.4776
72.4418
72.9383
72.9207
72.8859
72.8353
72.7709
72.6961
72.6165
72.54
72.4776
72.4418
72.9383
72.9207
72.8859
72.8353
72.7709
72.6961
72.6164
72.54
72.4776
72.4417
72.9383
72.9207
72.8859
72.8353
72.7708
72.6961
72.6164
72.54
72.4776
72.4417
72.9383
72.9207
72.8859
72.8353
72.7708
72.6961
72.6164
72.54
72.4776
72.4417
72.9383
72.9207
72.8859
72.8353
72.7708
72.6961
72.6164
72.54
72.4776
72.4417
72.9383
72.9207
72.8859
72.8353
72.7709
72.6961
72.6165
72.54
72.4776
72.4417
72.9383
72.9207
72.8859
72.8353
72.7709
72.6961
72.6165
72.54
72.4776
72.4418
72.9384
72.9207
72.886
72.8353
72.7709
72.6962
72.6165
72.54
72.4777
72.4418
66.7363
66.7153
66.6738
66.6125
66.5328
66.4376
66.3321
66.2258
66.134
66.0781
66.7362
66.7153
66.6738
66.6124
66.5327
66.4375
66.3321
66.2258
66.1339
66.0781
66.7362
66.7153
66.6737
66.6124
66.5327
66.4375
66.3321
66.2257
66.1339
66.078
66.7362
66.7152
66.6737
66.6124
66.5327
66.4375
66.332
66.2257
66.1339
66.078
66.7362
66.7152
66.6737
66.6124
66.5327
66.4375
66.332
66.2257
66.1339
66.078
66.7362
66.7152
66.6737
66.6124
66.5327
66.4375
66.332
66.2257
66.1339
66.078
66.7362
66.7152
66.6737
66.6124
66.5327
66.4375
66.332
66.2257
66.1339
66.078
66.7362
66.7152
66.6737
66.6124
66.5327
66.4375
66.332
66.2257
66.1339
66.078
66.7362
66.7153
66.6737
66.6124
66.5327
66.4375
66.3321
66.2257
66.1339
66.078
66.7362
66.7153
66.6738
66.6124
66.5327
66.4376
66.3321
66.2258
66.134
66.0781
60.7906
60.767
60.7199
60.6491
60.555
60.4383
60.3022
60.1551
60.0161
59.9224
60.7906
60.767
60.7198
60.6491
60.5549
60.4383
60.3022
60.155
60.0161
59.9223
60.7905
60.767
60.7198
60.6491
60.5549
60.4382
60.3022
60.155
60.016
59.9223
60.7905
60.7669
60.7198
60.6491
60.5549
60.4382
60.3021
60.155
60.016
59.9223
60.7905
60.7669
60.7198
60.649
60.5549
60.4382
60.3021
60.155
60.016
59.9223
60.7905
60.7669
60.7198
60.649
60.5549
60.4382
60.3021
60.155
60.016
59.9223
60.7905
60.7669
60.7198
60.649
60.5549
60.4382
60.3021
60.155
60.016
59.9223
60.7905
60.7669
60.7198
60.6491
60.5549
60.4382
60.3022
60.155
60.016
59.9223
60.7905
60.767
60.7198
60.6491
60.5549
60.4383
60.3022
60.155
60.0161
59.9223
60.7906
60.767
60.7199
60.6491
60.555
60.4383
60.3022
60.1551
60.0161
59.9224
55.1312
55.1062
55.056
54.9793
54.8744
54.7389
54.5702
54.3695
54.152
53.9756
55.1311
55.1062
55.0559
54.9792
54.8744
54.7389
54.5702
54.3694
54.152
53.9756
55.1311
55.1062
55.0559
54.9792
54.8744
54.7388
54.5702
54.3694
54.152
53.9755
55.1311
55.1061
55.0559
54.9792
54.8743
54.7388
54.5701
54.3693
54.1519
53.9755
55.131
55.1061
55.0558
54.9792
54.8743
54.7388
54.5701
54.3693
54.1519
53.9755
55.131
55.1061
55.0558
54.9792
54.8743
54.7388
54.5701
54.3693
54.1519
53.9755
55.131
55.1061
55.0558
54.9792
54.8743
54.7388
54.5701
54.3693
54.1519
53.9755
55.1311
55.1061
55.0559
54.9792
54.8743
54.7388
54.5701
54.3694
54.1519
53.9755
55.1311
55.1062
55.0559
54.9792
54.8744
54.7388
54.5702
54.3694
54.152
53.9756
55.1311
55.1062
55.0559
54.9793
54.8744
54.7389
54.5702
54.3694
54.152
53.9756
49.7828
49.7585
49.7092
49.6329
49.526
49.3815
49.1879
48.9275
48.5833
48.1954
49.7828
49.7585
49.7092
49.6329
49.5259
49.3814
49.1878
48.9275
48.5832
48.1953
49.7827
49.7585
49.7091
49.6329
49.5259
49.3814
49.1878
48.9274
48.5832
48.1953
49.7827
49.7584
49.7091
49.6328
49.5259
49.3814
49.1878
48.9274
48.5831
48.1952
49.7827
49.7584
49.7091
49.6328
49.5258
49.3814
49.1878
48.9274
48.5831
48.1952
49.7827
49.7584
49.7091
49.6328
49.5258
49.3814
49.1878
48.9274
48.5831
48.1952
49.7827
49.7584
49.7091
49.6328
49.5259
49.3814
49.1878
48.9274
48.5831
48.1952
49.7827
49.7584
49.7091
49.6328
49.5259
49.3814
49.1878
48.9274
48.5832
48.1953
49.7828
49.7585
49.7091
49.6329
49.5259
49.3814
49.1878
48.9274
48.5832
48.1953
49.7828
49.7585
49.7092
49.6329
49.526
49.3815
49.1879
48.9275
48.5832
48.1953
44.7646
44.7436
44.7008
44.6342
44.5394
44.407
44.2177
43.9283
43.4321
42.4149
44.7646
44.7435
44.7007
44.6341
44.5393
44.407
44.2176
43.9283
43.432
42.4149
44.7645
44.7435
44.7007
44.6341
44.5393
44.4069
44.2176
43.9282
43.432
42.4148
44.7645
44.7435
44.7007
44.6341
44.5392
44.4069
44.2176
43.9282
43.4319
42.4148
44.7645
44.7435
44.7007
44.6341
44.5392
44.4069
44.2176
43.9282
43.4319
42.4148
44.7645
44.7435
44.7007
44.6341
44.5392
44.4069
44.2176
43.9282
43.4319
42.4148
44.7645
44.7435
44.7007
44.6341
44.5392
44.4069
44.2176
43.9282
43.4319
42.4148
44.7645
44.7435
44.7007
44.6341
44.5393
44.4069
44.2176
43.9282
43.4319
42.4148
44.7645
44.7435
44.7007
44.6341
44.5393
44.4069
44.2176
43.9283
43.432
42.4148
44.7646
44.7435
44.7008
44.6342
44.5393
44.407
44.2177
43.9283
43.432
42.4149
40.0888
40.0739
40.0439
39.9979
39.9334
39.8441
39.7166
39.5232
39.2123
38.7077
40.0888
40.0739
40.0439
39.9979
39.9333
39.844
39.7165
39.5232
39.2123
38.7077
40.0887
40.0738
40.0438
39.9978
39.9333
39.844
39.7164
39.5231
39.2122
38.7076
40.0887
40.0738
40.0438
39.9978
39.9333
39.844
39.7164
39.5231
39.2122
38.7076
40.0887
40.0738
40.0438
39.9978
39.9332
39.8439
39.7164
39.5231
39.2122
38.7076
40.0887
40.0738
40.0438
39.9978
39.9332
39.8439
39.7164
39.5231
39.2122
38.7076
40.0887
40.0738
40.0438
39.9978
39.9333
39.844
39.7164
39.5231
39.2122
38.7076
40.0887
40.0738
40.0438
39.9978
39.9333
39.844
39.7164
39.5231
39.2122
38.7076
40.0887
40.0738
40.0439
39.9979
39.9333
39.844
39.7165
39.5231
39.2122
38.7076
40.0888
40.0739
40.0439
39.9979
39.9334
39.8441
39.7165
39.5232
39.2123
38.7077
35.7606
35.7544
35.7429
35.7274
35.7094
35.6898
35.6682
35.6438
35.6212
35.6388
35.7606
35.7544
35.7429
35.7274
35.7093
35.6897
35.6682
35.6437
35.6211
35.6387
35.7605
35.7544
35.7428
35.7273
35.7093
35.6897
35.6681
35.6436
35.6211
35.6387
35.7605
35.7543
35.7428
35.7273
35.7093
35.6896
35.6681
35.6436
35.6211
35.6386
35.7605
35.7543
35.7428
35.7273
35.7092
35.6896
35.6681
35.6436
35.621
35.6386
35.7605
35.7543
35.7428
35.7273
35.7092
35.6896
35.6681
35.6436
35.621
35.6386
35.7605
35.7543
35.7428
35.7273
35.7092
35.6896
35.6681
35.6436
35.621
35.6386
35.7605
35.7543
35.7428
35.7273
35.7093
35.6896
35.6681
35.6436
35.6211
35.6387
35.7605
35.7544
35.7429
35.7273
35.7093
35.6897
35.6681
35.6437
35.6211
35.6387
35.7606
35.7544
35.7429
35.7274
35.7094
35.6897
35.6682
35.6437
35.6212
35.6388
31.7783
31.7827
31.7935
31.8149
31.8535
31.9181
32.0217
32.1839
32.4392
32.8558
31.7783
31.7826
31.7934
31.8149
31.8534
31.9181
32.0217
32.1838
32.4392
32.8557
31.7782
31.7826
31.7934
31.8148
31.8534
31.918
32.0216
32.1838
32.4391
32.8557
31.7782
31.7826
31.7933
31.8148
31.8533
31.918
32.0216
32.1837
32.4391
32.8556
31.7782
31.7825
31.7933
31.8148
31.8533
31.918
32.0216
32.1837
32.4391
32.8556
31.7782
31.7825
31.7933
31.8148
31.8533
31.918
32.0216
32.1837
32.4391
32.8556
31.7782
31.7825
31.7933
31.8148
31.8533
31.918
32.0216
32.1837
32.4391
32.8556
31.7782
31.7826
31.7934
31.8148
31.8533
31.918
32.0216
32.1838
32.4391
32.8557
31.7783
31.7826
31.7934
31.8148
31.8534
31.9181
32.0217
32.1838
32.4392
32.8557
31.7783
31.7826
31.7934
31.8149
31.8534
31.9181
32.0217
32.1839
32.4392
32.8558
28.1344
28.1498
28.1842
28.2446
28.3423
28.4935
28.7216
29.059
29.5522
30.2681
28.1343
28.1498
28.1842
28.2446
28.3422
28.4935
28.7215
29.0589
29.5521
30.2681
28.1343
28.1497
28.1841
28.2445
28.3422
28.4934
28.7215
29.0588
29.552
30.268
28.1342
28.1497
28.1841
28.2445
28.3421
28.4934
28.7214
29.0588
29.552
30.268
28.1342
28.1497
28.1841
28.2445
28.3421
28.4934
28.7214
29.0588
29.552
30.2679
28.1342
28.1497
28.1841
28.2445
28.3421
28.4934
28.7214
29.0588
29.552
30.2679
28.1342
28.1497
28.1841
28.2445
28.3421
28.4934
28.7214
29.0588
29.552
30.268
28.1343
28.1497
28.1841
28.2445
28.3422
28.4934
28.7215
29.0588
29.552
30.268
28.1343
28.1498
28.1842
28.2446
28.3422
28.4935
28.7215
29.0589
29.5521
30.268
28.1343
28.1498
28.1842
28.2446
28.3423
28.4935
28.7216
29.0589
29.5521
30.2681
24.8165
24.8424
24.899
24.9958
25.148
25.3782
25.7175
26.2071
26.8992
27.8534
24.8164
24.8424
24.899
24.9957
25.148
25.3782
25.7174
26.2071
26.8991
27.8533
24.8164
24.8424
24.8989
24.9957
25.1479
25.3781
25.7174
26.207
26.8991
27.8533
24.8164
24.8423
24.8989
24.9957
25.1479
25.3781
25.7173
26.207
26.899
27.8533
24.8163
24.8423
24.8989
24.9956
25.1479
25.3781
25.7173
26.207
26.899
27.8532
24.8163
24.8423
24.8989
24.9956
25.1479
25.3781
25.7173
26.207
26.899
27.8532
24.8163
24.8423
24.8989
24.9957
25.1479
25.3781
25.7173
26.207
26.899
27.8532
24.8164
24.8423
24.8989
24.9957
25.1479
25.3781
25.7174
26.207
26.8991
27.8533
24.8164
24.8424
24.899
24.9957
25.148
25.3782
25.7174
26.207
26.8991
27.8533
24.8164
24.8424
24.899
24.9958
25.148
25.3782
25.7175
26.2071
26.8992
27.8534
21.8094
21.8441
21.919
22.0454
22.2418
22.5353
22.9638
23.5773
24.4365
25.6018
21.8093
21.844
21.9189
22.0454
22.2418
22.5353
22.9637
23.5773
24.4365
25.6017
21.8093
21.844
21.9189
22.0453
22.2417
22.5352
22.9637
23.5772
24.4364
25.6016
21.8093
21.844
21.9189
22.0453
22.2417
22.5352
22.9637
23.5772
24.4364
25.6016
21.8093
21.844
21.9189
22.0453
22.2417
22.5352
22.9636
23.5772
24.4364
25.6016
21.8093
21.844
21.9189
22.0453
22.2417
22.5352
22.9636
23.5772
24.4364
25.6016
21.8093
21.844
21.9189
22.0453
22.2417
22.5352
22.9637
23.5772
24.4364
25.6016
21.8093
21.844
21.9189
22.0453
22.2417
22.5352
22.9637
23.5772
24.4364
25.6016
21.8093
21.844
21.9189
22.0454
22.2418
22.5353
22.9637
23.5773
24.4365
25.6017
21.8093
21.8441
21.919
22.0454
22.2418
22.5353
22.9638
23.5773
24.4365
25.6017
19.0963
19.1371
19.2244
19.3707
19.5958
19.93
20.4167
21.1169
22.1111
23.4866
19.0962
19.137
19.2244
19.3706
19.5958
19.9299
20.4166
21.1169
22.111
23.4865
19.0962
19.137
19.2244
19.3706
19.5958
19.9299
20.4166
21.1168
22.111
23.4865
19.0962
19.1369
19.2243
19.3706
19.5957
19.9299
20.4166
21.1168
22.1109
23.4864
19.0962
19.1369
19.2243
19.3706
19.5957
19.9299
20.4166
21.1168
22.1109
23.4864
19.0962
19.1369
19.2243
19.3706
19.5957
19.9299
20.4166
21.1168
22.1109
23.4864
19.0962
19.1369
19.2243
19.3706
19.5957
19.9299
20.4166
21.1168
22.111
23.4864
19.0962
19.137
19.2244
19.3706
19.5957
19.9299
20.4166
21.1168
22.111
23.4865
19.0962
19.137
19.2244
19.3706
19.5958
19.9299
20.4166
21.1169
22.111
23.4865
19.0963
19.137
19.2244
19.3707
19.5958
19.93
20.4167
21.117
22.1111
23.4866
16.6603
16.7039
16.7968
16.951
17.1859
17.5318
18.0341
18.7636
19.8334
21.4194
16.6602
16.7038
16.7968
16.9509
17.1859
17.5317
18.0341
18.7636
19.8333
21.4193
16.6602
16.7038
16.7967
16.9509
17.1858
17.5317
18.034
18.7635
19.8333
21.4193
16.6602
16.7038
16.7967
16.9509
17.1858
17.5317
18.034
18.7635
19.8332
21.4192
16.6602
16.7038
16.7967
16.9508
17.1858
17.5317
18.034
18.7635
19.8332
21.4192
16.6602
16.7038
16.7967
16.9508
17.1858
17.5317
18.034
18.7635
19.8332
21.4192
16.6602
16.7038
16.7967
16.9509
17.1858
17.5317
18.034
18.7635
19.8332
21.4192
16.6602
16.7038
16.7967
16.9509
17.1858
17.5317
18.034
18.7635
19.8333
21.4193
16.6602
16.7038
16.7968
16.9509
17.1859
17.5317
18.0341
18.7636
19.8333
21.4193
16.6602
16.7039
16.7968
16.951
17.1859
17.5318
18.0341
18.7636
19.8334
21.4194
14.4852
14.5285
14.62
14.7699
14.995
15.3204
15.7848
16.4519
17.4484
19.1031
14.4852
14.5285
14.62
14.7699
14.995
15.3204
15.7847
16.4519
17.4484
19.103
14.4852
14.5284
14.6199
14.7699
14.9949
15.3203
15.7847
16.4518
17.4483
19.103
14.4852
14.5284
14.6199
14.7698
14.9949
15.3203
15.7847
16.4518
17.4483
19.103
14.4851
14.5284
14.6199
14.7698
14.9949
15.3203
15.7847
16.4518
17.4483
19.103
14.4851
14.5284
14.6199
14.7698
14.9949
15.3203
15.7847
16.4518
17.4483
19.103
14.4852
14.5284
14.6199
14.7698
14.9949
15.3203
15.7847
16.4518
17.4483
19.103
14.4852
14.5284
14.6199
14.7699
14.9949
15.3204
15.7847
16.4518
17.4483
19.103
14.4852
14.5285
14.62
14.7699
14.995
15.3204
15.7847
16.4519
17.4484
19.1031
14.4852
14.5285
14.62
14.7699
14.995
15.3204
15.7848
16.4519
17.4484
19.1031
39.7689
39.3638
40.5556
43.14
47.1105
52.5914
59.8441
69.3318
81.8959
99.2246
39.7688
39.3637
40.5555
43.1399
47.1104
52.5913
59.8439
69.3317
81.8957
99.2244
39.7688
39.3636
40.5554
43.1399
47.1103
52.5912
59.8439
69.3316
81.8956
99.2243
39.7687
39.3636
40.5554
43.1398
47.1102
52.5911
59.8438
69.3315
81.8956
99.2243
39.7687
39.3635
40.5553
43.1398
47.1102
52.5911
59.8438
69.3315
81.8955
99.2242
39.7687
39.3635
40.5553
43.1398
47.1102
52.5911
59.8438
69.3315
81.8955
99.2242
39.7687
39.3636
40.5553
43.1398
47.1102
52.5911
59.8438
69.3315
81.8956
99.2243
39.7687
39.3636
40.5554
43.1398
47.1102
52.5911
59.8438
69.3315
81.8956
99.2243
39.7688
39.3636
40.5554
43.1399
47.1103
52.5912
59.8439
69.3316
81.8957
99.2244
39.7688
39.3637
40.5555
43.14
47.1104
52.5913
59.844
69.3317
81.8958
99.2245
38.035
38.3256
39.7681
42.4026
46.2891
51.5467
58.371
67.0487
77.9508
91.3792
38.0349
38.3255
39.7681
42.4025
46.289
51.5466
58.3709
67.0486
77.9507
91.379
38.0348
38.3254
39.768
42.4024
46.2889
51.5465
58.3708
67.0485
77.9506
91.3789
38.0348
38.3254
39.7679
42.4024
46.2888
51.5464
58.3707
67.0484
77.9505
91.3789
38.0348
38.3254
39.7679
42.4023
46.2888
51.5464
58.3707
67.0484
77.9505
91.3788
38.0348
38.3254
39.7679
42.4023
46.2888
51.5464
58.3707
67.0484
77.9505
91.3788
38.0348
38.3254
39.7679
42.4024
46.2888
51.5464
58.3707
67.0484
77.9505
91.3789
38.0348
38.3254
39.768
42.4024
46.2888
51.5465
58.3708
67.0484
77.9505
91.3789
38.0349
38.3255
39.768
42.4025
46.2889
51.5465
58.3708
67.0485
77.9506
91.379
38.0349
38.3255
39.7681
42.4025
46.289
51.5466
58.3709
67.0486
77.9507
91.3791
35.8536
36.6973
38.3948
41.0613
44.7847
49.6612
55.8052
63.3331
72.2985
82.5086
35.8535
36.6973
38.3947
41.0612
44.7846
49.6611
55.8051
63.333
72.2984
82.5085
35.8534
36.6972
38.3946
41.0611
44.7845
49.661
55.805
63.3329
72.2983
82.5084
35.8534
36.6971
38.3946
41.0611
44.7844
49.661
55.805
63.3328
72.2982
82.5083
35.8534
36.6971
38.3946
41.0611
44.7844
49.6609
55.8049
63.3328
72.2982
82.5083
35.8534
36.6971
38.3946
41.0611
44.7844
49.6609
55.8049
63.3328
72.2982
82.5083
35.8534
36.6971
38.3946
41.0611
44.7844
49.6609
55.8049
63.3328
72.2982
82.5083
35.8534
36.6972
38.3946
41.0611
44.7844
49.661
55.805
63.3329
72.2983
82.5084
35.8535
36.6972
38.3947
41.0612
44.7845
49.6611
55.8051
63.333
72.2984
82.5084
35.8535
36.6973
38.3948
41.0613
44.7846
49.6612
55.8052
63.3331
72.2985
82.5086
33.5659
34.7797
36.6584
39.31
42.813
47.2313
52.6131
58.9689
66.2181
74.0904
33.5658
34.7796
36.6583
39.3099
42.8129
47.2312
52.6129
58.9688
66.218
74.0902
33.5658
34.7796
36.6583
39.3098
42.8128
47.2311
52.6129
58.9687
66.2179
74.0902
33.5657
34.7795
36.6582
39.3098
42.8128
47.231
52.6128
58.9686
66.2178
74.0901
33.5657
34.7795
36.6582
39.3098
42.8127
47.231
52.6128
58.9686
66.2178
74.0901
33.5657
34.7795
36.6582
39.3098
42.8127
47.231
52.6128
58.9686
66.2178
74.0901
33.5657
34.7795
36.6582
39.3098
42.8128
47.231
52.6128
58.9686
66.2178
74.0901
33.5658
34.7796
36.6583
39.3098
42.8128
47.2311
52.6128
58.9687
66.2179
74.0901
33.5658
34.7796
36.6583
39.3099
42.8129
47.2311
52.6129
58.9688
66.218
74.0902
33.5659
34.7797
36.6584
39.31
42.813
47.2313
52.613
58.9689
66.2181
74.0903
31.3002
32.7621
34.7539
37.3515
40.6085
44.5567
49.1995
54.495
60.326
66.4636
31.3001
32.762
34.7538
37.3514
40.6084
44.5566
49.1994
54.4949
60.3259
66.4635
31.3
32.7619
34.7537
37.3513
40.6083
44.5565
49.1993
54.4948
60.3258
66.4634
31.3
32.7619
34.7537
37.3512
40.6082
44.5564
49.1993
54.4947
60.3257
66.4633
31.2999
32.7619
34.7536
37.3512
40.6082
44.5564
49.1993
54.4947
60.3257
66.4633
31.2999
32.7619
34.7536
37.3512
40.6082
44.5564
49.1993
54.4947
60.3257
66.4633
31.3
32.7619
34.7537
37.3512
40.6082
44.5564
49.1993
54.4947
60.3257
66.4633
31.3
32.7619
34.7537
37.3513
40.6083
44.5565
49.1993
54.4948
60.3258
66.4634
31.3001
32.762
34.7538
37.3513
40.6083
44.5566
49.1994
54.4949
60.3259
66.4635
31.3001
32.7621
34.7538
37.3514
40.6084
44.5567
49.1995
54.495
60.326
66.4636
29.1293
30.7773
32.8451
35.3737
38.3904
41.9008
45.8799
50.2622
54.9309
59.7147
29.1292
30.7772
32.845
35.3736
38.3903
41.9006
45.8798
50.2621
54.9308
59.7146
29.1291
30.7771
32.8449
35.3736
38.3902
41.9006
45.8797
50.262
54.9307
59.7145
29.1291
30.7771
32.8449
35.3735
38.3902
41.9005
45.8796
50.2619
54.9307
59.7145
29.1291
30.7771
32.8449
35.3735
38.3902
41.9005
45.8796
50.2619
54.9307
59.7144
29.1291
30.7771
32.8448
35.3735
38.3902
41.9005
45.8796
50.2619
54.9307
59.7144
29.1291
30.7771
32.8449
35.3735
38.3902
41.9005
45.8796
50.2619
54.9307
59.7145
29.1291
30.7771
32.8449
35.3735
38.3902
41.9006
45.8797
50.262
54.9307
59.7145
29.1292
30.7772
32.845
35.3736
38.3903
41.9006
45.8798
50.2621
54.9308
59.7146
29.1292
30.7773
32.8451
35.3737
38.3904
41.9007
45.8799
50.2622
54.9309
59.7147
27.1066
28.9309
31.0723
33.543
36.3508
39.483
42.8963
46.5112
50.2148
53.8779
27.1065
28.9308
31.0722
33.5429
36.3507
39.4829
42.8961
46.5111
50.2147
53.8778
27.1064
28.9308
31.0722
33.5429
36.3506
39.4828
42.8961
46.511
50.2146
53.8777
27.1064
28.9307
31.0721
33.5428
36.3506
39.4828
42.896
46.511
50.2146
53.8777
27.1064
28.9307
31.0721
33.5428
36.3506
39.4827
42.896
46.5109
50.2145
53.8776
27.1064
28.9307
31.0721
33.5428
36.3506
39.4827
42.896
46.5109
50.2145
53.8776
27.1064
28.9307
31.0721
33.5428
36.3506
39.4828
42.896
46.511
50.2146
53.8777
27.1064
28.9308
31.0722
33.5429
36.3506
39.4828
42.8961
46.511
50.2146
53.8777
27.1065
28.9308
31.0722
33.543
36.3507
39.4829
42.8962
46.5111
50.2147
53.8778
27.1065
28.9309
31.0723
33.543
36.3508
39.483
42.8963
46.5112
50.2148
53.8779
25.2772
27.3192
29.5612
32.0047
34.6529
37.4845
40.4425
43.4307
46.3222
48.9929
25.2771
27.3192
29.5611
32.0046
34.6528
37.4844
40.4424
43.4306
46.3221
48.9927
25.277
27.3191
29.5611
32.0046
34.6527
37.4843
40.4423
43.4305
46.322
48.9927
25.277
27.3191
29.561
32.0045
34.6527
37.4842
40.4422
43.4305
46.3219
48.9926
25.277
27.319
29.561
32.0045
34.6526
37.4842
40.4422
43.4304
46.3219
48.9926
25.277
27.319
29.561
32.0045
34.6526
37.4842
40.4422
43.4304
46.3219
48.9926
25.277
27.3191
29.561
32.0045
34.6527
37.4842
40.4423
43.4305
46.3219
48.9926
25.277
27.3191
29.5611
32.0046
34.6527
37.4843
40.4423
43.4305
46.322
48.9927
25.2771
27.3192
29.5611
32.0047
34.6528
37.4844
40.4424
43.4306
46.3221
48.9928
25.2772
27.3192
29.5612
32.0047
34.6529
37.4845
40.4425
43.4307
46.3222
48.9929
23.699
26.0516
28.4332
30.8856
33.432
36.0537
38.6828
41.1974
43.4221
45.1549
23.6989
26.0515
28.4331
30.8855
33.4319
36.0536
38.6827
41.1973
43.422
45.1548
23.6988
26.0515
28.4331
30.8854
33.4318
36.0536
38.6827
41.1972
43.4219
45.1547
23.6988
26.0515
28.433
30.8854
33.4318
36.0535
38.6826
41.1972
43.4219
45.1546
23.6988
26.0514
28.433
30.8854
33.4317
36.0535
38.6826
41.1971
43.4219
45.1546
23.6988
26.0514
28.433
30.8854
33.4317
36.0535
38.6826
41.1971
43.4219
45.1546
23.6988
26.0515
28.4331
30.8854
33.4318
36.0535
38.6826
41.1972
43.4219
45.1546
23.6988
26.0515
28.4331
30.8854
33.4318
36.0536
38.6827
41.1972
43.4219
45.1547
23.6989
26.0516
28.4332
30.8855
33.4319
36.0537
38.6828
41.1973
43.422
45.1548
23.699
26.0516
28.4332
30.8856
33.432
36.0538
38.6829
41.1974
43.4221
45.1549
22.5381
25.291
27.8135
30.2915
32.7917
35.3051
37.7565
39.997
41.776
42.6645
22.5381
25.291
27.8134
30.2914
32.7916
35.305
37.7564
39.9969
41.7759
42.6644
22.538
25.2909
27.8134
30.2913
32.7915
35.3049
37.7563
39.9969
41.7759
42.6644
22.538
25.2909
27.8133
30.2913
32.7915
35.3049
37.7563
39.9968
41.7758
42.6643
22.538
25.2909
27.8133
30.2913
32.7915
35.3049
37.7563
39.9968
41.7758
42.6643
22.538
25.2909
27.8133
30.2913
32.7915
35.3049
37.7563
39.9968
41.7758
42.6643
22.538
25.2909
27.8133
30.2913
32.7915
35.3049
37.7563
39.9968
41.7758
42.6643
22.5381
25.291
27.8134
30.2914
32.7916
35.3049
37.7564
39.9969
41.7759
42.6644
22.5381
25.291
27.8134
30.2914
32.7916
35.305
37.7565
39.997
41.776
42.6645
22.5382
25.2911
27.8135
30.2915
32.7917
35.3051
37.7566
39.9971
41.7761
42.6646
125.238
137.671
145.337
150.735
154.749
157.777
160.029
161.632
162.664
163.169
125.238
137.671
145.337
150.735
154.749
157.776
160.029
161.632
162.664
163.169
125.238
137.671
145.337
150.735
154.749
157.776
160.029
161.632
162.664
163.169
125.238
137.671
145.337
150.734
154.749
157.776
160.029
161.632
162.664
163.169
125.238
137.671
145.337
150.734
154.749
157.776
160.029
161.632
162.664
163.169
125.238
137.671
145.337
150.734
154.749
157.776
160.029
161.632
162.664
163.169
125.238
137.671
145.337
150.734
154.749
157.776
160.029
161.632
162.664
163.169
125.238
137.671
145.337
150.735
154.749
157.776
160.029
161.632
162.664
163.169
125.238
137.671
145.337
150.735
154.749
157.776
160.029
161.632
162.664
163.169
125.238
137.671
145.337
150.735
154.749
157.776
160.029
161.632
162.664
163.169
106.674
117.83
125.749
131.523
135.829
139.059
141.449
143.142
144.228
144.759
106.674
117.83
125.749
131.523
135.829
139.059
141.449
143.142
144.228
144.759
106.674
117.829
125.749
131.523
135.828
139.059
141.449
143.142
144.228
144.759
106.674
117.829
125.749
131.523
135.828
139.059
141.449
143.142
144.228
144.759
106.673
117.829
125.749
131.523
135.828
139.059
141.449
143.142
144.228
144.759
106.673
117.829
125.749
131.523
135.828
139.059
141.449
143.142
144.228
144.759
106.674
117.829
125.749
131.523
135.828
139.059
141.449
143.142
144.228
144.759
106.674
117.829
125.749
131.523
135.828
139.059
141.449
143.142
144.228
144.759
106.674
117.829
125.749
131.523
135.829
139.059
141.449
143.142
144.228
144.759
106.674
117.83
125.749
131.523
135.829
139.059
141.449
143.142
144.228
144.759
93.1065
102.097
109.192
114.677
118.89
122.098
124.489
126.188
127.28
127.814
93.1063
102.097
109.192
114.677
118.89
122.098
124.488
126.188
127.28
127.814
93.1062
102.096
109.192
114.677
118.89
122.098
124.488
126.188
127.28
127.814
93.1062
102.096
109.191
114.677
118.89
122.098
124.488
126.188
127.28
127.814
93.1061
102.096
109.191
114.677
118.89
122.098
124.488
126.188
127.279
127.814
93.1061
102.096
109.191
114.677
118.89
122.098
124.488
126.188
127.279
127.814
93.1062
102.096
109.191
114.677
118.89
122.098
124.488
126.188
127.28
127.814
93.1062
102.096
109.192
114.677
118.89
122.098
124.488
126.188
127.28
127.814
93.1063
102.097
109.192
114.677
118.89
122.098
124.488
126.188
127.28
127.814
93.1064
102.097
109.192
114.677
118.89
122.098
124.489
126.188
127.28
127.814
82.0067
89.1356
95.136
100.007
103.874
106.881
109.152
110.781
111.833
112.348
82.0065
89.1354
95.1359
100.007
103.874
106.881
109.152
110.781
111.832
112.348
82.0065
89.1353
95.1358
100.006
103.873
106.881
109.152
110.781
111.832
112.348
82.0064
89.1353
95.1357
100.006
103.873
106.881
109.152
110.781
111.832
112.348
82.0064
89.1352
95.1357
100.006
103.873
106.881
109.152
110.781
111.832
112.348
82.0064
89.1352
95.1357
100.006
103.873
106.881
109.152
110.781
111.832
112.348
82.0064
89.1353
95.1357
100.006
103.873
106.881
109.152
110.781
111.832
112.348
82.0064
89.1353
95.1358
100.006
103.873
106.881
109.152
110.781
111.832
112.348
82.0065
89.1354
95.1359
100.007
103.874
106.881
109.152
110.781
111.832
112.348
82.0067
89.1356
95.136
100.007
103.874
106.881
109.152
110.781
111.833
112.349
72.5506
78.1773
83.0999
87.2437
90.6317
93.3252
95.3918
96.8899
97.8642
98.3441
72.5505
78.1771
83.0998
87.2436
90.6315
93.3251
95.3917
96.8898
97.8641
98.344
72.5504
78.177
83.0997
87.2435
90.6314
93.325
95.3916
96.8897
97.864
98.3439
72.5503
78.177
83.0996
87.2434
90.6314
93.3249
95.3915
96.8897
97.8639
98.3438
72.5503
78.1769
83.0996
87.2434
90.6313
93.3249
95.3915
96.8896
97.8639
98.3438
72.5503
78.1769
83.0996
87.2434
90.6313
93.3249
95.3915
96.8896
97.8639
98.3438
72.5503
78.177
83.0996
87.2434
90.6314
93.325
95.3915
96.8897
97.8639
98.3439
72.5504
78.177
83.0997
87.2435
90.6314
93.325
95.3916
96.8897
97.864
98.3439
72.5505
78.1771
83.0998
87.2436
90.6315
93.3251
95.3917
96.8899
97.8641
98.344
72.5506
78.1773
83.0999
87.2437
90.6317
93.3253
95.3919
96.89
97.8643
98.3442
64.4027
68.7886
72.7238
76.1312
78.9901
81.3122
83.1235
84.4525
85.3239
85.7552
64.4026
68.7885
72.7236
76.1311
78.99
81.312
83.1233
84.4524
85.3238
85.7551
64.4025
68.7884
72.7235
76.131
78.9899
81.312
83.1233
84.4523
85.3237
85.755
64.4024
68.7883
72.7235
76.131
78.9898
81.3119
83.1232
84.4522
85.3237
85.7549
64.4024
68.7883
72.7234
76.1309
78.9898
81.3119
83.1232
84.4522
85.3236
85.7549
64.4024
68.7883
72.7235
76.1309
78.9898
81.3119
83.1232
84.4522
85.3236
85.7549
64.4024
68.7884
72.7235
76.131
78.9898
81.3119
83.1232
84.4523
85.3237
85.755
64.4025
68.7884
72.7236
76.131
78.9899
81.312
83.1233
84.4523
85.3238
85.755
64.4026
68.7885
72.7236
76.1311
78.99
81.3121
83.1234
84.4525
85.3239
85.7552
64.4027
68.7886
72.7238
76.1313
78.9901
81.3122
83.1235
84.4526
85.324
85.7553
57.3922
60.7026
63.7415
66.4462
68.775
70.7088
72.2437
73.3848
74.1396
74.5152
57.3921
60.7025
63.7414
66.446
68.7749
70.7086
72.2436
73.3846
74.1395
74.5151
57.392
60.7024
63.7413
66.446
68.7748
70.7086
72.2435
73.3846
74.1394
74.515
57.3919
60.7024
63.7413
66.4459
68.7748
70.7085
72.2435
73.3845
74.1394
74.515
57.3919
60.7023
63.7412
66.4459
68.7747
70.7085
72.2434
73.3845
74.1394
74.5149
57.3919
60.7023
63.7412
66.4459
68.7747
70.7085
72.2434
73.3845
74.1394
74.5149
57.3919
60.7024
63.7413
66.4459
68.7748
70.7085
72.2435
73.3845
74.1394
74.515
57.392
60.7024
63.7413
66.446
68.7748
70.7086
72.2435
73.3846
74.1395
74.5151
57.3921
60.7025
63.7414
66.4461
68.7749
70.7087
72.2436
73.3847
74.1396
74.5152
57.3922
60.7027
63.7416
66.4462
68.7751
70.7088
72.2438
73.3848
74.1397
74.5153
51.405
53.722
55.9399
57.9943
59.8222
61.3796
62.6401
63.5907
64.2257
64.5434
51.4049
53.7219
55.9398