/*--------------------------------*- C++ -*----------------------------------*\
  =========                 |
  \\      /  F ield         | OpenFOAM: The Open Source CFD Toolbox
   \\    /   O peration     | Website:  https://openfoam.org
    \\  /    A nd           | Version:  6
     \\/     M anipulation  |
\*---------------------------------------------------------------------------*/
FoamFile
{
    version     2.0;
    format      ascii;
    class       surfaceScalarField;
    location    "0.074";
    object      phi;
}
// * * * * * * * * * * * * * * * * * * * * * * * * * * * * * * * * * * * * * //

dimensions      [0 3 -1 0 0 0 0];

internalField   nonuniform List<scalar> 
141120
(
2.16421e-11
8.48606e-11
1.13989e-06
1.3885e-10
1.25249e-10
2.52206e-06
3.59089e-10
1.14288e-10
3.49712e-06
6.58251e-10
9.05172e-11
4.23189e-06
1.00304e-09
6.44597e-11
4.79855e-06
1.35536e-09
4.19249e-11
5.23517e-06
1.67762e-09
2.45152e-11
5.56459e-06
1.93649e-09
1.17346e-11
5.80133e-06
2.10503e-09
2.61283e-12
5.9547e-06
2.16499e-09
-4.43858e-12
6.03025e-06
2.10859e-09
-1.12573e-11
6.03053e-06
1.93969e-09
-1.96828e-11
5.95542e-06
1.67433e-09
-3.15026e-11
5.80212e-06
1.34018e-09
-4.81335e-11
5.56492e-06
9.74374e-10
-7.01252e-11
5.23447e-06
6.20228e-10
-9.71207e-11
4.79636e-06
3.21104e-10
-1.26017e-10
4.22804e-06
1.1188e-10
-1.48764e-10
3.49192e-06
1.14148e-11
-1.51811e-10
2.51658e-06
-9.50982e-11
1.13639e-06
1.29042e-10
1.91681e-10
2.52234e-06
5.3035e-10
3.15298e-10
6.1788e-06
1.18136e-09
3.10183e-10
8.9378e-06
2.01922e-09
2.57834e-10
1.10706e-05
2.95839e-09
1.92411e-10
1.27332e-05
3.90463e-09
1.30963e-10
1.40208e-05
4.76484e-09
8.0101e-11
1.49949e-05
5.45492e-09
4.06342e-11
1.56961e-05
5.90667e-09
1.04362e-11
1.61509e-05
6.07344e-09
-1.45055e-11
1.63751e-05
5.93466e-09
-3.91103e-11
1.63761e-05
5.49905e-09
-6.84649e-11
1.61537e-05
4.80586e-09
-1.07213e-10
1.56998e-05
3.92334e-09
-1.58626e-10
1.49981e-05
2.94378e-09
-2.23272e-10
1.40218e-05
1.97404e-09
-2.97519e-10
1.27308e-05
1.12233e-09
-3.70241e-10
1.10643e-05
4.8124e-10
-4.18072e-10
8.92833e-06
1.0721e-10
-3.99363e-10
6.16861e-06
-2.27417e-10
2.51626e-06
2.40869e-10
2.72736e-10
3.49809e-06
9.23161e-10
4.77098e-10
8.93902e-06
1.97525e-09
4.92473e-10
1.32116e-05
3.29154e-09
4.24563e-10
1.65875e-05
4.74338e-09
3.27189e-10
1.92514e-05
6.1926e-09
2.29437e-10
2.13291e-05
7.50346e-09
1.44454e-10
2.29077e-05
8.55346e-09
7.56051e-11
2.4047e-05
9.24291e-09
2.05052e-11
2.4787e-05
9.50314e-09
-2.67832e-11
2.51522e-05
9.30319e-09
-7.39818e-11
2.51541e-05
8.65457e-09
-1.29177e-10
2.47922e-05
7.61308e-09
-1.99473e-10
2.40541e-05
6.27677e-09
-2.89263e-10
2.29145e-05
4.77886e-09
-3.9792e-10
2.13332e-05
3.27495e-09
-5.16932e-10
1.92508e-05
1.92492e-09
-6.25368e-10
1.65814e-05
8.70964e-10
-6.83746e-10
1.32007e-05
2.14718e-10
-6.2642e-10
8.92673e-06
-3.37986e-10
3.49075e-06
3.39471e-10
3.14146e-10
4.23384e-06
1.26907e-09
5.74488e-10
1.10737e-05
2.67174e-09
6.13863e-10
1.65897e-05
4.40061e-09
5.44038e-10
2.10252e-05
6.28849e-09
4.29569e-10
2.45652e-05
8.16064e-09
3.07986e-10
2.73467e-05
9.84747e-09
1.97992e-10
2.94701e-05
1.11966e-08
1.05746e-10
3.10073e-05
1.20841e-08
2.93898e-11
3.20076e-05
1.24241e-08
-3.79327e-11
3.25019e-05
1.21773e-08
-1.05674e-10
3.25046e-05
1.13568e-08
-1.83826e-10
3.20151e-05
1.00303e-08
-2.80869e-10
3.10176e-05
8.31804e-09
-4.01331e-10
2.94805e-05
6.38485e-09
-5.42716e-10
2.7354e-05
4.42509e-09
-6.91732e-10
2.45668e-05
2.6419e-09
-8.19255e-10
2.10198e-05
1.22241e-09
-8.74275e-10
1.65782e-05
3.12772e-10
-7.77199e-10
1.10601e-05
-4.03135e-10
4.22554e-06
4.1843e-10
3.17321e-10
4.80158e-06
1.55217e-09
5.99598e-10
1.27383e-05
3.24692e-09
6.57454e-10
1.92559e-05
5.31952e-09
5.95203e-10
2.45676e-05
7.56916e-09
4.78872e-10
2.88476e-05
9.79035e-09
3.49222e-10
3.22332e-05
1.1786e-08
2.28027e-10
3.48296e-05
1.33801e-08
1.23499e-10
3.6715e-05
1.44298e-08
3.46895e-11
3.79444e-05
1.48359e-08
-4.51998e-11
3.85526e-05
1.45525e-08
-1.26068e-10
3.8556e-05
1.35933e-08
-2.18452e-10
3.79538e-05
1.20349e-08
-3.31015e-10
3.67281e-05
1.00148e-08
-4.67678e-10
3.4843e-05
7.7224e-09
-6.24162e-10
3.22432e-05
5.38371e-09
-7.83932e-10
2.8851e-05
3.23835e-09
-9.13368e-10
2.45628e-05
1.51261e-09
-9.56715e-10
1.92438e-05
3.92121e-10
-8.31487e-10
1.27234e-05
-4.18851e-10
4.79229e-06
4.78321e-10
2.88665e-10
5.23919e-06
1.7721e-09
5.58841e-10
1.40277e-05
3.6995e-09
6.24715e-10
2.13356e-05
6.04775e-09
5.74815e-10
2.73509e-05
8.58798e-09
4.69153e-10
3.22349e-05
1.10893e-08
3.46596e-10
3.61199e-05
1.33322e-08
2.28966e-10
3.91115e-05
1.51222e-08
1.25231e-10
4.12899e-05
1.63013e-08
3.53026e-11
4.27129e-05
1.67603e-08
-4.68185e-11
4.34176e-05
1.64479e-08
-1.30316e-10
4.34215e-05
1.53782e-08
-2.25016e-10
4.27238e-05
1.36347e-08
-3.3877e-10
4.13051e-05
1.13679e-08
-4.74526e-10
3.91272e-05
8.78706e-09
-6.26949e-10
3.61319e-05
6.14378e-09
-7.78612e-10
3.22395e-05
3.70777e-09
-8.95875e-10
2.73462e-05
1.73797e-09
-9.25166e-10
2.13226e-05
4.52151e-10
-7.90564e-10
1.40113e-05
-3.89654e-10
5.22887e-06
5.2161e-10
2.3579e-10
5.56935e-06
1.93485e-09
4.64612e-10
1.50031e-05
4.03891e-09
5.26734e-10
2.29153e-05
6.59846e-09
4.90486e-10
2.94751e-05
9.36246e-09
4.04597e-10
3.48317e-05
1.20798e-08
3.01777e-10
3.91117e-05
1.45134e-08
2.01059e-10
4.24182e-05
1.64542e-08
1.10719e-10
4.48315e-05
1.77329e-08
3.12186e-11
4.64105e-05
1.82324e-08
-4.21831e-11
4.7193e-05
1.78973e-08
-1.17056e-10
4.71973e-05
1.67422e-08
-2.01532e-10
4.64224e-05
1.48555e-08
-3.01948e-10
4.48482e-05
1.23981e-08
-4.20256e-10
4.24354e-05
9.59464e-09
-5.51113e-10
3.91249e-05
6.71682e-09
-6.78735e-10
3.48368e-05
4.0583e-09
-7.73748e-10
2.947e-05
1.90367e-09
-7.90737e-10
2.2901e-05
4.95063e-10
-6.67403e-10
1.49851e-05
-3.23768e-10
5.55803e-06
5.51102e-10
1.65955e-10
5.80653e-06
2.0482e-09
3.30965e-10
1.57048e-05
4.27824e-09
3.78832e-10
2.40546e-05
6.98989e-09
3.5567e-10
3.10117e-05
9.91582e-09
2.95543e-10
3.67161e-05
1.27898e-08
2.21894e-10
4.12887e-05
1.53619e-08
1.48696e-10
4.48299e-05
1.74121e-08
8.22517e-11
4.74192e-05
1.87629e-08
2.3167e-11
4.91152e-05
1.92915e-08
-3.1797e-11
4.99563e-05
1.89395e-08
-8.7986e-11
4.99609e-05
1.77219e-08
-1.51156e-10
4.91278e-05
1.57308e-08
-2.25709e-10
4.74368e-05
1.31347e-08
-3.12763e-10
4.4848e-05
1.01696e-08
-4.08039e-10
4.13024e-05
7.12214e-09
-4.99636e-10
3.67212e-05
4.30383e-09
-5.65946e-10
3.1006e-05
2.01797e-09
-5.74233e-10
2.40391e-05
5.23843e-10
-4.80605e-10
1.56853e-05
-2.3064e-10
5.79433e-06
5.69285e-10
8.55133e-11
5.96002e-06
2.11933e-09
1.71737e-10
1.61592e-05
4.4299e-09
1.97676e-10
2.47936e-05
7.23956e-09
1.86484e-10
3.20103e-05
1.02703e-08
1.55625e-10
3.79431e-05
1.3246e-08
1.17295e-10
4.27087e-05
1.59081e-08
7.88663e-11
4.64055e-05
1.80294e-08
4.37357e-11
4.91118e-05
1.9427e-08
1.23039e-11
5.08859e-05
1.99742e-08
-1.70645e-11
5.1766e-05
1.9611e-08
-4.71256e-11
5.17707e-05
1.83525e-08
-8.08521e-11
5.08989e-05
1.62932e-08
-1.20489e-10
4.91299e-05
1.36067e-08
-1.66528e-10
4.64242e-05
1.05365e-08
-2.16599e-10
4.27228e-05
7.37937e-09
-2.64323e-10
3.79481e-05
4.45835e-09
-2.98281e-10
3.2004e-05
2.089e-09
-3.01378e-10
2.47772e-05
5.41304e-10
-2.51005e-10
1.61387e-05
-1.19701e-10
5.94717e-06
5.77924e-10
-4.68684e-16
6.03544e-06
2.15351e-09
-1.90484e-15
1.63827e-05
4.50325e-09
-2.30504e-15
2.51572e-05
7.36083e-09
-3.02989e-15
3.25021e-05
1.0443e-08
-3.8787e-15
3.8548e-05
1.34687e-08
-4.623e-15
4.34096e-05
1.6175e-08
-5.10624e-15
4.71838e-05
1.83312e-08
-5.2984e-15
4.99484e-05
1.97518e-08
-5.25921e-15
5.17614e-05
2.03082e-08
-5.09009e-15
5.26611e-05
1.99394e-08
-4.89942e-15
5.26659e-05
1.86606e-08
-4.76794e-15
5.17746e-05
1.65677e-08
-4.71937e-15
4.99667e-05
1.38366e-08
-4.70019e-15
4.72026e-05
1.07148e-08
-4.62095e-15
4.34237e-05
7.50384e-09
-4.428e-15
3.85529e-05
4.5327e-09
-4.05712e-15
3.24955e-05
2.12288e-09
-3.41568e-15
2.51402e-05
5.495e-10
-2.07991e-15
1.63615e-05
-1.15721e-15
6.02225e-06
5.77925e-10
-8.5514e-11
6.03544e-06
2.15351e-09
-1.7174e-10
1.63827e-05
4.50325e-09
-1.9768e-10
2.51572e-05
7.36083e-09
-1.8649e-10
3.25021e-05
1.0443e-08
-1.55633e-10
3.8548e-05
1.34687e-08
-1.17304e-10
4.34096e-05
1.6175e-08
-7.88766e-11
4.71838e-05
1.83312e-08
-4.37463e-11
4.99484e-05
1.97518e-08
-1.23145e-11
5.17614e-05
2.03082e-08
1.70543e-11
5.26611e-05
1.99394e-08
4.71158e-11
5.26659e-05
1.86606e-08
8.08425e-11
5.17746e-05
1.65677e-08
1.20479e-10
4.99667e-05
1.38366e-08
1.66519e-10
4.72026e-05
1.07148e-08
2.16589e-10
4.34237e-05
7.50384e-09
2.64314e-10
3.85529e-05
4.5327e-09
2.98272e-10
3.24955e-05
2.12288e-09
3.01371e-10
2.51402e-05
5.495e-10
2.51e-10
1.63615e-05
1.19698e-10
6.02225e-06
5.69285e-10
-1.65955e-10
5.96002e-06
2.11933e-09
-3.30966e-10
1.61592e-05
4.4299e-09
-3.78835e-10
2.47936e-05
7.23957e-09
-3.55675e-10
3.20103e-05
1.02703e-08
-2.95551e-10
3.79431e-05
1.3246e-08
-2.21904e-10
4.27087e-05
1.59081e-08
-1.48706e-10
4.64055e-05
1.80294e-08
-8.22624e-11
4.91118e-05
1.9427e-08
-2.31776e-11
5.08859e-05
1.99742e-08
3.17867e-11
5.1766e-05
1.9611e-08
8.79761e-11
5.17707e-05
1.83525e-08
1.51146e-10
5.08989e-05
1.62932e-08
2.25699e-10
4.91299e-05
1.36067e-08
3.12754e-10
4.64242e-05
1.05365e-08
4.08029e-10
4.27228e-05
7.37937e-09
4.99627e-10
3.79481e-05
4.45835e-09
5.65937e-10
3.2004e-05
2.089e-09
5.74224e-10
2.47772e-05
5.41304e-10
4.80598e-10
1.61387e-05
2.30637e-10
5.94717e-06
5.51102e-10
-2.35789e-10
5.80653e-06
2.0482e-09
-4.64611e-10
1.57048e-05
4.27824e-09
-5.26737e-10
2.40546e-05
6.9899e-09
-4.90492e-10
3.10117e-05
9.91583e-09
-4.04605e-10
3.67161e-05
1.27898e-08
-3.01786e-10
4.12887e-05
1.53619e-08
-2.01069e-10
4.48299e-05
1.74121e-08
-1.1073e-10
4.74192e-05
1.87629e-08
-3.12289e-11
4.91152e-05
1.92915e-08
4.2173e-11
4.99563e-05
1.89395e-08
1.17046e-10
4.99609e-05
1.77219e-08
2.01522e-10
4.91278e-05
1.57308e-08
3.01937e-10
4.74368e-05
1.31347e-08
4.20246e-10
4.4848e-05
1.01696e-08
5.51103e-10
4.13024e-05
7.12214e-09
6.78726e-10
3.67212e-05
4.30383e-09
7.73739e-10
3.1006e-05
2.01797e-09
7.90727e-10
2.40391e-05
5.23843e-10
6.67396e-10
1.56853e-05
3.23765e-10
5.79433e-06
5.2161e-10
-2.88665e-10
5.56935e-06
1.93485e-09
-5.58845e-10
1.50031e-05
4.03891e-09
-6.24723e-10
2.29153e-05
6.59847e-09
-5.74823e-10
2.94751e-05
9.36247e-09
-4.69162e-10
3.48317e-05
1.20798e-08
-3.46605e-10
3.91117e-05
1.45134e-08
-2.28975e-10
4.24182e-05
1.64542e-08
-1.2524e-10
4.48315e-05
1.77329e-08
-3.53124e-11
4.64105e-05
1.82324e-08
4.68087e-11
4.7193e-05
1.78973e-08
1.30306e-10
4.71973e-05
1.67422e-08
2.25005e-10
4.64224e-05
1.48555e-08
3.38759e-10
4.48482e-05
1.23981e-08
4.74515e-10
4.24354e-05
9.59465e-09
6.26938e-10
3.91249e-05
6.71682e-09
7.78603e-10
3.48368e-05
4.0583e-09
8.95867e-10
2.947e-05
1.90366e-09
9.2516e-10
2.2901e-05
4.95063e-10
7.9056e-10
1.49851e-05
3.89652e-10
5.55803e-06
4.78321e-10
-3.17326e-10
5.23919e-06
1.7721e-09
-5.99613e-10
1.40277e-05
3.6995e-09
-6.57469e-10
2.13356e-05
6.04775e-09
-5.95214e-10
2.73509e-05
8.58799e-09
-4.7888e-10
3.22349e-05
1.10893e-08
-3.49231e-10
3.61199e-05
1.33323e-08
-2.28036e-10
3.91115e-05
1.51222e-08
-1.23508e-10
4.12899e-05
1.63014e-08
-3.46985e-11
4.27129e-05
1.67604e-08
4.51905e-11
4.34176e-05
1.64479e-08
1.26058e-10
4.34215e-05
1.53783e-08
2.18441e-10
4.27238e-05
1.36347e-08
3.31004e-10
4.13051e-05
1.13679e-08
4.67666e-10
3.91272e-05
8.78707e-09
6.2415e-10
3.61319e-05
6.14378e-09
7.83922e-10
3.22395e-05
3.70777e-09
9.13364e-10
2.73462e-05
1.73797e-09
9.56717e-10
2.13226e-05
4.52151e-10
8.31493e-10
1.40113e-05
4.18852e-10
5.22887e-06
4.18431e-10
-3.14154e-10
4.80158e-06
1.55217e-09
-5.7451e-10
1.27383e-05
3.24692e-09
-6.1388e-10
1.92559e-05
5.31953e-09
-5.44049e-10
2.45676e-05
7.56917e-09
-4.29578e-10
2.88476e-05
9.79037e-09
-3.07995e-10
3.22332e-05
1.1786e-08
-1.98002e-10
3.48296e-05
1.33801e-08
-1.05755e-10
3.6715e-05
1.44298e-08
-2.93985e-11
3.79444e-05
1.48359e-08
3.79239e-11
3.85526e-05
1.45525e-08
1.05665e-10
3.8556e-05
1.35933e-08
1.83816e-10
3.79538e-05
1.20349e-08
2.80859e-10
3.67281e-05
1.00148e-08
4.01321e-10
3.4843e-05
7.7224e-09
5.42706e-10
3.22432e-05
5.38371e-09
6.91724e-10
2.8851e-05
3.23835e-09
8.19254e-10
2.45628e-05
1.51261e-09
8.7428e-10
1.92438e-05
3.92121e-10
7.77209e-10
1.27234e-05
4.03137e-10
4.79229e-06
3.3947e-10
-2.72742e-10
4.23384e-06
1.26907e-09
-4.77112e-10
1.10737e-05
2.67174e-09
-4.92481e-10
1.65897e-05
4.40061e-09
-4.2457e-10
2.10252e-05
6.2885e-09
-3.27197e-10
2.45652e-05
8.16066e-09
-2.29448e-10
2.73467e-05
9.84749e-09
-1.44464e-10
2.94701e-05
1.11966e-08
-7.56145e-11
3.10073e-05
1.20841e-08
-2.05137e-11
3.20076e-05
1.24241e-08
2.67751e-11
3.25019e-05
1.21774e-08
7.39737e-11
3.25046e-05
1.13568e-08
1.29169e-10
3.20151e-05
1.00303e-08
1.99466e-10
3.10176e-05
8.31805e-09
2.89258e-10
2.94805e-05
6.38485e-09
3.97916e-10
2.7354e-05
4.42508e-09
5.16927e-10
2.45668e-05
2.64189e-09
6.25362e-10
2.10198e-05
1.2224e-09
6.83742e-10
1.65782e-05
3.12772e-10
6.26418e-10
1.10601e-05
3.37986e-10
4.22554e-06
2.40872e-10
-1.91691e-10
3.49809e-06
9.23159e-10
-3.153e-10
8.93902e-06
1.97525e-09
-3.10178e-10
1.32116e-05
3.29153e-09
-2.57836e-10
1.65875e-05
4.74339e-09
-1.92421e-10
1.92514e-05
6.19261e-09
-1.30975e-10
2.13291e-05
7.50348e-09
-8.01131e-11
2.29077e-05
8.55348e-09
-4.06442e-11
2.4047e-05
9.24293e-09
-1.04444e-11
2.4787e-05
9.50316e-09
1.44985e-11
2.51522e-05
9.30321e-09
3.91041e-11
2.51541e-05
8.65459e-09
6.846e-11
2.47922e-05
7.6131e-09
1.07212e-10
2.40541e-05
6.27678e-09
1.5863e-10
2.29145e-05
4.77886e-09
2.23279e-10
2.13332e-05
3.27494e-09
2.97522e-10
1.92508e-05
1.92491e-09
3.70234e-10
1.65814e-05
8.70953e-10
4.18055e-10
1.32007e-05
2.14716e-10
3.99343e-10
8.92673e-06
2.27409e-10
3.49075e-06
1.29076e-10
-8.49291e-11
2.52234e-06
5.30353e-10
-1.25264e-10
6.1788e-06
1.18135e-09
-1.14281e-10
8.9378e-06
2.01922e-09
-9.05156e-11
1.10706e-05
2.95839e-09
-6.44652e-11
1.27332e-05
3.90465e-09
-4.19333e-11
1.40208e-05
4.76486e-09
-2.45227e-11
1.49949e-05
5.45494e-09
-1.17401e-11
1.56961e-05
5.90669e-09
-2.61671e-12
1.61509e-05
6.07346e-09
4.43568e-12
1.63751e-05
5.93468e-09
1.12552e-11
1.63761e-05
5.49907e-09
1.96822e-11
1.61537e-05
4.80588e-09
3.15051e-11
1.56998e-05
3.92336e-09
4.8141e-11
1.49981e-05
2.94378e-09
7.01363e-11
1.40218e-05
1.97402e-09
9.71287e-11
1.27308e-05
1.1223e-09
1.26015e-10
1.10643e-05
4.8122e-10
1.4875e-10
8.92833e-06
1.07204e-10
1.51788e-10
6.16861e-06
9.50858e-11
2.51626e-06
2.17192e-11
1.13989e-06
1.38854e-10
2.52206e-06
3.59081e-10
3.49712e-06
6.58245e-10
4.23189e-06
1.00304e-09
4.79855e-06
1.35536e-09
5.23517e-06
1.67763e-09
5.56459e-06
1.9365e-09
5.80133e-06
2.10503e-09
5.9547e-06
2.16499e-09
6.03025e-06
2.10859e-09
6.03053e-06
1.93969e-09
5.95542e-06
1.67434e-09
5.80212e-06
1.34018e-09
5.56492e-06
9.74372e-10
5.23447e-06
6.20217e-10
4.79636e-06
3.21088e-10
4.22804e-06
1.11867e-10
3.49192e-06
1.14114e-11
2.51658e-06
1.13639e-06
8.40186e-12
2.24164e-10
1.13966e-06
2.06519e-10
3.58369e-10
2.5215e-06
6.46473e-10
3.52807e-10
3.49633e-06
1.29138e-09
2.9993e-10
4.23095e-06
2.06714e-09
2.3292e-10
4.79754e-06
2.88117e-09
1.68278e-10
5.23419e-06
3.63797e-09
1.11855e-10
5.56372e-06
4.25037e-09
6.3961e-11
5.80065e-06
4.64731e-09
2.27225e-11
5.95428e-06
4.78074e-09
-1.51611e-11
6.03013e-06
4.63079e-09
-5.35547e-11
6.03074e-06
4.20929e-09
-9.63149e-11
5.95593e-06
3.561e-09
-1.46918e-10
5.80291e-06
2.76141e-09
-2.07698e-10
5.56593e-06
1.91004e-09
-2.78629e-10
5.2356e-06
1.1187e-09
-3.56058e-10
4.7975e-06
4.92835e-10
-4.28821e-10
4.22909e-06
1.06219e-10
-4.72928e-10
3.49278e-06
-2.68438e-11
-4.45899e-10
2.51716e-06
-2.53662e-10
1.13661e-06
2.16515e-10
5.41188e-10
2.52181e-06
1.0244e-09
9.45599e-10
6.17741e-06
2.44153e-09
9.88497e-10
8.93575e-06
4.35115e-09
8.76216e-10
1.10681e-05
6.55756e-09
7.05042e-10
1.27305e-05
8.82661e-09
5.24622e-10
1.40182e-05
1.09169e-08
3.56651e-10
1.49926e-05
1.26054e-08
2.06768e-10
1.56943e-05
1.37091e-08
7.19991e-11
1.61497e-05
1.41023e-08
-5.54667e-11
1.63747e-05
1.37309e-08
-1.85591e-10
1.63767e-05
1.26215e-08
-3.28477e-10
1.61551e-05
1.08846e-08
-4.92512e-10
1.57019e-05
8.70879e-09
-6.81864e-10
1.50007e-05
6.34384e-09
-8.92873e-10
1.40248e-05
4.07118e-09
-1.10913e-09
1.27338e-05
2.16128e-09
-1.29311e-09
1.10671e-05
8.20782e-10
-1.37442e-09
8.93057e-06
1.33673e-10
-1.23422e-09
6.17009e-06
-6.5639e-10
2.51679e-06
4.72244e-10
8.09656e-10
3.49735e-06
1.95187e-09
1.48764e-09
8.937e-06
4.35691e-09
1.61662e-09
1.32086e-05
7.47152e-09
1.47634e-09
1.65838e-05
1.09912e-08
1.21748e-09
1.92473e-05
1.45653e-08
9.24254e-10
2.13251e-05
1.78363e-08
6.37856e-10
2.29041e-05
2.04738e-08
3.72637e-10
2.40442e-05
2.22055e-08
1.27031e-10
2.47852e-05
2.28432e-08
-1.09679e-10
2.51516e-05
2.23032e-08
-3.52452e-10
2.51548e-05
2.06211e-08
-6.16557e-10
2.47942e-05
1.79554e-08
-9.1376e-10
2.40571e-05
1.45807e-08
-1.24762e-09
2.29184e-05
1.08629e-08
-1.60722e-09
2.13376e-05
7.21856e-09
-1.95883e-09
1.92553e-05
4.05693e-09
-2.23407e-09
1.65855e-05
1.71082e-09
-2.3147e-09
1.3204e-05
3.66282e-10
-2.01428e-09
8.92886e-06
-1.02995e-09
3.49149e-06
7.21052e-10
9.72002e-10
4.23296e-06
2.8389e-09
1.85235e-09
1.10712e-05
6.16555e-09
2.07042e-09
1.65859e-05
1.03823e-08
1.93367e-09
2.10205e-05
1.50825e-08
1.62461e-09
2.45601e-05
1.98143e-08
1.25214e-09
2.73416e-05
2.41233e-08
8.73837e-10
2.94655e-05
2.75917e-08
5.12954e-10
3.10036e-05
2.98752e-08
1.71062e-10
3.20053e-05
3.07344e-08
-1.63131e-10
3.25011e-05
3.00608e-08
-5.07046e-10
3.25055e-05
2.78947e-08
-8.78547e-10
3.20175e-05
2.44314e-08
-1.29029e-09
3.10214e-05
2.00125e-08
-1.7431e-09
2.94854e-05
1.50974e-08
-2.21766e-09
2.73595e-05
1.02152e-08
-2.664e-09
2.45724e-05
5.89689e-09
-2.98821e-09
2.10249e-05
2.59549e-09
-3.03714e-09
1.65822e-05
6.06582e-10
-2.58223e-09
1.10626e-05
-1.28136e-09
4.2264e-06
9.36382e-10
1.01632e-09
4.8006e-06
3.61561e-09
1.98996e-09
1.27355e-05
7.75459e-09
2.27175e-09
1.92515e-05
1.29389e-08
2.15858e-09
2.45622e-05
1.86686e-08
1.8399e-09
2.88416e-05
2.44036e-08
1.43476e-09
3.22272e-05
2.96073e-08
1.00981e-09
3.48243e-05
3.37898e-08
5.94581e-10
3.67108e-05
3.65478e-08
1.94071e-10
3.79417e-05
3.76e-08
-2.01719e-10
3.85516e-05
3.6817e-08
-6.10063e-10
3.85569e-05
3.42422e-08
-1.04872e-09
3.79566e-05
3.00994e-08
-1.52909e-09
3.67325e-05
2.47839e-08
-2.04849e-09
3.48486e-05
1.88323e-08
-2.5808e-09
3.22495e-05
1.28689e-08
-3.06542e-09
2.88574e-05
7.53106e-09
-3.39432e-09
2.45685e-05
3.38142e-09
-3.39902e-09
1.92483e-05
8.18634e-10
-2.83903e-09
1.27262e-05
-1.37688e-09
4.7932e-06
1.11109e-09
9.51152e-10
5.23814e-06
4.25605e-09
1.90018e-09
1.40247e-05
9.07557e-09
2.20387e-09
2.13308e-05
1.50729e-08
2.12171e-09
2.7345e-05
2.16677e-08
1.82852e-09
3.22283e-05
2.82437e-08
1.43872e-09
3.61134e-05
3.41956e-08
1.01908e-09
3.91055e-05
3.89739e-08
6.01183e-10
4.12851e-05
4.21273e-08
1.92402e-10
4.27098e-05
4.33405e-08
-2.14967e-10
4.34164e-05
4.24672e-08
-6.36057e-10
4.34224e-05
3.95526e-08
-1.08644e-09
4.27268e-05
3.48434e-08
-1.57505e-09
4.13099e-05
2.87786e-08
-2.09631e-09
3.91333e-05
2.19582e-08
-2.62103e-09
3.61388e-05
1.50863e-08
-3.08608e-09
3.22463e-05
8.89146e-09
-3.38332e-09
2.73524e-05
4.03054e-09
-3.34962e-09
2.13274e-05
9.90871e-10
-2.76029e-09
1.40142e-05
-1.31569e-09
5.2298e-06
1.24524e-09
7.94518e-10
5.56826e-06
4.75584e-09
1.61057e-09
1.49999e-05
1.01158e-08
1.88961e-09
2.29102e-05
1.67628e-08
1.83679e-09
2.94687e-05
2.40502e-08
1.59594e-09
3.48247e-05
3.12999e-08
1.26406e-09
3.91046e-05
3.78507e-08
8.99558e-10
4.24118e-05
4.31053e-08
5.31271e-10
4.48264e-05
4.65741e-08
1.67209e-10
4.6407e-05
4.79151e-08
-1.97862e-10
4.71916e-05
4.69685e-08
-5.75749e-10
4.71982e-05
4.37812e-08
-9.78598e-10
4.64255e-05
3.86178e-08
-1.41255e-09
4.48532e-05
3.19523e-08
-1.87079e-09
4.24418e-05
2.44356e-08
-2.32573e-09
3.91321e-05
1.68369e-08
-2.72052e-09
3.48441e-05
9.95854e-09
-2.96049e-09
2.94765e-05
4.53436e-09
-2.90635e-09
2.2906e-05
1.12195e-09
-2.37139e-09
1.49881e-05
-1.11603e-09
5.55895e-06
1.34163e-09
5.6834e-10
5.80542e-06
5.12019e-09
1.16355e-09
1.57014e-05
1.08804e-08
1.37589e-09
2.40493e-05
1.80114e-08
1.3463e-09
3.10051e-05
2.58168e-08
1.17635e-09
3.67087e-05
3.3571e-08
9.35986e-10
4.12812e-05
4.05702e-08
6.68208e-10
4.48231e-05
4.6181e-08
3.94886e-10
4.74137e-05
4.98852e-08
1.22711e-10
4.91116e-05
5.13208e-08
-1.51396e-10
4.99548e-05
5.0318e-08
-4.35387e-10
4.99617e-05
4.6925e-08
-7.37441e-10
4.9131e-05
4.14201e-08
-1.0612e-09
4.74419e-05
3.43038e-08
-1.40062e-09
4.48547e-05
2.62657e-08
-1.73431e-09
4.13099e-05
1.81242e-08
-2.0195e-09
3.67287e-05
1.07379e-08
-2.18635e-09
3.10126e-05
4.89849e-09
-2.1339e-09
2.40442e-05
1.21489e-09
-1.72932e-09
1.56883e-05
-8.06798e-10
5.79523e-06
1.40363e-09
2.95746e-10
5.95889e-06
5.35711e-09
6.08966e-10
1.61558e-05
1.13809e-08
7.23386e-10
2.47882e-05
1.88321e-08
7.1057e-10
3.20035e-05
2.69813e-08
6.22916e-10
3.79355e-05
3.50707e-08
4.96959e-10
4.27011e-05
4.23681e-08
3.55439e-10
4.63985e-05
4.82157e-08
2.10114e-10
4.91061e-05
5.2076e-08
6.47716e-11
5.08821e-05
5.35738e-08
-8.19717e-11
5.17645e-05
5.25327e-08
-2.34088e-10
5.17716e-05
4.9002e-08
-3.95657e-10
5.09021e-05
4.32691e-08
-5.68328e-10
4.91352e-05
3.58523e-08
-7.48577e-10
4.64309e-05
2.74675e-08
-9.24741e-10
4.27304e-05
1.89661e-08
-1.07392e-09
3.79557e-05
1.12448e-08
-1.15913e-09
3.20107e-05
5.13322e-09
-1.12746e-09
2.47823e-05
1.27386e-09
-9.10075e-10
1.61417e-05
-4.22434e-10
5.94806e-06
1.4339e-09
-2.00339e-15
6.03431e-06
5.47361e-09
-6.53754e-15
1.63792e-05
1.16279e-08
-9.28997e-15
2.51518e-05
1.92384e-08
-1.1745e-14
3.24952e-05
2.75588e-08
-1.35355e-14
3.85403e-05
3.58154e-08
-1.43627e-14
4.34018e-05
4.32616e-08
-1.40929e-14
4.71767e-05
4.92273e-08
-1.27901e-14
4.99426e-05
5.31654e-08
-1.06679e-14
5.17576e-05
5.4694e-08
-8.02878e-15
5.26595e-05
5.36335e-08
-5.21049e-15
5.26667e-05
5.00337e-08
-2.53386e-15
5.17778e-05
4.41866e-08
-2.51911e-16
4.9972e-05
3.66197e-08
1.48835e-15
4.72094e-05
2.80619e-08
2.61845e-15
4.34313e-05
1.93814e-08
3.11272e-15
3.85605e-05
1.14938e-08
2.94186e-15
3.25022e-05
5.24792e-09
2.20562e-15
2.51453e-05
1.30238e-09
1.153e-15
1.63645e-05
5.36165e-16
6.02313e-06
1.4339e-09
-2.9575e-10
6.03431e-06
5.47361e-09
-6.08978e-10
1.63792e-05
1.16279e-08
-7.23404e-10
2.51518e-05
1.92384e-08
-7.10592e-10
3.24952e-05
2.75588e-08
-6.22942e-10
3.85403e-05
3.58154e-08
-4.96988e-10
4.34018e-05
4.32616e-08
-3.55466e-10
4.71767e-05
4.92273e-08
-2.10139e-10
4.99426e-05
5.31654e-08
-6.47927e-11
5.17576e-05
5.4694e-08
8.19558e-11
5.26595e-05
5.36335e-08
2.34078e-10
5.26667e-05
5.00337e-08
3.95652e-10
5.17778e-05
4.41866e-08
5.68327e-10
4.9972e-05
3.66197e-08
7.4858e-10
4.72094e-05
2.80619e-08
9.24746e-10
4.34313e-05
1.93814e-08
1.07392e-09
3.85605e-05
1.14938e-08
1.15914e-09
3.25022e-05
5.24792e-09
1.12746e-09
2.51453e-05
1.30238e-09
9.10077e-10
1.63645e-05
4.22435e-10
6.02313e-06
1.40363e-09
-5.68343e-10
5.95889e-06
5.35712e-09
-1.16356e-09
1.61558e-05
1.13809e-08
-1.3759e-09
2.47882e-05
1.88322e-08
-1.34632e-09
3.20035e-05
2.69813e-08
-1.17637e-09
3.79355e-05
3.50707e-08
-9.36013e-10
4.27011e-05
4.23681e-08
-6.68235e-10
4.63985e-05
4.82157e-08
-3.9491e-10
4.91061e-05
5.2076e-08
-1.22731e-10
5.08821e-05
5.35738e-08
1.5138e-10
5.17645e-05
5.25328e-08
4.35377e-10
5.17716e-05
4.9002e-08
7.37435e-10
5.09021e-05
4.32691e-08
1.0612e-09
4.91352e-05
3.58523e-08
1.40063e-09
4.64309e-05
2.74675e-08
1.73431e-09
4.27304e-05
1.89661e-08
2.0195e-09
3.79557e-05
1.12448e-08
2.18635e-09
3.20107e-05
5.13322e-09
2.1339e-09
2.47823e-05
1.27386e-09
1.72932e-09
1.61417e-05
8.06799e-10
5.94806e-06
1.34163e-09
-7.9452e-10
5.80542e-06
5.12019e-09
-1.61058e-09
1.57014e-05
1.08805e-08
-1.88962e-09
2.40493e-05
1.80115e-08
-1.83681e-09
3.10051e-05
2.58169e-08
-1.59596e-09
3.67087e-05
3.3571e-08
-1.26409e-09
4.12812e-05
4.05702e-08
-8.99582e-10
4.48231e-05
4.61811e-08
-5.31293e-10
4.74137e-05
4.98852e-08
-1.67228e-10
4.91116e-05
5.13208e-08
1.97848e-10
4.99548e-05
5.0318e-08
5.75739e-10
4.99617e-05
4.6925e-08
9.78592e-10
4.9131e-05
4.14202e-08
1.41255e-09
4.74419e-05
3.43038e-08
1.87079e-09
4.48547e-05
2.62658e-08
2.32573e-09
4.13099e-05
1.81242e-08
2.72052e-09
3.67287e-05
1.07379e-08
2.96049e-09
3.10126e-05
4.89849e-09
2.90635e-09
2.40442e-05
1.21489e-09
2.37139e-09
1.56883e-05
1.11603e-09
5.79523e-06
1.24524e-09
-9.51154e-10
5.56826e-06
4.75584e-09
-1.90019e-09
1.49999e-05
1.01158e-08
-2.20388e-09
2.29102e-05
1.67628e-08
-2.12173e-09
2.94687e-05
2.40503e-08
-1.82854e-09
3.48247e-05
3.13e-08
-1.43874e-09
3.91046e-05
3.78508e-08
-1.01911e-09
4.24118e-05
4.31053e-08
-6.01202e-10
4.48264e-05
4.65741e-08
-1.92418e-10
4.6407e-05
4.79151e-08
2.14954e-10
4.71916e-05
4.69685e-08
6.36047e-10
4.71982e-05
4.37812e-08
1.08643e-09
4.64255e-05
3.86178e-08
1.57505e-09
4.48532e-05
3.19523e-08
2.09631e-09
4.24418e-05
2.44357e-08
2.62103e-09
3.91321e-05
1.68369e-08
3.08608e-09
3.48441e-05
9.95854e-09
3.38332e-09
2.94765e-05
4.53436e-09
3.34962e-09
2.2906e-05
1.12195e-09
2.7603e-09
1.49881e-05
1.3157e-09
5.55895e-06
1.11109e-09
-1.01632e-09
5.23814e-06
4.25606e-09
-1.98998e-09
1.40247e-05
9.07558e-09
-2.27177e-09
2.13308e-05
1.50729e-08
-2.1586e-09
2.7345e-05
2.16677e-08
-1.83992e-09
3.22283e-05
2.82437e-08
-1.43478e-09
3.61134e-05
3.41956e-08
-1.00982e-09
3.91055e-05
3.89739e-08
-5.94597e-10
4.12851e-05
4.21273e-08
-1.94085e-10
4.27098e-05
4.33406e-08
2.01708e-10
4.34164e-05
4.24673e-08
6.10054e-10
4.34224e-05
3.95527e-08
1.04871e-09
4.27268e-05
3.48434e-08
1.52909e-09
4.13099e-05
2.87786e-08
2.04848e-09
3.91333e-05
2.19582e-08
2.5808e-09
3.61388e-05
1.50863e-08
3.06542e-09
3.22463e-05
8.89146e-09
3.39433e-09
2.73524e-05
4.03054e-09
3.39903e-09
2.13274e-05
9.90871e-10
2.83904e-09
1.40142e-05
1.37688e-09
5.2298e-06
9.36383e-10
-9.72011e-10
4.8006e-06
3.61561e-09
-1.85237e-09
1.27355e-05
7.75459e-09
-2.07044e-09
1.92515e-05
1.29389e-08
-1.93369e-09
2.45622e-05
1.86687e-08
-1.62463e-09
2.88416e-05
2.44036e-08
-1.25216e-09
3.22272e-05
2.96073e-08
-8.73852e-10
3.48243e-05
3.37898e-08
-5.12967e-10
3.67108e-05
3.65478e-08
-1.71074e-10
3.79417e-05
3.76e-08
1.63121e-10
3.85516e-05
3.68171e-08
5.07038e-10
3.85569e-05
3.42422e-08
8.78539e-10
3.79566e-05
3.00994e-08
1.29028e-09
3.67325e-05
2.47839e-08
1.7431e-09
3.48486e-05
1.88323e-08
2.21765e-09
3.22495e-05
1.28689e-08
2.664e-09
2.88574e-05
7.53106e-09
2.98822e-09
2.45685e-05
3.38142e-09
3.03715e-09
1.92483e-05
8.18635e-10
2.58224e-09
1.27262e-05
1.28136e-09
4.7932e-06
7.21052e-10
-8.09662e-10
4.23296e-06
2.8389e-09
-1.48766e-09
1.10712e-05
6.16555e-09
-1.61663e-09
1.65859e-05
1.03823e-08
-1.47635e-09
2.10205e-05
1.50825e-08
-1.21749e-09
2.45601e-05
1.98144e-08
-9.24268e-10
2.73416e-05
2.41233e-08
-6.3787e-10
2.94655e-05
2.75917e-08
-3.72649e-10
3.10036e-05
2.98753e-08
-1.27042e-10
3.20053e-05
3.07345e-08
1.09671e-10
3.25011e-05
3.00609e-08
3.52444e-10
3.25055e-05
2.78947e-08
6.16551e-10
3.20175e-05
2.44315e-08
9.13756e-10
3.10214e-05
2.00125e-08
1.24762e-09
2.94854e-05
1.50974e-08
1.60722e-09
2.73595e-05
1.02152e-08
1.95883e-09
2.45724e-05
5.89689e-09
2.23407e-09
2.10249e-05
2.59549e-09
2.3147e-09
1.65822e-05
6.06581e-10
2.01428e-09
1.10626e-05
1.02995e-09
4.2264e-06
4.72245e-10
-5.41189e-10
3.49735e-06
1.95187e-09
-9.45593e-10
8.937e-06
4.35691e-09
-9.88491e-10
1.32086e-05
7.47152e-09
-8.76218e-10
1.65838e-05
1.09912e-08
-7.05053e-10
1.92473e-05
1.45654e-08
-5.24636e-10
2.13251e-05
1.78363e-08
-3.56664e-10
2.29041e-05
2.04738e-08
-2.06779e-10
2.40442e-05
2.22055e-08
-7.20079e-11
2.47852e-05
2.28432e-08
5.54594e-11
2.51516e-05
2.23033e-08
1.85585e-10
2.51548e-05
2.06211e-08
3.28472e-10
2.47942e-05
1.79554e-08
4.92511e-10
2.40571e-05
1.45807e-08
6.81869e-10
2.29184e-05
1.08629e-08
8.92881e-10
2.13376e-05
7.21855e-09
1.10914e-09
1.92553e-05
4.05692e-09
1.29311e-09
1.65855e-05
1.71081e-09
1.3744e-09
1.3204e-05
3.66278e-10
1.2342e-09
8.92886e-06
6.56383e-10
3.49149e-06
2.16527e-10
-2.24172e-10
2.52181e-06
1.02439e-09
-3.5836e-10
6.17741e-06
2.44152e-09
-3.52797e-10
8.93575e-06
4.35114e-09
-2.99928e-10
1.10681e-05
6.55757e-09
-2.32927e-10
1.27305e-05
8.82663e-09
-1.68288e-10
1.40182e-05
1.09169e-08
-1.11863e-10
1.49926e-05
1.26055e-08
-6.39679e-11
1.56943e-05
1.37091e-08
-2.27278e-11
1.61497e-05
1.41023e-08
1.51565e-11
1.63747e-05
1.37309e-08
5.35507e-11
1.63767e-05
1.26215e-08
9.63122e-11
1.61551e-05
1.08847e-08
1.46918e-10
1.57019e-05
8.70881e-09
2.07704e-10
1.50007e-05
6.34384e-09
2.78638e-10
1.40248e-05
4.07116e-09
3.56063e-10
1.27338e-05
2.16126e-09
4.28815e-10
1.10671e-05
8.20759e-10
4.7291e-10
8.93057e-06
1.33668e-10
4.45871e-10
6.17009e-06
2.5365e-10
2.51679e-06
8.41942e-12
1.13966e-06
2.06516e-10
2.5215e-06
6.46465e-10
3.49633e-06
1.29138e-09
4.23095e-06
2.06714e-09
4.79754e-06
2.88117e-09
5.23419e-06
3.63798e-09
5.56372e-06
4.25037e-09
5.80065e-06
4.64732e-09
5.95428e-06
4.78075e-09
6.03013e-06
4.6308e-09
6.03074e-06
4.2093e-09
5.95593e-06
3.56101e-09
5.80291e-06
2.76142e-09
5.56593e-06
1.91003e-09
5.2356e-06
1.11869e-09
4.7975e-06
4.92819e-10
4.22909e-06
1.06206e-10
3.49278e-06
-2.68455e-11
2.51716e-06
1.13661e-06
2.90301e-12
3.77944e-10
1.13928e-06
3.09496e-10
6.11495e-10
2.52058e-06
1.01476e-09
6.08762e-10
3.49501e-06
2.06384e-09
5.22692e-10
4.22937e-06
3.33624e-09
4.1077e-10
4.79585e-06
4.67934e-09
3.00728e-10
5.23255e-06
5.93433e-09
2.02718e-10
5.56226e-06
6.955e-09
1.17705e-10
5.79951e-06
7.62139e-09
4.26784e-11
5.95357e-06
7.85126e-09
-2.7642e-11
6.02993e-06
7.60929e-09
-9.94426e-11
6.03108e-06
6.91341e-09
-1.78912e-10
5.95681e-06
5.83742e-09
-2.71537e-10
5.80426e-06
4.50786e-09
-3.80858e-10
5.56764e-06
3.09301e-09
-5.06442e-10
5.23753e-06
1.78266e-09
-6.41231e-10
4.79946e-06
7.55665e-10
-7.65279e-10
4.23089e-06
1.35774e-10
-8.36808e-10
3.49424e-06
-5.96442e-11
-7.8048e-10
2.51813e-06
-4.37824e-10
1.13699e-06
3.35308e-10
9.2154e-10
2.52093e-06
1.63457e-09
1.62411e-09
6.1751e-06
3.9462e-09
1.71244e-09
8.93233e-06
7.08678e-09
1.53156e-09
1.1064e-05
1.07369e-08
1.24493e-09
1.2726e-05
1.45087e-08
9.36774e-10
1.40138e-05
1.79992e-08
6.44403e-10
1.49887e-05
2.08332e-08
3.781e-10
1.56912e-05
2.27002e-08
1.33515e-10
1.61477e-05
2.33842e-08
-1.01678e-10
1.63741e-05
2.27886e-08
-3.43302e-10
1.63775e-05
2.09528e-08
-6.07351e-10
1.61573e-05
1.80588e-08
-9.06802e-10
1.57054e-05
1.4423e-08
-1.24737e-09
1.50052e-05
1.04682e-08
-1.62131e-09
1.40298e-05
6.67334e-09
-1.99859e-09
1.2739e-05
3.49916e-09