/*--------------------------------*- C++ -*----------------------------------*\
  =========                 |
  \\      /  F ield         | OpenFOAM: The Open Source CFD Toolbox
   \\    /   O peration     | Website:  https://openfoam.org
    \\  /    A nd           | Version:  6
     \\/     M anipulation  |
\*---------------------------------------------------------------------------*/
FoamFile
{
    version     2.0;
    format      ascii;
    class       volVectorField;
    location    "0.074";
    object      U;
}
// * * * * * * * * * * * * * * * * * * * * * * * * * * * * * * * * * * * * * //

dimensions      [0 1 -1 0 0 0 0];

internalField   nonuniform List<vector> 
48800
(
(-3.79384e-07 1.20293e-06 0.0455988)
(2.26726e-06 1.49388e-06 0.10089)
(9.10632e-06 1.17415e-06 0.139896)
(1.97725e-05 8.51559e-07 0.169289)
(3.29886e-05 5.48471e-07 0.191956)
(4.729e-05 3.18016e-07 0.20942)
(6.11184e-05 1.63728e-07 0.222595)
(7.30279e-05 6.259e-08 0.232062)
(8.17927e-05 2.88801e-09 0.238194)
(8.64889e-05 -3.3017e-08 0.241212)
(8.65819e-05 -6.46844e-08 0.241219)
(8.19844e-05 -1.10373e-07 0.23821)
(7.30939e-05 -1.90057e-07 0.232074)
(6.07977e-05 -3.21459e-07 0.222583)
(4.64159e-05 -5.14808e-07 0.209364)
(3.16016e-05 -7.87927e-07 0.191839)
(1.81607e-05 -1.12529e-06 0.169107)
(7.72514e-06 -1.4546e-06 0.139665)
(1.49106e-06 -1.71601e-06 0.100655)
(-5.17213e-07 -1.29186e-06 0.0454523)
(3.70573e-07 5.64125e-06 0.100901)
(1.06465e-05 8.8553e-06 0.247171)
(3.20236e-05 8.37848e-06 0.35754)
(6.2594e-05 6.74587e-06 0.442859)
(9.90231e-05 4.8902e-06 0.509363)
(0.000137667 3.23616e-06 0.560868)
(0.000174676 1.92282e-06 0.599829)
(0.000206435 9.42972e-07 0.62787)
(0.000229844 2.25352e-07 0.64605)
(0.000242552 -3.43912e-07 0.655008)
(0.000243177 -8.98304e-07 0.655039)
(0.000231457 -1.5745e-06 0.646132)
(0.000208353 -2.50101e-06 0.627966)
(0.000176047 -3.77659e-06 0.599887)
(0.000137812 -5.43783e-06 0.560832)
(9.77418e-05 -7.42467e-06 0.509191)
(6.03065e-05 -9.48439e-06 0.442536)
(2.9645e-05 -1.10257e-05 0.357103)
(9.10685e-06 -1.09114e-05 0.246724)
(7.11087e-08 -6.4881e-06 0.100643)
(1.1135e-06 9.54715e-06 0.139934)
(1.93934e-05 1.62791e-05 0.357589)
(5.47109e-05 1.64227e-05 0.528507)
(0.000103337 1.38952e-05 0.663553)
(0.000160032 1.05268e-05 0.77011)
(0.000219436 7.26506e-06 0.853219)
(0.000275934 4.50454e-06 0.916356)
(0.00032426 2.32036e-06 0.961916)
(0.000359897 6.14517e-07 0.991502)
(0.000379396 -8.19606e-07 1.0061)
(0.000380708 -2.24202e-06 1.00616)
(0.000363407 -3.92315e-06 0.991662)
(0.000328839 -6.10579e-06 0.962121)
(0.00028013 -8.95195e-06 0.916526)
(0.000221989 -1.24692e-05 0.853268)
(0.000160347 -1.64231e-05 0.76997)
(0.00010174 -2.01709e-05 0.663199)
(5.23418e-05 -2.24263e-05 0.527985)
(1.76045e-05 -2.09667e-05 0.35704)
(7.3597e-07 -1.1574e-05 0.13962)
(1.74317e-06 1.20736e-05 0.169366)
(2.71132e-05 2.16906e-05 0.442983)
(7.46997e-05 2.2824e-05 0.663639)
(0.000139011 1.99643e-05 0.841072)
(0.00021306 1.55794e-05 0.982677)
(0.000290002 1.10501e-05 1.09394)
(0.000362801 7.03202e-06 1.17887)
(0.000424905 3.72015e-06 1.24034)
(0.000470697 1.02468e-06 1.28034)
(0.000495883 -1.32039e-06 1.30009)
(0.00049789 -3.67063e-06 1.30017)
(0.000476149 -6.40005e-06 1.28057)
(0.000432268 -9.83192e-06 1.24065)
(0.000370066 -1.41534e-05 1.17915)
(0.000295343 -1.93038e-05 1.09409)
(0.000215456 -2.48364e-05 0.982596)
(0.000138618 -2.97218e-05 0.840725)
(7.27714e-05 -3.20881e-05 0.663074)
(2.53314e-05 -2.89146e-05 0.442368)
(1.32951e-06 -1.52378e-05 0.169009)
(2.19617e-06 1.29408e-05 0.192077)
(3.33613e-05 2.41457e-05 0.509572)
(9.1144e-05 2.6189e-05 0.770294)
(0.000168543 2.34887e-05 0.982776)
(0.000257027 1.87404e-05 1.15398)
(0.000348477 1.35622e-05 1.28941)
(0.000434691 8.79336e-06 1.39326)
(0.000508087 4.73363e-06 1.46866)
(0.000562187 1.32579e-06 1.51782)
(0.000592042 -1.71172e-06 1.54212)
(0.000594669 -4.77803e-06 1.54223)
(0.000569374 -8.29664e-06 1.51812)
(0.000517952 -1.26212e-05 1.46907)
(0.000444743 -1.79258e-05 1.39364)
(0.000356392 -2.40699e-05 1.28964)
(0.0002614 -3.04352e-05 1.15395)
(0.000169353 -3.57231e-05 0.982433)
(8.97189e-05 -3.77284e-05 0.76969)
(3.16499e-05 -3.31058e-05 0.508895)
(1.75647e-06 -1.6865e-05 0.191678)
(2.50763e-06 1.23725e-05 0.209582)
(3.81434e-05 2.37406e-05 0.561152)
(0.000103999 2.63378e-05 0.853488)
(0.000191871 2.40748e-05 1.09412)
(0.000291949 1.9533e-05 1.28948)
(0.000395052 1.43524e-05 1.44489)
(0.00049202 9.43553e-06 1.56454)
(0.000574448 5.14045e-06 1.65166)
(0.000635182 1.4487e-06 1.70856)
(0.000668763 -1.90118e-06 1.73672)
(0.000671893 -5.3008e-06 1.73685)
(0.000643773 -9.16827e-06 1.70891)
(0.000586339 -1.3842e-05 1.65214)
(0.000504327 -1.94604e-05 1.565)
(0.000405046 -2.58218e-05 1.44518)
(0.000297912 -3.22214e-05 1.28948)
(0.000193641 -3.72684e-05 1.09377)
(0.000102967 -3.87108e-05 0.852836)
(3.64776e-05 -3.33006e-05 0.56041)
(2.04304e-06 -1.65425e-05 0.209141)
(2.71188e-06 1.06773e-05 0.22279)
(4.16275e-05 2.0914e-05 0.600168)
(0.00011357 2.35911e-05 0.916679)
(0.000209439 2.18712e-05 1.17909)
(0.000318434 1.797e-05 1.39336)
(0.000430522 1.33554e-05 1.56456)
(0.000535784 8.87e-06 1.69681)
(0.000625172 4.87266e-06 1.79333)
(0.00069101 1.37492e-06 1.85646)
(0.000727452 -1.84102e-06 1.88774)
(0.000730957 -5.1174e-06 1.88788)
(0.000700649 -8.82128e-06 1.85685)
(0.000638568 -1.32416e-05 1.79386)
(0.000549754 -1.84751e-05 1.69733)
(0.000442031 -2.42967e-05 1.5649)
(0.000325531 -3.00179e-05 1.39338)
(0.000211866 -3.43391e-05 1.17871)
(0.000112776 -3.52286e-05 0.915973)
(3.99623e-05 -2.98651e-05 0.59936)
(2.22225e-06 -1.45632e-05 0.222307)
(2.83741e-06 8.1622e-06 0.232277)
(4.40196e-05 1.62226e-05 0.628237)
(0.000120273 1.85155e-05 0.962254)
(0.000221876 1.734e-05 1.24056)
(0.00033731 1.43763e-05 1.46874)
(0.000455911 1.07719e-05 1.65165)
(0.000567195 7.20577e-06 1.79329)
(0.000661635 3.98072e-06 1.89684)
(0.000731174 1.12222e-06 1.96466)
(0.000769683 -1.53067e-06 1.99827)
(0.000773447 -4.24082e-06 1.99842)
(0.000741533 -7.29106e-06 1.96507)
(0.000676058 -1.0899e-05 1.8974)
(0.000582287 -1.51238e-05 1.79383)
(0.000468422 -1.97628e-05 1.652)
(0.000345132 -2.42427e-05 1.46875)
(0.000224692 -2.75142e-05 1.24015)
(0.00011959 -2.7978e-05 0.961496)
(4.23227e-05 -2.34743e-05 0.627369)
(2.32486e-06 -1.12974e-05 0.23176)
(2.90803e-06 5.10232e-06 0.238417)
(4.55033e-05 1.02363e-05 0.646417)
(0.000124497 1.17716e-05 0.991818)
(0.000229783 1.10963e-05 1.28051)
(0.000349378 9.25351e-06 1.51783)
(0.000472203 6.96994e-06 1.70845)
(0.000587399 4.6839e-06 1.85631)
(0.000685122 2.59657e-06 1.96455)
(0.000757064 7.30969e-07 2.03549)
(0.000796911 -1.01088e-06 2.07066)
(0.000800833 -2.79343e-06 2.07082)
(0.000767863 -4.79401e-06 2.03591)
(0.000700169 -7.14682e-06 1.96513)
(0.000603164 -9.88214e-06 1.85688)
(0.000485302 -1.28602e-05 1.70881)
(0.000357607 -1.57027e-05 1.51782)
(0.000232797 -1.77311e-05 1.28007)
(0.000123847 -1.79274e-05 0.991017)
(4.37667e-05 -1.49421e-05 0.645504)
(2.37797e-06 -7.13082e-06 0.237874)
(2.93954e-06 1.73396e-06 0.241434)
(4.62108e-05 3.49462e-06 0.655354)
(0.000126533 4.03359e-06 1.00636)
(0.000233614 3.81433e-06 1.30018)
(0.000355248 3.18994e-06 1.54202)
(0.000480147 2.40887e-06 1.73649)
(0.000597267 1.62238e-06 1.88745)
(0.000696606 9.00832e-07 1.99801)
(0.000769729 2.53275e-07 2.07051)
(0.000810231 -3.53103e-07 2.10647)
(0.000814228 -9.74181e-07 2.10663)
(0.000780734 -1.67026e-06 2.07094)
(0.000711943 -2.4866e-06 1.9986)
(0.000613343 -3.43229e-06 1.88801)
(0.000493514 -4.45754e-06 1.73684)
(0.000363656 -5.43049e-06 1.54201)
(0.000236707 -6.11662e-06 1.29973)
(0.000125886 -6.16706e-06 1.00554)
(4.44482e-05 -5.12346e-06 0.654417)
(2.4e-06 -2.43502e-06 0.240877)
(2.93954e-06 -1.73399e-06 0.241434)
(4.62108e-05 -3.49476e-06 0.655354)
(0.000126533 -4.03377e-06 1.00636)
(0.000233614 -3.81457e-06 1.30018)
(0.000355248 -3.19025e-06 1.54202)
(0.000480147 -2.40924e-06 1.73649)
(0.000597267 -1.62279e-06 1.88745)
(0.000696606 -9.01258e-07 1.99801)
(0.000769729 -2.53697e-07 2.07051)
(0.000810231 3.52695e-07 2.10647)
(0.000814228 9.7379e-07 2.10663)
(0.000780734 1.66988e-06 2.07094)
(0.000711943 2.48623e-06 1.9986)
(0.000613343 3.43192e-06 1.88801)
(0.000493514 4.45718e-06 1.73684)
(0.000363656 5.43013e-06 1.54201)
(0.000236707 6.1163e-06 1.29973)
(0.000125886 6.16678e-06 1.00554)
(4.44481e-05 5.12329e-06 0.654417)
(2.4e-06 2.43493e-06 0.240877)
(2.90805e-06 -5.10234e-06 0.238417)
(4.55033e-05 -1.02364e-05 0.646417)
(0.000124497 -1.17717e-05 0.991818)
(0.000229783 -1.10965e-05 1.28051)
(0.000349378 -9.25382e-06 1.51783)
(0.000472203 -6.97031e-06 1.70845)
(0.000587399 -4.68431e-06 1.85631)
(0.000685123 -2.597e-06 1.96455)
(0.000757065 -7.31393e-07 2.03549)
(0.000796911 1.01047e-06 2.07066)
(0.000800834 2.79304e-06 2.07082)
(0.000767863 4.79362e-06 2.03591)
(0.000700169 7.14644e-06 1.96513)
(0.000603164 9.88176e-06 1.85688)
(0.000485303 1.28598e-05 1.70881)
(0.000357607 1.57024e-05 1.51782)
(0.000232797 1.77308e-05 1.28007)
(0.000123847 1.79271e-05 0.991017)
(4.37666e-05 1.49419e-05 0.645504)
(2.37798e-06 7.13071e-06 0.237874)
(2.83742e-06 -8.16217e-06 0.232277)
(4.40196e-05 -1.62226e-05 0.628237)
(0.000120273 -1.85156e-05 0.962254)
(0.000221876 -1.73402e-05 1.24056)
(0.000337311 -1.43766e-05 1.46874)
(0.000455911 -1.07723e-05 1.65165)
(0.000567196 -7.20618e-06 1.79329)
(0.000661636 -3.98114e-06 1.89684)
(0.000731175 -1.12264e-06 1.96466)
(0.000769684 1.53026e-06 1.99827)
(0.000773448 4.24043e-06 1.99842)
(0.000741534 7.29067e-06 1.96507)
(0.000676058 1.08986e-05 1.8974)
(0.000582287 1.51234e-05 1.79383)
(0.000468423 1.97624e-05 1.652)
(0.000345132 2.42423e-05 1.46875)
(0.000224692 2.75139e-05 1.24015)
(0.00011959 2.79776e-05 0.961496)
(4.23227e-05 2.3474e-05 0.627369)
(2.32487e-06 1.12973e-05 0.23176)
(2.7119e-06 -1.06773e-05 0.22279)
(4.16275e-05 -2.09141e-05 0.600169)
(0.00011357 -2.35912e-05 0.916679)
(0.00020944 -2.18715e-05 1.17909)
(0.000318434 -1.79703e-05 1.39337)
(0.000430522 -1.33557e-05 1.56456)
(0.000535785 -8.8704e-06 1.69681)
(0.000625172 -4.87306e-06 1.79333)
(0.00069101 -1.37532e-06 1.85646)
(0.000727452 1.84063e-06 1.88774)
(0.000730958 5.117e-06 1.88788)
(0.00070065 8.82087e-06 1.85685)
(0.000638568 1.32412e-05 1.79386)
(0.000549755 1.84746e-05 1.69733)
(0.000442031 2.42963e-05 1.5649)
(0.000325531 3.00175e-05 1.39338)
(0.000211866 3.43388e-05 1.17871)
(0.000112776 3.52283e-05 0.915973)
(3.99623e-05 2.98648e-05 0.59936)
(2.22226e-06 1.45631e-05 0.222307)
(2.50764e-06 -1.23726e-05 0.209582)
(3.81434e-05 -2.3741e-05 0.561152)
(0.000103999 -2.63383e-05 0.853488)
(0.000191871 -2.40752e-05 1.09412)
(0.00029195 -1.95334e-05 1.28948)
(0.000395053 -1.43527e-05 1.44489)
(0.000492021 -9.43589e-06 1.56454)
(0.000574449 -5.14083e-06 1.65166)
(0.000635183 -1.44908e-06 1.70856)
(0.000668764 1.9008e-06 1.73672)
(0.000671894 5.3004e-06 1.73685)
(0.000643774 9.16785e-06 1.70891)
(0.00058634 1.38415e-05 1.65214)
(0.000504328 1.946e-05 1.565)
(0.000405047 2.58214e-05 1.44518)
(0.000297912 3.2221e-05 1.28948)
(0.000193641 3.72682e-05 1.09377)
(0.000102967 3.87107e-05 0.852837)
(3.64776e-05 3.33006e-05 0.56041)
(2.04305e-06 1.65425e-05 0.209141)
(2.19619e-06 -1.2941e-05 0.192077)
(3.33613e-05 -2.41465e-05 0.509572)
(9.1144e-05 -2.61897e-05 0.770294)
(0.000168543 -2.34892e-05 0.982776)
(0.000257027 -1.87408e-05 1.15398)
(0.000348478 -1.35625e-05 1.28941)
(0.000434692 -8.79371e-06 1.39326)
(0.000508088 -4.73399e-06 1.46866)
(0.000562188 -1.32615e-06 1.51782)
(0.000592042 1.71136e-06 1.54212)
(0.00059467 4.77765e-06 1.54223)
(0.000569375 8.29623e-06 1.51812)
(0.000517953 1.26207e-05 1.46907)
(0.000444743 1.79253e-05 1.39364)
(0.000356393 2.40695e-05 1.28964)
(0.0002614 3.04349e-05 1.15395)
(0.000169353 3.5723e-05 0.982433)
(8.97188e-05 3.77286e-05 0.76969)
(3.16498e-05 3.31061e-05 0.508895)
(1.75648e-06 1.68651e-05 0.191678)
(1.74319e-06 -1.20739e-05 0.169366)
(2.71131e-05 -2.16913e-05 0.442983)
(7.46996e-05 -2.28245e-05 0.663639)
(0.000139011 -1.99647e-05 0.841073)
(0.00021306 -1.55797e-05 0.982677)
(0.000290002 -1.10505e-05 1.09394)
(0.000362801 -7.03241e-06 1.17887)
(0.000424906 -3.72051e-06 1.24034)
(0.000470698 -1.02503e-06 1.28034)
(0.000495883 1.32005e-06 1.30009)
(0.000497891 3.67027e-06 1.30017)
(0.00047615 6.39967e-06 1.28057)
(0.000432269 9.83156e-06 1.24065)
(0.000370067 1.41531e-05 1.17915)
(0.000295343 1.93034e-05 1.09409)
(0.000215456 2.48361e-05 0.982596)
(0.000138618 2.97216e-05 0.840725)
(7.27712e-05 3.20882e-05 0.663074)
(2.53313e-05 2.89148e-05 0.442368)
(1.32952e-06 1.52378e-05 0.169009)
(1.11358e-06 -9.54748e-06 0.139934)
(1.93935e-05 -1.62795e-05 0.357589)
(5.47108e-05 -1.64227e-05 0.528507)
(0.000103337 -1.38953e-05 0.663553)
(0.000160032 -1.05272e-05 0.77011)
(0.000219437 -7.26554e-06 0.853219)
(0.000275935 -4.505e-06 0.916356)
(0.000324261 -2.32076e-06 0.961917)
(0.000359898 -6.1486e-07 0.991502)
(0.000379397 8.19295e-07 1.0061)
(0.000380708 2.24172e-06 1.00616)
(0.000363408 3.92287e-06 0.991662)
(0.00032884 6.1056e-06 0.962121)
(0.000280131 8.95192e-06 0.916526)
(0.000221989 1.24692e-05 0.853268)
(0.000160346 1.6423e-05 0.76997)
(0.00010174 2.01706e-05 0.663199)
(5.23413e-05 2.24259e-05 0.527985)
(1.76042e-05 2.09663e-05 0.35704)
(7.35983e-07 1.15738e-05 0.13962)
(3.70718e-07 -5.64321e-06 0.100901)
(1.06477e-05 -8.85588e-06 0.247171)
(3.20234e-05 -8.37814e-06 0.35754)
(6.25936e-05 -6.74587e-06 0.442859)
(9.9023e-05 -4.89057e-06 0.509363)
(0.000137667 -3.23668e-06 0.560868)
(0.000174677 -1.9233e-06 0.599829)
(0.000206435 -9.43345e-07 0.62787)
(0.000229845 -2.25632e-07 0.64605)
(0.000242553 3.43691e-07 0.655008)
(0.000243178 8.9813e-07 0.655039)
(0.000231458 1.57441e-06 0.646132)
(0.000208353 2.50108e-06 0.627966)
(0.000176048 3.77694e-06 0.599887)
(0.000137812 5.43835e-06 0.560832)
(9.77414e-05 7.42501e-06 0.509191)
(6.03055e-05 9.48422e-06 0.442536)
(2.9644e-05 1.10249e-05 0.357103)
(9.10624e-06 1.09103e-05 0.246724)
(7.11581e-08 6.48762e-06 0.100643)
(-3.78467e-07 -1.20366e-06 0.0455988)
(2.26935e-06 -1.49371e-06 0.10089)
(9.10626e-06 -1.17402e-06 0.139896)
(1.97722e-05 -8.51509e-07 0.169289)
(3.29885e-05 -5.48502e-07 0.191956)
(4.72901e-05 -3.18078e-07 0.20942)
(6.11187e-05 -1.63784e-07 0.222595)
(7.30282e-05 -6.2633e-08 0.232062)
(8.17929e-05 -2.92177e-09 0.238194)
(8.64891e-05 3.29866e-08 0.241212)
(8.65821e-05 6.46551e-08 0.241219)
(8.19847e-05 1.10349e-07 0.23821)
(7.30942e-05 1.90045e-07 0.232074)
(6.0798e-05 3.21484e-07 0.222583)
(4.64159e-05 5.1488e-07 0.209364)
(3.16013e-05 7.8796e-07 0.191839)
(1.81601e-05 1.12517e-06 0.169107)
(7.72452e-06 1.45431e-06 0.139665)
(1.49072e-06 1.71567e-06 0.100655)
(-5.17207e-07 1.29164e-06 0.0454523)
(-1.41171e-06 3.05578e-06 0.0455921)
(2.12242e-06 4.04415e-06 0.100874)
(1.4947e-05 3.48739e-06 0.139874)
(3.71931e-05 2.71598e-06 0.169262)
(6.64052e-05 1.94888e-06 0.191928)
(9.91016e-05 1.31095e-06 0.209393)
(0.000131393 8.22279e-07 0.222571)
(0.000159538 4.50375e-07 0.232044)
(0.000180301 1.64135e-07 0.238182)
(0.000191242 -7.66549e-08 0.241208)
(0.00019096 -3.14921e-07 0.241224)
(0.00017927 -5.922e-07 0.238224)
(0.000157307 -9.50798e-07 0.232096)
(0.000127516 -1.42774e-06 0.222611)
(9.34829e-05 -2.04444e-06 0.209395)
(5.95758e-05 -2.81077e-06 0.19187)
(3.03525e-05 -3.66307e-06 0.169136)
(9.63525e-06 -4.40915e-06 0.139689)
(-6.26861e-07 -4.71174e-06 0.100671)
(-1.82778e-06 -3.25039e-06 0.0454588)
(-2.17831e-07 1.53698e-05 0.100886)
(1.87827e-05 2.58019e-05 0.247132)
(6.3716e-05 2.60928e-05 0.357483)
(0.000131929 2.25179e-05 0.44279)
(0.000216409 1.77139e-05 0.50929)
(0.000308302 1.29341e-05 0.560796)
(0.000397808 8.66495e-06 0.599765)
(0.000475409 4.98309e-06 0.62782)
(0.000532801 1.76498e-06 0.646019)
(0.00056365 -1.222e-06 0.654998)
(0.000564241 -4.25676e-06 0.655053)
(0.00053396 -7.62073e-06 0.646168)
(0.000475559 -1.15597e-05 0.628022)
(0.000395125 -1.62263e-05 0.599958)
(0.000301643 -2.15914e-05 0.560913)
(0.000206094 -2.73184e-05 0.509273)
(0.000120005 -3.25195e-05 0.442612)
(5.34005e-05 -3.53913e-05 0.357164)
(1.2812e-05 -3.26815e-05 0.246765)
(-1.24902e-06 -1.79631e-05 0.100658)
(1.37147e-06 2.76232e-05 0.139913)
(3.89811e-05 4.96953e-05 0.357533)
(0.00011775 5.29969e-05 0.528423)
(0.000230941 4.76533e-05 0.66345)
(0.000366945 3.8783e-05 0.769999)
(0.000512403 2.91239e-05 0.85311)
(0.000652774 1.99363e-05 0.916259)
(0.000773976 1.1602e-05 0.96184)
(0.00086369 4.00976e-06 0.991454)
(0.000912466 -3.23138e-06 1.00608)
(0.000914688 -1.0639e-05 1.00617)
(0.000869293 -1.87396e-05 0.991715)
(0.000780173 -2.79577e-05 0.962204)
(0.000656147 -3.84712e-05 0.916632)
(0.00051033 -5.00117e-05 0.853388)
(0.000358868 -6.15941e-05 0.770092)
(0.000218938 -7.10906e-05 0.663311)
(0.000105961 -7.46538e-05 0.528075)
(3.15199e-05 -6.59868e-05 0.357099)
(4.89127e-09 -3.43161e-05 0.13964)
(2.90397e-06 3.66051e-05 0.169341)
(5.8546e-05 6.87599e-05 0.442914)
(0.000169246 7.58906e-05 0.663535)
(0.000323999 7.01238e-05 0.840944)
(0.000506692 5.83821e-05 0.982537)
(0.000699921 4.46619e-05 1.0938)
(0.000885143 3.09971e-05 1.17874)
(0.00104454 1.81562e-05 1.24024)
(0.00116254 6.13133e-06 1.28027)
(0.00122718 -5.53889e-06 1.30007)
(0.00123126 -1.75282e-05 1.3002)
(0.00117331 -3.05261e-05 1.28064)
(0.00105803 -4.50443e-05 1.24076)
(0.000896344 -6.11848e-05 1.17928)
(0.000704641 -7.83371e-05 1.09424)
(0.000503275 -9.47887e-05 0.982747)
(0.00031421 -0.000107202 0.840863)
(0.000157771 -0.000109973 0.663184)
(5.0599e-05 -9.44978e-05 0.442439)
(1.36376e-06 -4.74535e-05 0.169033)
(4.12827e-06 4.07818e-05 0.192049)
(7.5593e-05 7.9048e-05 0.509494)
(0.000214457 8.94427e-05 0.770175)
(0.000405808 8.43429e-05 0.982628)
(0.000629364 7.14254e-05 1.15382)
(0.000864108 5.54012e-05 1.28925)
(0.00108807 3.88416e-05 1.39311)
(0.00128031 2.28418e-05 1.46854)
(0.0014226 7.53856e-06 1.51774)
(0.0015009 -7.50728e-06 1.54209)
(0.00150676 -2.3012e-05 1.54225)
(0.00143829 -3.97115e-05 1.51819)
(0.00130082 -5.81029e-05 1.46918)
(0.00110695 -7.81479e-05 1.3938)
(0.000875714 -9.89082e-05 1.28981)
(0.000630966 -0.000118097 1.15413)
(0.000398779 -0.000131542 0.98259)
(0.000203853 -0.000132601 0.769814)
(6.75277e-05 -0.000111594 0.508973)
(2.46743e-06 -5.45827e-05 0.191704)
(5.05453e-06 4.02565e-05 0.209553)
(8.95107e-05 7.98664e-05 0.561068)
(0.000251892 9.20609e-05 0.853357)
(0.000473981 8.81576e-05 1.09396)
(0.00073189 7.56283e-05 1.2893)
(0.00100148 5.92824e-05 1.44471)
(0.00125787 4.18792e-05 1.56438)
(0.00147754 2.46885e-05 1.65153)
(0.00164007 7.9739e-06 1.70848)
(0.00172977 -8.62309e-06 1.73669)
(0.00173712 -2.57653e-05 1.73687)
(0.00165992 -4.41346e-05 1.70899)
(0.001504 -6.41442e-05 1.65227)
(0.00128327 -8.56146e-05 1.56517)
(0.00101895 -0.000107395 1.44537)
(0.000737786 -0.000126922 1.28967)
(0.000469341 -0.00013973 1.09393)
(0.000242071 -0.000138987 0.852969)
(8.13696e-05 -0.000115139 0.560492)
(3.29006e-06 -5.52038e-05 0.209168)
(5.72011e-06 3.56471e-05 0.222759)
(0.000100257 7.19398e-05 0.600079)
(0.000281227 8.40648e-05 0.916541)
(0.000527819 8.1428e-05 1.17892)
(0.000813223 7.05363e-05 1.39317)
(0.00111073 5.57296e-05 1.56437)
(0.0013931 3.95904e-05 1.69664)
(0.00163471 2.33734e-05 1.79319)
(0.0018134 7.40696e-06 1.85637)
(0.00191216 -8.56559e-06 1.8877)
(0.00192066 -2.50902e-05 1.8879)
(0.00183645 -4.27289e-05 1.85694)
(0.00166573 -6.17814e-05 1.794)
(0.00142347 -8.19793e-05 1.6975)
(0.00113262 -0.000102138 1.56509)
(0.000822296 -0.000119774 1.39357)
(0.000524871 -0.000130702 1.17889)
(0.000271879 -0.000128709 0.91611)
(9.19768e-05 -0.000105381 0.599444)
(3.85952e-06 -4.97795e-05 0.222334)
(6.16933e-06 2.77893e-05 0.232246)
(0.000108017 5.67617e-05 0.628145)
(0.000302692 6.69715e-05 0.96211)
(0.000567495 6.54025e-05 1.24038)
(0.000873433 5.70489e-05 1.46854)
(0.00119184 4.53287e-05 1.65145)
(0.00149366 3.23291e-05 1.7931)
(0.00175169 1.91023e-05 1.89669)
(0.00194246 5.96127e-06 1.96456)
(0.00204798 -7.25514e-06 1.99823)
(0.00205729 -2.09442e-05 1.99845)
(0.00196777 -3.55146e-05 1.96516)
(0.0017859 -5.11564e-05 1.89754)
(0.00152748 -6.75922e-05 1.79401)
(0.00121673 -8.37997e-05 1.6522)
(0.000884587 -9.77173e-05 1.46895)
(0.000565563 -0.000105957 1.24033)
(0.000293523 -0.000103594 0.961635)
(9.95473e-05 -8.41111e-05 0.627454)
(4.22452e-06 -3.93139e-05 0.231786)
(6.44402e-06 1.76025e-05 0.238385)
(0.000113026 3.62323e-05 0.646323)
(0.000316689 4.30142e-05 0.99167)
(0.000593515 4.22276e-05 1.28032)
(0.000913066 3.69993e-05 1.51762)
(0.00124536 2.95052e-05 1.70825)
(0.00156012 2.10966e-05 1.85613)
(0.00182906 1.24707e-05 1.9644)
(0.00202785 3.84998e-06 2.03538)
(0.00213784 -4.85018e-06 2.07062)
(0.00214766 -1.38681e-05 2.07084)
(0.00205457 -2.34486e-05 2.036)
(0.00186525 -3.36924e-05 1.96527)
(0.00159603 -4.43934e-05 1.85706)
(0.00127205 -5.48618e-05 1.70901)
(0.000925411 -6.37397e-05 1.51803)
(0.000592098 -6.88298e-05 1.28025)
(0.000307528 -6.69824e-05 0.991158)
(0.000104377 -5.40933e-05 0.645589)
(4.43609e-06 -2.51119e-05 0.237899)
(6.57388e-06 6.02187e-06 0.241402)
(0.000115477 1.24419e-05 0.655259)
(0.000323583 1.48152e-05 1.00621)
(0.000606378 1.45817e-05 1.29999)
(0.000932704 1.28042e-05 1.54181)
(0.00127192 1.02289e-05 1.73628)
(0.00159313 7.32273e-06 1.88725)
(0.00186752 4.3293e-06 1.99786)
(0.00207031 1.32898e-06 2.07041)
(0.00218252 -1.70412e-06 2.10642)
(0.00219259 -4.84911e-06 2.10665)
(0.0020977 -8.1872e-06 2.07103)
(0.00190465 -1.17493e-05 1.99874)
(0.00163003 -1.54596e-05 1.8882)
(0.00129943 -1.90749e-05 1.73705)
(0.000945576 -2.21217e-05 1.54222)
(0.000605161 -2.38399e-05 1.29991)
(0.000314388 -2.31471e-05 1.00568)
(0.00010672 -1.86438e-05 0.654502)
(4.5321e-06 -8.62629e-06 0.240902)
(6.57388e-06 -6.02203e-06 0.241402)
(0.000115477 -1.24424e-05 0.655259)
(0.000323583 -1.4816e-05 1.00621)
(0.000606378 -1.45826e-05 1.29999)
(0.000932704 -1.28053e-05 1.54181)
(0.00127192 -1.02301e-05 1.73628)
(0.00159313 -7.32386e-06 1.88726)
(0.00186752 -4.33033e-06 1.99786)
(0.00207031 -1.32983e-06 2.07041)
(0.00218252 1.70348e-06 2.10642)
(0.00219259 4.84869e-06 2.10665)
(0.0020977 8.187e-06 2.07103)
(0.00190465 1.17493e-05 1.99874)
(0.00163003 1.54597e-05 1.8882)
(0.00129943 1.90751e-05 1.73705)
(0.000945576 2.2122e-05 1.54222)
(0.000605161 2.38401e-05 1.29991)
(0.000314388 2.31473e-05 1.00568)
(0.00010672 1.86439e-05 0.654502)
(4.5321e-06 8.62633e-06 0.240902)
(6.44404e-06 -1.76026e-05 0.238385)
(0.000113026 -3.62328e-05 0.646323)
(0.000316689 -4.30149e-05 0.99167)
(0.000593516 -4.22285e-05 1.28032)
(0.000913066 -3.70003e-05 1.51762)
(0.00124536 -2.95063e-05 1.70825)
(0.00156012 -2.10977e-05 1.85613)
(0.00182906 -1.24717e-05 1.9644)
(0.00202785 -3.85082e-06 2.03538)
(0.00213784 4.84956e-06 2.07062)
(0.00214766 1.38677e-05 2.07084)
(0.00205457 2.34484e-05 2.036)
(0.00186525 3.36923e-05 1.96527)
(0.00159603 4.43935e-05 1.85706)
(0.00127205 5.4862e-05 1.70901)
(0.000925411 6.374e-05 1.51803)
(0.000592098 6.883e-05 1.28025)
(0.000307528 6.69825e-05 0.991158)
(0.000104377 5.40934e-05 0.645589)
(4.4361e-06 2.51119e-05 0.237899)
(6.16935e-06 -2.77894e-05 0.232246)
(0.000108017 -5.6762e-05 0.628145)
(0.000302692 -6.69721e-05 0.96211)
(0.000567496 -6.54033e-05 1.24038)
(0.000873434 -5.70499e-05 1.46854)
(0.00119184 -4.53297e-05 1.65145)
(0.00149366 -3.23301e-05 1.7931)
(0.00175169 -1.91032e-05 1.89669)
(0.00194246 -5.96206e-06 1.96456)
(0.00204798 7.25454e-06 1.99823)
(0.00205729 2.09438e-05 1.99845)
(0.00196777 3.55143e-05 1.96516)
(0.00178591 5.11564e-05 1.89754)
(0.00152748 6.75922e-05 1.79401)
(0.00121673 8.37999e-05 1.6522)
(0.000884587 9.77174e-05 1.46895)
(0.000565564 0.000105957 1.24033)
(0.000293523 0.000103594 0.961635)
(9.95472e-05 8.4111e-05 0.627454)
(4.22453e-06 3.93139e-05 0.231786)
(5.72013e-06 -3.56472e-05 0.222759)
(0.000100257 -7.19402e-05 0.600079)
(0.000281228 -8.40654e-05 0.916541)
(0.000527819 -8.14289e-05 1.17892)
(0.000813224 -7.05372e-05 1.39317)
(0.00111074 -5.57305e-05 1.56437)
(0.0013931 -3.95913e-05 1.69664)
(0.00163471 -2.33743e-05 1.79319)
(0.0018134 -7.40767e-06 1.85637)
(0.00191216 8.56503e-06 1.8877)
(0.00192067 2.50898e-05 1.8879)
(0.00183645 4.27286e-05 1.85694)
(0.00166573 6.17813e-05 1.794)
(0.00142347 8.19793e-05 1.6975)
(0.00113262 0.000102139 1.56509)
(0.000822296 0.000119774 1.39357)
(0.000524871 0.000130702 1.17889)
(0.000271879 0.000128709 0.91611)
(9.19768e-05 0.00010538 0.599444)
(3.85953e-06 4.97795e-05 0.222334)
(5.05454e-06 -4.02567e-05 0.209553)
(8.95107e-05 -7.9867e-05 0.561068)
(0.000251892 -9.20617e-05 0.853357)
(0.000473981 -8.81584e-05 1.09396)
(0.000731891 -7.56291e-05 1.2893)
(0.00100148 -5.92832e-05 1.44471)
(0.00125788 -4.18799e-05 1.56438)
(0.00147754 -2.46892e-05 1.65153)
(0.00164007 -7.97452e-06 1.70848)
(0.00172977 8.62259e-06 1.73669)
(0.00173712 2.57649e-05 1.73687)
(0.00165992 4.41343e-05 1.70899)
(0.001504 6.4144e-05 1.65227)
(0.00128327 8.56144e-05 1.56517)
(0.00101895 0.000107395 1.44537)
(0.000737787 0.000126922 1.28967)
(0.000469342 0.00013973 1.09393)
(0.000242071 0.000138987 0.852969)
(8.13696e-05 0.000115139 0.560492)
(3.29008e-06 5.52039e-05 0.209168)
(4.12829e-06 -4.07821e-05 0.192049)
(7.55931e-05 -7.9049e-05 0.509494)
(0.000214457 -8.94436e-05 0.770175)
(0.000405809 -8.43437e-05 0.982628)
(0.000629365 -7.14261e-05 1.15382)
(0.000864109 -5.54019e-05 1.28925)
(0.00108807 -3.88422e-05 1.39311)
(0.00128031 -2.28424e-05 1.46854)
(0.0014226 -7.53908e-06 1.51774)
(0.00150091 7.50685e-06 1.54209)
(0.00150676 2.30117e-05 1.54225)
(0.00143829 3.97112e-05 1.51819)
(0.00130082 5.81026e-05 1.46918)
(0.00110695 7.81477e-05 1.3938)
(0.000875715 9.8908e-05 1.28981)
(0.000630966 0.000118097 1.15413)
(0.00039878 0.000131542 0.98259)
(0.000203853 0.000132602 0.769814)
(6.75276e-05 0.000111595 0.508973)
(2.46744e-06 5.45829e-05 0.191704)
(2.90399e-06 -3.66054e-05 0.169341)
(5.8546e-05 -6.87607e-05 0.442914)
(0.000169246 -7.58912e-05 0.663535)
(0.000324 -7.01243e-05 0.840944)
(0.000506693 -5.83827e-05 0.982537)
(0.000699922 -4.46625e-05 1.0938)
(0.000885144 -3.09977e-05 1.17874)
(0.00104454 -1.81567e-05 1.24024)
(0.00116254 -6.13177e-06 1.28027)
(0.00122718 5.53851e-06 1.30007)
(0.00123126 1.75278e-05 1.3002)
(0.00117331 3.05258e-05 1.28064)
(0.00105803 4.50441e-05 1.24076)
(0.000896345 6.11847e-05 1.17928)
(0.000704642 7.8337e-05 1.09424)
(0.000503275 9.47886e-05 0.982747)
(0.00031421 0.000107202 0.840863)
(0.000157771 0.000109973 0.663184)
(5.05989e-05 9.44981e-05 0.442439)
(1.36376e-06 4.74537e-05 0.169033)
(1.37148e-06 -2.76233e-05 0.139913)
(3.89811e-05 -4.96954e-05 0.357533)
(0.00011775 -5.2997e-05 0.528423)
(0.000230941 -4.76535e-05 0.66345)
(0.000366945 -3.87835e-05 0.769999)
(0.000512404 -2.91245e-05 0.85311)
(0.000652776 -1.99368e-05 0.916259)
(0.000773977 -1.16025e-05 0.96184)
(0.000863692 -4.01014e-06 0.991454)
(0.000912467 3.23105e-06 1.00608)
(0.000914689 1.06387e-05 1.00617)
(0.000869294 1.87394e-05 0.991715)
(0.000780174 2.79576e-05 0.962204)
(0.000656148 3.84712e-05 0.916632)
(0.00051033 5.00118e-05 0.853388)
(0.000358868 6.15941e-05 0.770092)
(0.000218937 7.10903e-05 0.663311)
(0.00010596 7.46534e-05 0.528075)
(3.15196e-05 6.59863e-05 0.357099)
(4.88574e-09 3.4316e-05 0.13964)
(-2.17799e-07 -1.537e-05 0.100886)
(1.8783e-05 -2.58016e-05 0.247132)
(6.37157e-05 -2.60923e-05 0.357483)
(0.000131928 -2.25179e-05 0.44279)
(0.00021641 -1.77143e-05 0.50929)
(0.000308303 -1.29347e-05 0.560796)
(0.000397809 -8.66547e-06 0.599765)
(0.00047541 -4.9835e-06 0.62782)
(0.000532802 -1.7653e-06 0.646019)
(0.00056365 1.22173e-06 0.654998)
(0.000564242 4.25654e-06 0.655053)
(0.000533961 7.62059e-06 0.646168)
(0.00047556 1.15597e-05 0.628022)
(0.000395126 1.62266e-05 0.599958)
(0.000301644 2.15919e-05 0.560913)
(0.000206093 2.73186e-05 0.509273)
(0.000120004 3.25191e-05 0.442612)
(5.33994e-05 3.53904e-05 0.357164)
(1.28114e-05 3.26802e-05 0.246765)
(-1.24901e-06 1.79626e-05 0.100658)
(-1.41153e-06 -3.05575e-06 0.0455921)
(2.1228e-06 -4.04384e-06 0.100874)
(1.49467e-05 -3.48719e-06 0.139874)
(3.71928e-05 -2.71592e-06 0.169262)
(6.64051e-05 -1.94891e-06 0.191928)
(9.91018e-05 -1.31101e-06 0.209393)
(0.000131394 -8.22342e-07 0.222571)
(0.000159538 -4.50428e-07 0.232044)
(0.000180301 -1.64182e-07 0.238182)
(0.000191243 7.66072e-08 0.241208)
(0.000190961 3.1487e-07 0.241224)
(0.000179271 5.92149e-07 0.238224)
(0.000157307 9.50757e-07 0.232096)
(0.000127516 1.42773e-06 0.222611)
(9.3483e-05 2.04447e-06 0.209395)
(5.95755e-05 2.81075e-06 0.19187)
(3.0352e-05 3.6629e-06 0.169136)
(9.63463e-06 4.40881e-06 0.139689)
(-6.27154e-07 4.71133e-06 0.100671)
(-1.82775e-06 3.25018e-06 0.0454588)
(-2.46581e-06 5.1179e-06 0.0455801)
(2.66949e-06 6.84164e-06 0.100845)
(2.29679e-05 5.98898e-06 0.139832)
(5.89248e-05 4.71156e-06 0.169213)
(0.000106667 3.43357e-06 0.191875)
(0.00016047 2.35361e-06 0.209342)
(0.000213895 1.50628e-06 0.222526)
(0.000260689 8.46554e-07 0.232008)
(0.000295411 3.21009e-07 0.23816)
(0.000313916 -1.3591e-07 0.241202)
(0.000313775 -5.93296e-07 0.241235)
(0.000294597 -1.119e-06 0.238251)
(0.000258214 -1.78109e-06 0.232138)
(0.0002087 -2.63963e-06 0.222664)
(0.000152092 -3.73099e-06 0.209454)
(9.57992e-05 -5.05962e-06 0.191931)
(4.75611e-05 -6.51201e-06 0.169192)
(1.38642e-05 -7.76413e-06 0.139734)
(-2.17349e-06 -8.1702e-06 0.100702)
(-3.24369e-06 -5.55792e-06 0.0454705)
(-6.44792e-07 2.60353e-05 0.100858)
(2.94178e-05 4.41415e-05 0.24706)
(0.000102247 4.50683e-05 0.357376)
(0.000213991 3.92762e-05 0.44266)
(0.000353371 3.1243e-05 0.509149)
(0.000505774 2.30972e-05 0.560658)
(0.000654908 1.56805e-05 0.599642)
(0.000784821 9.14433e-06 0.627724)
(0.000881483 3.2968e-06 0.645958)
(0.000934088 -2.23311e-06 0.65498)
(0.000936177 -7.89165e-06 0.65508)
(0.000886479 -1.41284e-05 0.646239)
(0.000789425 -2.13297e-05 0.628132)
(0.000655152 -2.97224e-05 0.600099)
(0.000498811 -3.92212e-05 0.561071)
(0.000339054 -4.9199e-05 0.509433)
(0.000195518 -5.80728e-05 0.442758)
(8.52871e-05 -6.26806e-05 0.357282)
(1.91882e-05 -5.73494e-05 0.246842)
(-2.50035e-06 -3.11697e-05 0.100686)
(1.94805e-06 4.72015e-05 0.139875)
(6.27734e-05 8.55589e-05 0.357427)
(0.000191914 9.19558e-05 0.528264)
(0.00037884 8.33827e-05 0.663255)
(0.000604675 6.85166e-05 0.769787)
(0.000847276 5.19996e-05 0.852901)
(0.00108239 3.5993e-05 0.916072)
(0.00128632 2.11799e-05 0.961692)