/*--------------------------------*- C++ -*----------------------------------*\
  =========                 |
  \\      /  F ield         | OpenFOAM: The Open Source CFD Toolbox
   \\    /   O peration     | Website:  https://openfoam.org
    \\  /    A nd           | Version:  6
     \\/     M anipulation  |
\*---------------------------------------------------------------------------*/
FoamFile
{
    version     2.0;
    format      ascii;
    class       volScalarField;
    location    "0.1";
    object      p;
}
// * * * * * * * * * * * * * * * * * * * * * * * * * * * * * * * * * * * * * //

dimensions      [0 2 -2 0 0 0 0];

internalField   nonuniform List<scalar> 
56000
(
0.00343152
0.034671
0.0809153
0.131937
0.182687
0.235569
0.29594
0.364829
0.431065
0.469092
-0.00735263
0.0361606
0.0904615
0.142827
0.191076
0.239699
0.296332
0.365102
0.439938
0.497303
-0.0438104
0.0184894
0.0862952
0.145707
0.197439
0.248301
0.308583
0.385468
0.477029
0.558537
-0.0940438
-0.0146143
0.0684116
0.139167
0.200017
0.259597
0.330424
0.421684
0.533046
0.636417
-0.146097
-0.052881
0.0442315
0.127252
0.199198
0.26993
0.353576
0.460451
0.590256
0.711138
-0.19381
-0.0904414
0.0182903
0.112614
0.195494
0.277452
0.373626
0.494783
0.639767
0.773488
-0.234027
-0.123707
-0.00614492
0.0975657
0.189953
0.281798
0.388778
0.521688
0.678173
0.820674
-0.265101
-0.150345
-0.0265816
0.0841993
0.183985
0.283588
0.398921
0.540614
0.70516
0.853283
-0.286181
-0.168856
-0.0412044
0.0742452
0.179027
0.283896
0.404843
0.552302
0.7219
0.873297
-0.296821
-0.178331
-0.0488157
0.0689435
0.17623
0.283747
0.407498
0.5578
0.72982
0.882712
-0.296821
-0.178331
-0.0488159
0.0689432
0.17623
0.283746
0.407498
0.5578
0.72982
0.882712
-0.286182
-0.168857
-0.0412048
0.0742443
0.179026
0.283895
0.404842
0.552301
0.7219
0.873298
-0.265102
-0.150345
-0.026582
0.0841979
0.183984
0.283587
0.39892
0.540614
0.70516
0.853285
-0.234026
-0.123705
-0.00614503
0.0975636
0.18995
0.281795
0.388776
0.521687
0.678173
0.820676
-0.193804
-0.0904371
0.0182902
0.11261
0.195489
0.277447
0.373623
0.494781
0.639767
0.77349
-0.14608
-0.052873
0.0442302
0.127244
0.19919
0.269922
0.353571
0.460448
0.590256
0.71114
-0.0939999
-0.0145973
0.0684086
0.139154
0.200003
0.259586
0.330417
0.42168
0.533044
0.636418
-0.0436493
0.0185554
0.0863017
0.14569
0.197419
0.248285
0.308572
0.385461
0.477025
0.558536
-0.00654581
0.0364015
0.0905109
0.142816
0.191055
0.23968
0.296318
0.365092
0.439932
0.4973
0.00877072
0.0354685
0.0810486
0.131943
0.18267
0.235551
0.295925
0.364818
0.431058
0.469088
-35.029
-34.9504
-34.7904
-34.5816
-34.3505
-34.1058
-33.8496
-33.5945
-33.3829
-33.2832
-35.0571
-34.9441
-34.7678
-34.5607
-34.3423
-34.1146
-33.8716
-33.6159
-33.3768
-33.22
-35.1549
-34.9946
-34.7846
-34.5599
-34.333
-34.0988
-33.8435
-33.5611
-33.2706
-33.0437
-35.2975
-35.0916
-34.8396
-34.5812
-34.3248
-34.0606
-33.769
-33.4392
-33.0876
-32.7968
-35.4487
-35.2045
-34.9113
-34.6142
-34.3201
-34.0164
-33.6798
-33.2976
-32.8877
-32.545
-35.5882
-35.315
-34.9864
-34.6522
-34.3198
-33.9754
-33.594
-33.1629
-32.7042
-32.3229
-35.7053
-35.412
-35.0557
-34.6897
-34.3231
-33.9423
-33.5216
-33.0495
-32.5532
-32.1453
-35.7948
-35.4887
-35.1125
-34.722
-34.3284
-33.9185
-33.467
-32.9639
-32.4408
-32.0159
-35.855
-35.5414
-35.1526
-34.7456
-34.3335
-33.9036
-33.4312
-32.9074
-32.3674
-31.9327
-35.8851
-35.5682
-35.1733
-34.7581
-34.3366
-33.8966
-33.4137
-32.8796
-32.3314
-31.8923
-35.8851
-35.5682
-35.1733
-34.7581
-34.3366
-33.8966
-33.4137
-32.8796
-32.3314
-31.8923
-35.855
-35.5414
-35.1526
-34.7456
-34.3335
-33.9036
-33.4312
-32.9074
-32.3674
-31.9327
-35.7948
-35.4887
-35.1125
-34.722
-34.3284
-33.9185
-33.467
-32.9639
-32.4408
-32.0159
-35.7053
-35.412
-35.0557
-34.6897
-34.3232
-33.9423
-33.5216
-33.0495
-32.5532
-32.1453
-35.5882
-35.315
-34.9864
-34.6522
-34.3198
-33.9754
-33.594
-33.1629
-32.7042
-32.3229
-35.4487
-35.2045
-34.9113
-34.6142
-34.3202
-34.0164
-33.6798
-33.2976
-32.8877
-32.545
-35.2975
-35.0916
-34.8396
-34.5812
-34.3248
-34.0606
-33.769
-33.4392
-33.0876
-32.7969
-35.1548
-34.9946
-34.7846
-34.5599
-34.333
-34.0988
-33.8436
-33.5611
-33.2706
-33.0437
-35.0567
-34.9439
-34.7677
-34.5607
-34.3424
-34.1146
-33.8716
-33.6159
-33.3768
-33.22
-35.0279
-34.95
-34.7903
-34.5816
-34.3505
-34.1059
-33.8496
-33.5945
-33.3829
-33.2832
-70.0896
-69.9426
-69.6562
-69.2945
-68.9032
-68.4939
-68.0632
-67.6231
-67.2375
-67.0446
-70.1565
-69.9382
-69.6182
-69.2588
-68.8901
-68.5106
-68.1022
-67.657
-67.2081
-66.8872
-70.3502
-70.0382
-69.6525
-69.2596
-68.8739
-68.4809
-68.047
-67.5468
-66.989
-66.5181
-70.6229
-70.2217
-69.7556
-69.2997
-68.8591
-68.4093
-67.9057
-67.3122
-66.629
-66.0243
-70.908
-70.4322
-69.888
-69.3603
-68.8501
-68.3268
-67.7383
-67.0435
-66.2432
-65.5304
-71.1688
-70.6364
-70.0253
-69.4291
-68.8487
-68.2505
-67.5783
-66.7903
-65.8926
-65.0994
-71.3863
-70.8144
-70.1511
-69.4964
-68.8536
-68.1887
-67.4437
-66.5782
-65.6057
-64.7569
-71.5521
-70.9546
-70.2537
-69.5541
-68.862
-68.1441
-67.3424
-66.4182
-65.3928
-64.5079
-71.663
-71.0506
-70.3258
-69.596
-68.8703
-68.116
-67.2758
-66.313
-65.254
-64.3479
-71.7184
-71.0992
-70.3629
-69.618
-68.8753
-68.1026
-67.2431
-66.261
-65.186
-64.2702
-71.7184
-71.0992
-70.3629
-69.618
-68.8753
-68.1026
-67.2431
-66.261
-65.186
-64.2702
-71.663
-71.0506
-70.3258
-69.596
-68.8703
-68.116
-67.2758
-66.313
-65.254
-64.3479
-71.5521
-70.9546
-70.2537
-69.5541
-68.862
-68.1441
-67.3424
-66.4182
-65.3928
-64.5079
-71.3863
-70.8144
-70.1511
-69.4964
-68.8536
-68.1887
-67.4438
-66.5782
-65.6057
-64.7569
-71.1688
-70.6364
-70.0253
-69.4291
-68.8487
-68.2505
-67.5783
-66.7903
-65.8926
-65.0994
-70.908
-70.4322
-69.888
-69.3603
-68.8501
-68.3269
-67.7383
-67.0435
-66.2432
-65.5304
-70.6229
-70.2217
-69.7556
-69.2997
-68.8591
-68.4093
-67.9057
-67.3122
-66.629
-66.0243
-70.3501
-70.0381
-69.6525
-69.2596
-68.8739
-68.4809
-68.0471
-67.5468
-66.989
-66.5181
-70.1564
-69.9381
-69.6182
-69.2588
-68.8901
-68.5106
-68.1022
-67.657
-67.2081
-66.8872
-70.0892
-69.9425
-69.6562
-69.2945
-68.9032
-68.4939
-68.0632
-67.6231
-67.2375
-67.0446
-105.173
-104.927
-104.496
-103.996
-103.488
-102.974
-102.423
-101.818
-101.217
-100.88
-105.322
-104.937
-104.439
-103.937
-103.46
-102.989
-102.467
-101.843
-101.108
-100.504
-105.672
-105.116
-104.499
-103.938
-103.431
-102.933
-102.363
-101.637
-100.691
-99.7899
-106.141
-105.425
-104.67
-104.005
-103.407
-102.817
-102.13
-101.241
-100.061
-98.9019
-106.62
-105.772
-104.886
-104.104
-103.397
-102.689
-101.864
-100.804
-99.4112
-98.0457
-107.053
-106.106
-105.108
-104.217
-103.4
-102.575
-101.617
-100.401
-98.8347
-97.3164
-107.412
-106.395
-105.31
-104.327
-103.414
-102.485
-101.413
-100.07
-98.3713
-96.7464
-107.685
-106.622
-105.475
-104.421
-103.432
-102.422
-101.261
-99.8238
-98.0317
-96.3367
-107.867
-106.777
-105.59
-104.49
-103.449
-102.384
-101.163
-99.6631
-97.8122
-96.0753
-107.958
-106.855
-105.649
-104.525
-103.458
-102.366
-101.115
-99.5843
-97.705
-95.9488
-107.958
-106.855
-105.649
-104.525
-103.458
-102.366
-101.115
-99.5843
-97.705
-95.9488
-107.867
-106.777
-105.59
-104.49
-103.449
-102.384
-101.163
-99.6631
-97.8122
-96.0753
-107.685
-106.622
-105.475
-104.421
-103.432
-102.422
-101.261
-99.8238
-98.0317
-96.3367
-107.412
-106.395
-105.31
-104.327
-103.414
-102.485
-101.413
-100.07
-98.3713
-96.7464
-107.053
-106.106
-105.108
-104.217
-103.4
-102.575
-101.617
-100.401
-98.8347
-97.3164
-106.62
-105.772
-104.886
-104.104
-103.397
-102.689
-101.864
-100.804
-99.4112
-98.0457
-106.14
-105.425
-104.67
-104.005
-103.407
-102.817
-102.13
-101.241
-100.061
-98.9019
-105.672
-105.116
-104.499
-103.938
-103.431
-102.933
-102.363
-101.637
-100.691
-99.7899
-105.322
-104.937
-104.439
-103.937
-103.46
-102.989
-102.467
-101.843
-101.108
-100.504
-105.172
-104.927
-104.496
-103.996
-103.488
-102.974
-102.423
-101.818
-101.217
-100.88
-140.215
-139.831
-139.237
-138.637
-138.104
-137.611
-137.068
-136.379
-135.537
-134.993
-140.514
-139.875
-139.156
-138.542
-138.045
-137.605
-137.093
-136.352
-135.237
-134.16
-141.109
-140.173
-139.255
-138.543
-137.992
-137.503
-136.906
-135.985
-134.476
-132.837
-141.867
-140.664
-139.52
-138.646
-137.959
-137.328
-136.547
-135.358
-133.432
-131.316
-142.627
-141.205
-139.852
-138.802
-137.953
-137.149
-136.159
-134.696
-132.401
-129.911
-143.306
-141.719
-140.191
-138.979
-137.971
-136.998
-135.81
-134.106
-131.517
-128.75
-143.865
-142.161
-140.498
-139.151
-138.005
-136.885
-135.531
-133.634
-130.822
-127.861
-144.288
-142.507
-140.747
-139.298
-138.045
-136.811
-135.329
-133.289
-130.322
-127.231
-144.57
-142.743
-140.922
-139.405
-138.079
-136.767
-135.201
-133.067
-130.002
-126.833
-144.711
-142.862
-141.012
-139.46
-138.098
-136.748
-135.139
-132.959
-129.848
-126.642
-144.711
-142.862
-141.012
-139.46
-138.098
-136.748
-135.139
-132.959
-129.848
-126.642
-144.57
-142.743
-140.922
-139.405
-138.079
-136.767
-135.201
-133.067
-130.002
-126.833
-144.288
-142.507
-140.747
-139.298
-138.045
-136.811
-135.329
-133.289
-130.322
-127.231
-143.865
-142.161
-140.498
-139.151
-138.005
-136.885
-135.531
-133.634
-130.822
-127.861
-143.306
-141.719
-140.191
-138.979
-137.971
-136.998
-135.81
-134.106
-131.517
-128.75
-142.627
-141.205
-139.852
-138.802
-137.953
-137.149
-136.159
-134.696
-132.401
-129.911
-141.867
-140.664
-139.52
-138.646
-137.959
-137.328
-136.547
-135.358
-133.432
-131.316
-141.109
-140.173
-139.255
-138.543
-137.992
-137.503
-136.906
-135.985
-134.476
-132.837
-140.513
-139.875
-139.156
-138.542
-138.045
-137.605
-137.093
-136.352
-135.237
-134.16
-140.215
-139.831
-139.237
-138.637
-138.104
-137.611
-137.068
-136.379
-135.537
-134.993
-175.057
-174.486
-173.723
-173.107
-172.719
-172.49
-172.232
-171.691
-170.672
-169.909
-175.595
-174.59
-173.613
-172.957
-172.603
-172.429
-172.189
-171.528
-169.979
-168.197
-176.553
-175.064
-173.765
-172.954
-172.511
-172.254
-171.87
-170.903
-168.647
-165.847
-177.722
-175.808
-174.161
-173.11
-172.471
-172.008
-171.349
-169.959
-166.99
-163.349
-178.872
-176.614
-174.649
-173.348
-172.481
-171.778
-170.82
-169.016
-165.437
-161.146
-179.89
-177.372
-175.146
-173.616
-172.532
-171.599
-170.367
-168.21
-164.15
-159.382
-180.723
-178.021
-175.595
-173.876
-172.608
-171.479
-170.02
-167.583
-163.168
-158.063
-181.353
-178.526
-175.958
-174.098
-172.688
-171.408
-169.778
-167.138
-162.476
-157.145
-181.772
-178.87
-176.212
-174.259
-172.753
-171.372
-169.629
-166.857
-162.04
-156.572
-181.981
-179.044
-176.343
-174.343
-172.789
-171.358
-169.559
-166.723
-161.831
-156.297
-181.981
-179.044
-176.343
-174.343
-172.789
-171.358
-169.559
-166.723
-161.831
-156.297
-181.772
-178.87
-176.212
-174.259
-172.753
-171.372
-169.629
-166.857
-162.04
-156.572
-181.353
-178.526
-175.958
-174.098
-172.688
-171.408
-169.778
-167.138
-162.476
-157.145
-180.723
-178.021
-175.595
-173.876
-172.608
-171.479
-170.02
-167.583
-163.168
-158.063
-179.89
-177.372
-175.146
-173.616
-172.532
-171.599
-170.367
-168.21
-164.15
-159.382
-178.872
-176.614
-174.649
-173.348
-172.481
-171.778
-170.82
-169.016
-165.437
-161.146
-177.722
-175.808
-174.161
-173.11
-172.471
-172.008
-171.349
-169.959
-166.99
-163.349
-176.553
-175.064
-173.765
-172.954
-172.511
-172.254
-171.87
-170.903
-168.647
-165.847
-175.595
-174.59
-173.613
-172.957
-172.603
-172.429
-172.189
-171.528
-169.979
-168.197
-175.057
-174.486
-173.723
-173.107
-172.719
-172.49
-172.232
-171.691
-170.672
-169.909
-209.392
-208.586
-207.673
-207.187
-207.231
-207.695
-208.259
-208.417
-207.586
-206.861
-210.282
-208.784
-207.525
-206.959
-207.024
-207.528
-208.071
-207.974
-206.151
-203.597
-211.74
-209.498
-207.75
-206.95
-206.877
-207.247
-207.561
-206.973
-203.948
-199.684
-213.462
-210.576
-208.317
-207.181
-206.838
-206.928
-206.858
-205.643
-201.466
-195.823
-215.129
-211.729
-209.011
-207.531
-206.889
-206.666
-206.197
-204.396
-199.262
-192.57
-216.592
-212.803
-209.713
-207.926
-207.005
-206.491
-205.668
-203.38
-197.511
-190.053
-217.785
-213.72
-210.346
-208.309
-207.153
-206.396
-205.287
-202.623
-196.217
-188.22
-218.684
-214.432
-210.858
-208.635
-207.3
-206.359
-205.037
-202.105
-195.328
-186.968
-219.283
-214.916
-211.215
-208.87
-207.416
-206.352
-204.892
-201.788
-194.779
-186.196
-219.581
-215.16
-211.398
-208.993
-207.48
-206.355
-204.826
-201.638
-194.519
-185.83
-219.581
-215.16
-211.398
-208.993
-207.48
-206.355
-204.826
-201.638
-194.519
-185.83
-219.283
-214.916
-211.215
-208.87
-207.416
-206.352
-204.892
-201.788
-194.779
-186.196
-218.684
-214.432
-210.858
-208.635
-207.3
-206.359
-205.037
-202.105
-195.328
-186.968
-217.785
-213.72
-210.346
-208.309
-207.153
-206.396
-205.287
-202.623
-196.217
-188.22
-216.592
-212.803
-209.713
-207.926
-207.005
-206.491
-205.668
-203.38
-197.511
-190.053
-215.129
-211.729
-209.011
-207.531
-206.889
-206.666
-206.197
-204.396
-199.262
-192.57
-213.462
-210.576
-208.317
-207.181
-206.838
-206.928
-206.858
-205.643
-201.466
-195.823
-211.74
-209.498
-207.75
-206.95
-206.877
-207.247
-207.561
-206.973
-203.948
-199.684
-210.282
-208.784
-207.525
-206.959
-207.024
-207.528
-208.071
-207.974
-206.151
-203.597
-209.392
-208.586
-207.673
-207.187
-207.231
-207.695
-208.259
-208.417
-207.586
-206.861
-242.716
-241.636
-240.626
-240.493
-241.397
-243.222
-245.533
-247.483
-247.771
-247.66
-244.078
-241.966
-240.433
-240.16
-241.053
-242.878
-245.083
-246.526
-244.9
-241.242
-246.18
-242.985
-240.752
-240.146
-240.838
-242.464
-244.329
-245.016
-241.392
-234.826
-248.597
-244.482
-241.533
-240.478
-240.824
-242.098
-243.468
-243.288
-237.876
-229.064
-250.909
-246.062
-242.484
-240.981
-240.957
-241.856
-242.742
-241.793
-234.953
-224.462
-252.926
-247.527
-243.442
-241.547
-241.186
-241.747
-242.219
-240.656
-232.746
-221.041
-254.566
-248.771
-244.303
-242.094
-241.453
-241.739
-241.885
-239.862
-231.183
-218.625
-255.799
-249.737
-244.998
-242.556
-241.706
-241.785
-241.695
-239.35
-230.144
-217.012
-256.62
-250.392
-245.483
-242.889
-241.901
-241.844
-241.601
-239.052
-229.519
-216.032
-257.029
-250.723
-245.731
-243.063
-242.006
-241.882
-241.565
-238.917
-229.227
-215.572
-257.029
-250.723
-245.731
-243.063
-242.006
-241.882
-241.565
-238.917
-229.227
-215.572
-256.62
-250.392
-245.483
-242.889
-241.901
-241.844
-241.601
-239.052
-229.519
-216.032
-255.799
-249.737
-244.998
-242.556
-241.706
-241.785
-241.695
-239.35
-230.144
-217.012
-254.566
-248.771
-244.303
-242.094
-241.453
-241.739
-241.885
-239.862
-231.183
-218.625
-252.926
-247.527
-243.442
-241.547
-241.186
-241.747
-242.219
-240.657
-232.746
-221.041
-250.909
-246.062
-242.484
-240.981
-240.957
-241.856
-242.742
-241.793
-234.953
-224.462
-248.597
-244.482
-241.533
-240.478
-240.824
-242.098
-243.468
-243.288
-237.876
-229.064
-246.18
-242.985
-240.752
-240.146
-240.838
-242.464
-244.329
-245.016
-241.392
-234.826
-244.078
-241.966
-240.433
-240.16
-241.053
-242.878
-245.083
-246.526
-244.9
-241.242
-242.716
-241.636
-240.626
-240.493
-241.397
-243.222
-245.533
-247.483
-247.771
-247.66
-274.288
-272.916
-271.896
-272.396
-274.705
-278.814
-284.301
-290.069
-293.641
-292.89
-276.226
-273.409
-271.654
-271.934
-274.178
-278.21
-283.435
-288.27
-287.938
-277.232
-279.09
-274.79
-272.083
-271.918
-273.89
-277.643
-282.377
-286.059
-282.258
-264.394
-282.319
-276.773
-273.119
-272.386
-273.944
-277.294
-281.452
-284.027
-277.493
-254.628
-285.382
-278.849
-274.373
-273.088
-274.222
-277.171
-280.812
-282.487
-273.905
-247.437
-288.04
-280.764
-275.632
-273.872
-274.628
-277.229
-280.453
-281.452
-271.384
-242.337
-290.199
-282.387
-276.761
-274.623
-275.073
-277.398
-280.307
-280.819
-269.706
-238.841
-291.82
-283.644
-277.67
-275.257
-275.479
-277.601
-280.288
-280.469
-268.648
-236.548
-292.899
-284.497
-278.303
-275.711
-275.784
-277.774
-280.32
-280.297
-268.038
-235.171
-293.437
-284.928
-278.627
-275.947
-275.947
-277.872
-280.351
-280.229
-267.762
-234.527
-293.437
-284.928
-278.627
-275.947
-275.947
-277.872
-280.351
-280.229
-267.762
-234.527
-292.899
-284.497
-278.303
-275.711
-275.784
-277.774
-280.32
-280.297
-268.038
-235.171
-291.82
-283.644
-277.67
-275.257
-275.479
-277.601
-280.288
-280.469
-268.648
-236.548
-290.199
-282.387
-276.761
-274.623
-275.073
-277.398
-280.307
-280.819
-269.706
-238.841
-288.04
-280.764
-275.632
-273.872
-274.628
-277.23
-280.453
-281.452
-271.384
-242.337
-285.382
-278.849
-274.373
-273.088
-274.222
-277.171
-280.812
-282.487
-273.905
-247.437
-282.319
-276.773
-273.119
-272.386
-273.944
-277.294
-281.452
-284.027
-277.493
-254.628
-279.09
-274.79
-272.083
-271.918
-273.89
-277.643
-282.377
-286.06
-282.258
-264.394
-276.226
-273.409
-271.654
-271.934
-274.178
-278.21
-283.435
-288.27
-287.938
-277.232
-274.288
-272.916
-271.896
-272.396
-274.705
-278.814
-284.301
-290.069
-293.641
-292.89
-303.122
-301.472
-300.547
-301.956
-306.265
-313.877
-324.989
-339.556
-356.285
-363.37
-305.69
-302.148
-300.257
-301.363
-305.559
-313.044
-323.851
-337.521
-349.791
-337.999
-309.374
-303.92
-300.816
-301.373
-305.258
-312.469
-322.845
-335.581
-344.646
-320.326
-313.47
-306.423
-302.135
-302.022
-305.475
-312.349
-322.334
-334.404
-341.499
-309.463
-317.334
-309.029
-303.724
-302.972
-305.995
-312.555
-322.242
-333.882
-339.717
-302.444
-320.679
-311.426
-305.313
-304.019
-306.668
-312.966
-322.441
-333.817
-338.838
-297.895
-323.392
-313.454
-306.735
-305.015
-307.364
-313.459
-322.79
-334.013
-338.511
-295
-325.431
-315.023
-307.878
-305.848
-307.977
-313.927
-323.164
-334.301
-338.47
-293.216
-326.786
-316.088
-308.673
-306.443
-308.428
-314.286
-323.468
-334.56
-338.534
-292.195
-327.462
-316.625
-309.079
-306.752
-308.667
-314.479
-323.636
-334.709
-338.593
-291.732
-327.462
-316.625
-309.079
-306.752
-308.667
-314.479
-323.636
-334.709
-338.593
-291.732
-326.786
-316.088
-308.673
-306.443
-308.428
-314.286
-323.468
-334.56
-338.534
-292.195
-325.431
-315.023
-307.878
-305.848
-307.977
-313.927
-323.164
-334.301
-338.47
-293.216
-323.392
-313.454
-306.735
-305.015
-307.364
-313.459
-322.79
-334.013
-338.511
-295
-320.679
-311.426
-305.313
-304.019
-306.668
-312.966
-322.441
-333.817
-338.838
-297.895
-317.334
-309.029
-303.724
-302.972
-305.995
-312.556
-322.242
-333.882
-339.717
-302.444
-313.47
-306.423
-302.135
-302.022
-305.475
-312.349
-322.334
-334.404
-341.499
-309.463
-309.374
-303.92
-300.816
-301.373
-305.258
-312.469
-322.845
-335.581
-344.646
-320.326
-305.69
-302.148
-300.257
-301.363
-305.559
-313.045
-323.851
-337.521
-349.791
-337.999
-303.122
-301.472
-300.547
-301.956
-306.265
-313.877
-324.989
-339.556
-356.285
-363.37
-328.063
-326.169
-325.377
-327.763
-334.299
-346.177
-365.208
-394.561
-439.782
-512.938
-331.226
-327.02
-325.054
-327.08
-333.522
-345.422
-364.613
-394.484
-441.372
-520.365
-335.687
-329.169
-325.756
-327.169
-333.358
-345.256
-364.786
-395.782
-445.624
-530.509
-340.611
-332.175
-327.364
-328.04
-333.861
-345.704
-365.596
-397.777
-450.574
-541.451
-345.243
-335.291
-329.286
-329.267
-334.718
-346.499
-366.737
-400
-455.378
-551.495
-349.252
-338.155
-331.203
-330.597
-335.725
-347.453
-367.999
-402.188
-459.683
-560.03
-352.502
-340.575
-332.915
-331.849
-336.719
-348.408
-369.209
-404.14
-463.281
-566.859
-354.945
-342.447
-334.288
-332.889
-337.57
-349.234
-370.23
-405.711
-466.05
-571.942
-356.57
-343.717
-335.242
-333.629
-338.187
-349.836
-370.962
-406.806
-467.921
-575.3
-357.381
-344.357
-335.73
-334.012
-338.51
-350.152
-371.343
-407.368
-468.864
-576.969
-357.381
-344.357
-335.73
-334.012
-338.51
-350.152
-371.343
-407.368
-468.864
-576.969
-356.57
-343.717
-335.242
-333.629
-338.187
-349.836
-370.962
-406.806
-467.921
-575.3
-354.945
-342.447
-334.288
-332.889
-337.57
-349.234
-370.23
-405.711
-466.05
-571.942
-352.502
-340.575
-332.915
-331.849
-336.719
-348.408
-369.209
-404.14
-463.281
-566.859
-349.252
-338.155
-331.203
-330.597
-335.725
-347.453
-367.999
-402.188
-459.683
-560.03
-345.243
-335.291
-329.286
-329.267
-334.718
-346.499
-366.737
-400
-455.378
-551.495
-340.611
-332.175
-327.364
-328.04
-333.861
-345.704
-365.596
-397.777
-450.574
-541.45
-335.687
-329.169
-325.756
-327.169
-333.358
-345.256
-364.786
-395.782
-445.624
-530.509
-331.226
-327.02
-325.054
-327.08
-333.522
-345.422
-364.613
-394.483
-441.371
-520.365
-328.063
-326.169
-325.377
-327.763
-334.299
-346.177
-365.208
-394.561
-439.782
-512.938
-347.972
-345.848
-345.031
-347.872
-355.45
-369.031
-390.3
-421.632
-466.225
-529.187
-351.588
-346.824
-344.66
-347.071
-354.5
-368.017
-389.252
-420.634
-465.787
-530.838
-356.668
-349.268
-345.455
-347.159
-354.269
-367.699
-389.068
-420.94
-467.283
-534.572
-362.269
-352.68
-347.28
-348.155
-354.848
-368.186
-389.822
-422.498
-470.562
-540.973
-367.539
-356.219
-349.465
-349.563
-355.848
-369.11
-391.051
-424.576
-474.366
-547.832
-372.106
-359.471
-351.644
-351.089
-357.023
-370.229
-392.462
-426.762
-478.066
-554.133
-375.812
-362.221
-353.589
-352.524
-358.18
-371.349
-393.834
-428.778
-481.306
-559.427
-378.601
-364.35
-355.15
-353.716
-359.169
-372.315
-394.997
-430.431
-483.87
-563.494
-380.458
-365.794
-356.234
-354.562
-359.884
-373.018
-395.834
-431.594
-485.634
-566.237
-381.385
-366.523
-356.788
-355
-360.258
-373.387
-396.27
-432.193
-486.53
-567.615
-381.385
-366.523
-356.788
-355
-360.258
-373.387
-396.27
-432.193
-486.53
-567.615
-380.458
-365.794
-356.234
-354.562
-359.884
-373.018
-395.834
-431.594
-485.634
-566.237
-378.601
-364.35
-355.15
-353.716
-359.169
-372.315
-394.997
-430.431
-483.87
-563.494
-375.812
-362.221
-353.589
-352.524
-358.18
-371.349
-393.834
-428.778
-481.306
-559.427
-372.106
-359.471
-351.644
-351.089
-357.023
-370.229
-392.462
-426.762
-478.066
-554.133
-367.539
-356.219
-349.465
-349.563
-355.848
-369.11
-391.051
-424.576
-474.366
-547.832
-362.269
-352.68
-347.28
-348.155
-354.848
-368.186
-389.822
-422.498
-470.562
-540.973
-356.668
-349.268
-345.455
-347.159
-354.269
-367.699
-389.068
-420.94
-467.283
-534.572
-351.588
-346.824
-344.66
-347.071
-354.5
-368.017
-389.252
-420.634
-465.787
-530.838
-347.972
-345.848
-345.031
-347.872
-355.45
-369.031
-390.3
-421.632
-466.225
-529.187
-362.066
-359.762
-358.786
-361.599
-369.238
-382.804
-403.542
-432.858
-472.101
-522.437
-365.939
-360.801
-358.375
-360.717
-368.178
-381.644
-402.28
-431.495
-470.77
-521.375
-371.411
-363.433
-359.226
-360.795
-367.888
-381.205
-401.858
-431.287
-471.075
-522.518
-377.467
-367.121
-361.197
-361.862
-368.481
-381.639
-402.433
-432.368
-473.149
-526.146
-383.184
-370.955
-363.561
-363.378
-369.534
-382.552
-403.536
-434.05
-475.914
-530.559
-388.15
-374.486
-365.921
-365.023
-370.779
-383.687
-404.864
-435.931
-478.788
-534.906
-392.19
-377.476
-368.029
-366.572
-372.01
-384.835
-406.187
-437.727
-481.411
-538.731
-395.234
-379.793
-369.723
-367.859
-373.064
-385.834
-407.324
-439.23
-483.543
-541.763
-397.263
-381.366
-370.9
-368.773
-373.827
-386.562
-408.149
-440.301
-485.034
-543.849
-398.276
-382.16
-371.501
-369.246
-374.226
-386.945
-408.581
-440.857
-485.799
-544.909
-398.276
-382.16
-371.501
-369.246
-374.226
-386.945
-408.581
-440.857
-485.799
-544.909
-397.263
-381.366
-370.9
-368.773
-373.827
-386.562
-408.149
-440.302
-485.034
-543.849
-395.234
-379.793
-369.723
-367.859
-373.064
-385.834
-407.324
-439.23
-483.543
-541.763
-392.19
-377.476
-368.029
-366.572
-372.01
-384.835
-406.187
-437.727
-481.411
-538.731
-388.15
-374.486
-365.921
-365.023
-370.78
-383.687
-404.864
-435.931
-478.788
-534.906
-383.184
-370.955
-363.561
-363.378
-369.534
-382.552
-403.536
-434.05
-475.914
-530.559
-377.467
-367.121
-361.197
-361.862
-368.481
-381.639
-402.433
-432.368
-473.149
-526.146
-371.411
-363.433
-359.226
-360.795
-367.888
-381.205
-401.858
-431.287
-471.075
-522.518
-365.939
-360.801
-358.375
-360.717
-368.178
-381.644
-402.28
-431.495
-470.77
-521.375
-362.066
-359.762
-358.786
-361.599
-369.238
-382.804
-403.542
-432.858
-472.101
-522.437
-369.986
-367.579
-366.377
-368.815
-375.829
-388.292
-407.018
-432.69
-465.609
-505.325
-373.913
-368.619
-365.936
-367.892
-374.724
-387.085
-405.701
-431.239
-464.051
-503.727
-379.53
-371.323
-366.807
-367.959
-374.396
-386.572
-405.138
-430.751
-463.804
-503.896
-385.794
-375.142
-368.847
-369.05
-374.969
-386.922
-405.515
-431.411
-465.038
-505.985
-391.738
-379.129
-371.302
-370.61
-376.015
-387.757
-406.414
-432.659
-466.944
-508.832
-396.921
-382.812
-373.758
-372.306
-377.263
-388.825
-407.561
-434.151
-469.061
-511.817
-401.15
-385.939
-375.956
-373.905
-378.502
-389.923
-408.736
-435.628
-471.07
-514.551
-404.344
-388.366
-377.723
-375.235
-379.565
-390.885
-409.763
-436.893
-472.746
-516.779
-406.476
-390.015
-378.951
-376.18
-380.336
-391.59
-410.515
-437.807
-473.937
-518.339
-407.541
-390.848
-379.58
-376.669
-380.74
-391.962
-410.911
-438.285
-474.554
-519.139
-407.541
-390.848
-379.58
-376.669
-380.74
-391.962
-410.911
-438.285
-474.554
-519.139
-406.476
-390.015
-378.951
-376.18
-380.336
-391.59
-410.515
-437.807
-473.937
-518.339
-404.344
-388.366
-377.723
-375.235
-379.565
-390.885
-409.763
-436.893
-472.746
-516.779
-401.15
-385.939
-375.956
-373.905
-378.502
-389.923
-408.736
-435.628
-471.07
-514.551
-396.921
-382.812
-373.758
-372.306
-377.263
-388.825
-407.561
-434.151
-469.061
-511.817
-391.738
-379.129
-371.302
-370.61
-376.015
-387.757
-406.414
-432.659
-466.944
-508.832
-385.794
-375.142
-368.847
-369.05
-374.969
-386.922
-405.515
-431.411
-465.038
-505.985
-379.53
-371.323
-366.807
-367.959
-374.396
-386.572
-405.138
-430.751
-463.804
-503.896
-373.913
-368.619
-365.936
-367.892
-374.724
-387.085
-405.701
-431.239
-464.051
-503.727
-369.986
-367.579
-366.377
-368.815
-375.829
-388.292
-407.018
-432.69
-465.609
-505.325
-371.765
-369.341
-367.91
-369.787
-375.793
-386.59
-402.659
-424.214
-451.021
-482.102
-375.57
-370.33
-367.453
-368.861
-374.699
-385.412
-401.396
-422.838
-449.527
-480.525
-381.106
-373
-368.312
-368.919
-374.357
-384.872
-400.77
-422.21
-448.989
-480.175
-387.343
-376.811
-370.35
-370
-374.895
-385.141
-400.979
-422.539
-449.612
-481.241
-393.301
-380.813
-372.814
-371.55
-375.899
-385.874
-401.672
-423.398
-450.831
-482.969
-398.523
-384.526
-375.285
-373.24
-377.105
-386.84
-402.613
-424.513
-452.3
-484.922
-402.798
-387.687
-377.501
-374.835
-378.306
-387.846
-403.607
-425.664
-453.759
-486.794
-406.036
-390.146
-379.286
-376.164
-379.341
-388.736
-404.491
-426.674
-455.01
-488.365
-408.201
-391.819
-380.528
-377.109
-380.093
-389.391
-405.145
-427.415
-455.916
-489.486
-409.284
-392.665
-381.163
-377.598
-380.486
-389.738
-405.491
-427.805
-456.389
-490.067
-409.284
-392.665
-381.163
-377.598
-380.486
-389.738
-405.491
-427.805
-456.389
-490.067
-408.201
-391.819
-380.528
-377.109
-380.093
-389.391
-405.145
-427.415
-455.916
-489.486
-406.036
-390.146
-379.286
-376.164
-379.341
-388.736
-404.491
-426.674
-455.01
-488.365
-402.798
-387.687
-377.501
-374.835
-378.307
-387.846
-403.607
-425.664
-453.759
-486.794
-398.523
-384.526
-375.285
-373.24
-377.105
-386.84
-402.613
-424.513
-452.3
-484.922
-393.301
-380.813
-372.814
-371.55
-375.899
-385.874
-401.672
-423.398
-450.831
-482.969
-387.343
-376.811
-370.35
-370
-374.895
-385.141
-400.979
-422.539
-449.612
-481.241
-381.106
-373
-368.312
-368.919
-374.357
-384.872
-400.77
-422.21
-448.989
-480.175
-375.57
-370.331
-367.453
-368.861
-374.699
-385.412
-401.396
-422.838
-449.527
-480.525
-371.765
-369.341
-367.91
-369.787
-375.793
-386.59
-402.659
-424.214
-451.021
-482.102
-367.733
-365.374
-363.761
-365.027
-369.89
-378.851
-392.169
-409.805
-431.308
-455.661
-371.285
-366.275
-363.299
-364.128
-368.846
-377.752
-391.021
-408.585
-430.002
-454.283
-376.56
-368.824
-364.12
-364.179
-368.512
-377.223
-390.4
-407.932
-429.369
-453.723
-382.575
-372.511
-366.097
-365.222
-369.012
-377.43
-390.493
-408.044
-429.612
-454.177
-388.365
-376.41
-368.5
-366.723
-369.955
-378.066
-391.015
-408.61
-430.349
-455.17
-393.467
-380.044
-370.918
-368.362
-371.094
-378.923
-391.772
-409.419
-431.332
-456.403
-397.664
-383.149
-373.091
-369.913
-372.232
-379.826
-392.594
-410.291
-432.358
-457.648
-400.851
-385.57
-374.844
-371.205
-373.213
-380.629
-393.337
-411.076
-433.266
-458.725
-402.987
-387.22
-376.065
-372.125
-373.927
-381.223
-393.892
-411.66
-433.934
-459.51
-404.056
-388.055
-376.691
-372.601
-374.301
-381.538
-394.187
-411.97
-434.287
-459.921
-404.057
-388.055
-376.691
-372.601
-374.301
-381.538
-394.187
-411.97
-434.287
-459.921
-402.987
-387.22
-376.065
-372.125
-373.927
-381.224
-393.892
-411.66
-433.934
-459.51
-400.851
-385.57
-374.844
-371.205
-373.213
-380.629
-393.337
-411.076
-433.266
-458.725
-397.664
-383.149
-373.091
-369.913
-372.232
-379.826
-392.594
-410.291
-432.358
-457.648
-393.467
-380.044
-370.918
-368.362
-371.094
-378.923
-391.772
-409.419
-431.332
-456.403
-388.365
-376.41
-368.5
-366.723
-369.955
-378.066
-391.015
-408.61
-430.349
-455.17
-382.575
-372.511
-366.097
-365.222
-369.012
-377.43
-390.493
-408.044
-429.612
-454.177
-376.56
-368.824
-364.12
-364.179
-368.512
-377.223
-390.4
-407.932
-429.369
-453.723
-371.285
-366.275
-363.299
-364.128
-368.846
-377.752
-391.021
-408.585
-430.002
-454.283
-367.733
-365.374
-363.761
-365.027
-369.89
-378.851
-392.17
-409.805
-431.308
-455.661
-358.409
-356.181
-354.457
-355.156
-358.909
-366.105
-376.875
-391.067
-408.192
-427.366
-361.627
-356.973
-354
-354.304
-357.939
-365.107
-375.866
-390.028
-407.109
-426.242
-366.515
-359.341
-354.765
-354.35
-357.626
-364.616
-375.288
-389.415
-406.494
-425.654
-372.162
-362.815
-356.637
-355.335
-358.088
-364.781
-375.313
-389.405
-406.527
-425.78
-377.643
-366.517
-358.922
-356.758
-358.962
-365.333
-375.709
-389.771
-406.953
-426.323
-382.503
-369.986
-361.232
-358.314
-360.02
-366.088
-376.317
-390.352
-407.598
-427.084
-386.518
-372.961
-363.314
-359.788
-361.079
-366.89
-376.992
-391.007
-408.31
-427.898
-389.578
-375.287
-364.996
-361.019
-361.994
-367.606
-377.611
-391.61
-408.959
-428.627
-391.633
-376.876
-366.169
-361.895
-362.66
-368.138
-378.077
-392.066
-409.446
-429.168
-392.664
-377.681
-366.771
-362.349