/*--------------------------------*- C++ -*----------------------------------*\
  =========                 |
  \\      /  F ield         | OpenFOAM: The Open Source CFD Toolbox
   \\    /   O peration     | Website:  https://openfoam.org
    \\  /    A nd           | Version:  6
     \\/     M anipulation  |
\*---------------------------------------------------------------------------*/
FoamFile
{
    version     2.0;
    format      ascii;
    class       volScalarField;
    location    "0.06";
    object      X;
}
// * * * * * * * * * * * * * * * * * * * * * * * * * * * * * * * * * * * * * //

dimensions      [0 1 0 0 0 0 0];

internalField   nonuniform List<scalar> 
56000
(
-0.208089
-0.209436
-0.211869
-0.2151
-0.218838
-0.222804
-0.226739
-0.230405
-0.233588
-0.236095
-0.237756
-0.238419
-0.237952
-0.236241
-0.233191
-0.228724
-0.22278
-0.215323
-0.206337
-0.195834
-0.183856
-0.17048
-0.15582
-0.140029
-0.123305
-0.105887
-0.0880532
-0.0701148
-0.0524075
-0.0352795
-0.0190789
-0.00413888
0.00923492
0.0207756
0.0302623
0.037523
0.042433
0.0449106
-0.209159
-0.210656
-0.213299
-0.216758
-0.220723
-0.224906
-0.229042
-0.232892
-0.236241
-0.238896
-0.240687
-0.241464
-0.241094
-0.239465
-0.23648
-0.23206
-0.226146
-0.218697
-0.209696
-0.199153
-0.187107
-0.173632
-0.158839
-0.142882
-0.125959
-0.108313
-0.0902276
-0.0720205
-0.0540374
-0.0366371
-0.0201783
-0.00500429
0.00857183
0.0202784
0.029893
0.0372453
0.0422145
0.0447222
-0.21104
-0.212744
-0.215699
-0.219515
-0.223846
-0.228385
-0.232858
-0.237018
-0.240648
-0.243556
-0.245571
-0.246544
-0.246343
-0.244856
-0.241985
-0.237651
-0.23179
-0.224361
-0.215342
-0.204737
-0.192581
-0.178942
-0.16393
-0.147697
-0.130443
-0.112414
-0.0939039
-0.0752438
-0.056795
-0.0389348
-0.0220403
-0.00647162
0.00744487
0.0194294
0.0292574
0.0367614
0.0418266
0.0443811
-0.213446
-0.215371
-0.218674
-0.222902
-0.227668
-0.232638
-0.237521
-0.242064
-0.246045
-0.249269
-0.251567
-0.252788
-0.252802
-0.251497
-0.248773
-0.244551
-0.238766
-0.231368
-0.222333
-0.211659
-0.199374
-0.18554
-0.170262
-0.153692
-0.136028
-0.117526
-0.0984892
-0.0792649
-0.0602351
-0.0418007
-0.0243624
-0.00830185
0.0060377
0.0183664
0.0284568
0.0361454
0.0413256
0.0439346
-0.216094
-0.218231
-0.221879
-0.226524
-0.231738
-0.237158
-0.242477
-0.24743
-0.251789
-0.255356
-0.257961
-0.259453
-0.259704
-0.2586
-0.256042
-0.251948
-0.24625
-0.238895
-0.229852
-0.219112
-0.206696
-0.192661
-0.177105
-0.160176
-0.142076
-0.123066
-0.10346
-0.0836245
-0.0639645
-0.0449063
-0.0268775
-0.0102835
0.00451362
0.017213
0.0275843
0.0354687
0.0407692
0.043434
-0.218726
-0.221052
-0.225014
-0.230047
-0.235682
-0.241533
-0.247271
-0.252621
-0.257348
-0.261252
-0.264159
-0.265921
-0.266406
-0.265503
-0.263113
-0.25915
-0.253544
-0.246238
-0.237196
-0.226401
-0.213867
-0.199643
-0.183822
-0.166548
-0.148026
-0.128519
-0.108356
-0.0879195
-0.0676382
-0.0479644
-0.0293525
-0.0122325
0.00301482
0.0160775
0.0267227
0.0347965
0.040212
0.0429291
-0.221115
-0.223599
-0.227828
-0.233194
-0.239197
-0.245424
-0.251533
-0.257236
-0.262293
-0.266499
-0.269679
-0.271684
-0.272383
-0.271665
-0.269428
-0.265588
-0.26007
-0.252815
-0.243779
-0.232941
-0.220309
-0.205922
-0.18987
-0.172293
-0.153394
-0.133443
-0.112779
-0.0918015
-0.0709585
-0.0507275
-0.0315876
-0.0139916
0.00166251
0.0150524
0.0259432
0.0341858
0.0397029
0.0424656
-0.223074
-0.225682
-0.230118
-0.235746
-0.24204
-0.248569
-0.254976
-0.260964
-0.266288
-0.27074
-0.274142
-0.276346
-0.277222
-0.276655
-0.274546
-0.270808
-0.265366
-0.258156
-0.24913
-0.238263
-0.225555
-0.211042
-0.194807
-0.176986
-0.157783
-0.137473
-0.116401
-0.0949806
-0.0736778
-0.0529898
-0.0334169
-0.0154305
0.00055669
0.014214
0.0253048
0.0336842
0.0392831
0.042082
-0.224461
-0.227152
-0.231731
-0.237539
-0.244035
-0.250772
-0.257387
-0.263575
-0.269087
-0.273711
-0.277271
-0.279615
-0.280615
-0.280156
-0.278139
-0.274475
-0.269087
-0.261911
-0.252896
-0.242011
-0.229252
-0.214653
-0.19829
-0.180301
-0.160886
-0.140323
-0.118963
-0.0972305
-0.0756023
-0.0545908
-0.034711
-0.0164481
-0.000225102
0.0136212
0.024853
0.0333286
0.0389847
0.0418089
-0.225179
-0.227912
-0.232563
-0.238463
-0.245061
-0.251906
-0.258627
-0.264918
-0.270526
-0.275239
-0.27888
-0.281298
-0.282362
-0.281959
-0.279989
-0.276364
-0.271005
-0.263847
-0.254838
-0.243944
-0.231161
-0.216518
-0.200091
-0.182014
-0.162491
-0.141797
-0.12029
-0.0983953
-0.0765988
-0.0554196
-0.0353809
-0.0169747
-0.000629595
0.0133145
0.0246192
0.0331444
0.0388299
0.0416669
-0.225179
-0.227912
-0.232563
-0.238463
-0.245061
-0.251906
-0.258627
-0.264918
-0.270526
-0.275239
-0.27888
-0.281298
-0.282362
-0.281959
-0.279989
-0.276364
-0.271005
-0.263847
-0.254838
-0.243944
-0.231161
-0.216518
-0.200091
-0.182014
-0.162491
-0.141797
-0.12029
-0.0983953
-0.0765988
-0.0554196
-0.0353809
-0.0169747
-0.000629596
0.0133145
0.0246192
0.0331444
0.0388299
0.0416669
-0.224461
-0.227152
-0.231731
-0.237539
-0.244035
-0.250772
-0.257387
-0.263575
-0.269087
-0.273711
-0.277271
-0.279615
-0.280615
-0.280156
-0.278139
-0.274475
-0.269087
-0.261911
-0.252896
-0.242011
-0.229252
-0.214653
-0.198291
-0.180301
-0.160886
-0.140323
-0.118964
-0.0972305
-0.0756024
-0.0545908
-0.034711
-0.0164481
-0.000225104
0.0136212
0.024853
0.0333286
0.0389847
0.0418089
-0.223074
-0.225682
-0.230118
-0.235746
-0.24204
-0.248569
-0.254975
-0.260964
-0.266288
-0.27074
-0.274142
-0.276346
-0.277222
-0.276655
-0.274546
-0.270808
-0.265366
-0.258156
-0.24913
-0.238264
-0.225555
-0.211042
-0.194807
-0.176986
-0.157784
-0.137473
-0.116401
-0.0949807
-0.0736778
-0.0529898
-0.0334169
-0.0154305
0.000556687
0.014214
0.0253048
0.0336842
0.0392831
0.042082
-0.221115
-0.223599
-0.227828
-0.233194
-0.239197
-0.245424
-0.251533
-0.257236
-0.262293
-0.266499
-0.269679
-0.271684
-0.272383
-0.271665
-0.269428
-0.265588
-0.26007
-0.252815
-0.243779
-0.232941
-0.220309
-0.205922
-0.18987
-0.172293
-0.153394
-0.133443
-0.112779
-0.0918015
-0.0709585
-0.0507275
-0.0315876
-0.0139916
0.00166251
0.0150524
0.0259432
0.0341858
0.0397029
0.0424656
-0.218726
-0.221052
-0.225014
-0.230047
-0.235682
-0.241533
-0.247271
-0.252621
-0.257348
-0.261252
-0.264159
-0.265921
-0.266406
-0.265503
-0.263113
-0.25915
-0.253544
-0.246238
-0.237196
-0.226401
-0.213867
-0.199643
-0.183822
-0.166548
-0.148026
-0.128519
-0.108356
-0.0879195
-0.0676382
-0.0479644
-0.0293525
-0.0122325
0.00301481
0.0160775
0.0267226
0.0347965
0.040212
0.0429291
-0.216094
-0.218231
-0.221879
-0.226524
-0.231738
-0.237158
-0.242477
-0.24743
-0.251789
-0.255356
-0.257961
-0.259453
-0.259704
-0.2586
-0.256042
-0.251948
-0.24625
-0.238895
-0.229852
-0.219112
-0.206696
-0.192661
-0.177105
-0.160176
-0.142076
-0.123066
-0.10346
-0.0836246
-0.0639645
-0.0449064
-0.0268775
-0.0102835
0.00451362
0.017213
0.0275843
0.0354687
0.0407692
0.043434
-0.213446
-0.215371
-0.218674
-0.222902
-0.227668
-0.232638
-0.237521
-0.242064
-0.246045
-0.249269
-0.251567
-0.252788
-0.252802
-0.251497
-0.248773
-0.244551
-0.238766
-0.231368
-0.222333
-0.211659
-0.199374
-0.18554
-0.170262
-0.153692
-0.136028
-0.117526
-0.0984892
-0.0792649
-0.0602352
-0.0418007
-0.0243624
-0.00830186
0.00603769
0.0183664
0.0284568
0.0361454
0.0413256
0.0439346
-0.21104
-0.212744
-0.215699
-0.219515
-0.223846
-0.228386
-0.232858
-0.237018
-0.240648
-0.243556
-0.245571
-0.246544
-0.246343
-0.244856
-0.241985
-0.237651
-0.23179
-0.224361
-0.215342
-0.204737
-0.192581
-0.178942
-0.16393
-0.147697
-0.130443
-0.112414
-0.0939039
-0.0752438
-0.056795
-0.0389348
-0.0220403
-0.00647163
0.00744486
0.0194294
0.0292574
0.0367614
0.0418266
0.0443811
-0.209159
-0.210656
-0.213299
-0.216758
-0.220723
-0.224906
-0.229042
-0.232892
-0.236241
-0.238896
-0.240687
-0.241464
-0.241094
-0.239465
-0.23648
-0.23206
-0.226146
-0.218697
-0.209696
-0.199153
-0.187107
-0.173632
-0.158839
-0.142882
-0.125959
-0.108313
-0.0902276
-0.0720206
-0.0540374
-0.0366371
-0.0201784
-0.00500429
0.00857182
0.0202784
0.029893
0.0372453
0.0422145
0.0447222
-0.208089
-0.209436
-0.211869
-0.2151
-0.218838
-0.222804
-0.226739
-0.230405
-0.233588
-0.236095
-0.237756
-0.238419
-0.237952
-0.236241
-0.233191
-0.228724
-0.22278
-0.215323
-0.206337
-0.195834
-0.183857
-0.17048
-0.15582
-0.140029
-0.123305
-0.105887
-0.0880532
-0.0701149
-0.0524075
-0.0352795
-0.0190789
-0.00413888
0.00923492
0.0207756
0.0302623
0.037523
0.042433
0.0449106
-0.208123
-0.209469
-0.211901
-0.21513
-0.218864
-0.222825
-0.226754
-0.230413
-0.233588
-0.236087
-0.237741
-0.238397
-0.237926
-0.236216
-0.233173
-0.228721
-0.222804
-0.21539
-0.206466
-0.19605
-0.184188
-0.17096
-0.156483
-0.140914
-0.12445
-0.107328
-0.0898219
-0.072235
-0.054893
-0.0381323
-0.0222876
-0.0076791
0.00539982
0.0166918
0.0259822
0.0331012
0.0379225
0.0403592
-0.209194
-0.21069
-0.213332
-0.216789
-0.22075
-0.224928
-0.229058
-0.232901
-0.236242
-0.238888
-0.240671
-0.24144
-0.241066
-0.239435
-0.236454
-0.232047
-0.226157
-0.218748
-0.209806
-0.199347
-0.187413
-0.174083
-0.159472
-0.143737
-0.127077
-0.109731
-0.0919785
-0.0741305
-0.0565215
-0.039498
-0.0234045
-0.00856999
0.00470505
0.0161592
0.0255767
0.0327892
0.0376731
0.0401434
-0.211077
-0.21278
-0.215734
-0.219548
-0.223875
-0.22841
-0.232875
-0.237028
-0.240649
-0.243548
-0.245554
-0.246518
-0.24631
-0.244818
-0.241948
-0.237622
-0.231781
-0.224386
-0.21542
-0.204893
-0.192843
-0.179345
-0.164513
-0.148502
-0.131512
-0.113789
-0.0956216
-0.0773329
-0.0592731
-0.0418054
-0.0252917
-0.0100763
0.00352858
0.0152544
0.0248834
0.0322495
0.037234
0.0397554
-0.213484
-0.215409
-0.218712
-0.222937
-0.2277
-0.232664
-0.237541
-0.242076
-0.246047
-0.249262
-0.251548
-0.252759
-0.252763
-0.25145
-0.248724
-0.244505
-0.238732
-0.231362
-0.222372
-0.211768
-0.199582
-0.185883
-0.170781
-0.15443
-0.137034
-0.118845
-0.100161
-0.0813231
-0.0627004
-0.0446781
-0.0276401
-0.0119501
0.00206449
0.0141261
0.0240144
0.0315665
0.0366703
0.0392503
-0.216134
-0.218271
-0.221918
-0.226562
-0.231772
-0.237188
-0.2425
-0.247444
-0.251793
-0.255349
-0.257942
-0.259422
-0.259661
-0.258546
-0.25598
-0.251884
-0.246192
-0.238856
-0.22985
-0.219171
-0.206846
-0.192938
-0.177552
-0.160841
-0.143009
-0.124318
-0.105077
-0.0856437
-0.0664099
-0.0477853
-0.0301778
-0.0139734
0.000483739
0.0129062
0.0230713
0.0308199
0.0360474
0.0386867
-0.218768
-0.221094
-0.225056
-0.230087
-0.235719
-0.241565
-0.247296
-0.252638
-0.257355
-0.261247
-0.264141
-0.265888
-0.26636
-0.265443
-0.263041
-0.25907
-0.253464
-0.246169
-0.237155
-0.226411
-0.213958
-0.199853
-0.184196
-0.167137
-0.148884
-0.129701
-0.109913
-0.0898945
-0.0700583
-0.050839
-0.0326697
-0.0159584
-0.00106627
0.0117094
0.0221434
0.0300812
0.0354262
0.0381205
-0.221159
-0.223644
-0.227872
-0.233236
-0.239236
-0.245459
-0.251561
-0.257256
-0.262302
-0.266496
-0.269662
-0.271652
-0.272335
-0.271599
-0.269347
-0.265495
-0.259971
-0.252719
-0.243704
-0.232909
-0.220348
-0.206073
-0.190178
-0.172812
-0.154182
-0.13456
-0.11428
-0.0937322
-0.0733511
-0.0535935
-0.0349154
-0.0177457
-0.0024611
0.010632
0.0213067
0.0294123
0.0348605
0.0376024
-0.22312
-0.225728
-0.230164
-0.23579
-0.242082
-0.248606
-0.255006
-0.260986
-0.266299
-0.270738
-0.274127
-0.276315
-0.277172
-0.276587
-0.27446
-0.270706
-0.265252
-0.25804
-0.249028
-0.238196
-0.225553
-0.211144
-0.19506
-0.177446
-0.158512
-0.138532
-0.117851
-0.0968718
-0.0760444
-0.0558454
-0.0367502
-0.0192048
-0.00359917
0.00975299
0.0206231
0.0288643
0.0343952
0.0371748
-0.224508
-0.227199
-0.231778
-0.237585
-0.244077
-0.250811
-0.257418
-0.263599
-0.2691
-0.273711
-0.277256
-0.279584
-0.280565
-0.280086
-0.278049
-0.274366
-0.268964
-0.261782
-0.252775
-0.241919
-0.229221
-0.21472
-0.198504
-0.180719
-0.161571
-0.141341
-0.120377
-0.099092
-0.0779489
-0.0574373
-0.0380466
-0.0202352
-0.00440239
0.00913263
0.0201404
0.0284767
0.0340652
0.0368708
-0.225227
-0.22796
-0.232611
-0.23851
-0.245105
-0.251945
-0.25866
-0.264942
-0.27054
-0.275241
-0.278867
-0.281267
-0.282312
-0.281888
-0.279897
-0.276252
-0.270877
-0.263711
-0.254707
-0.243841
-0.231114
-0.216567
-0.200284
-0.18241
-0.163153
-0.142793
-0.121683
-0.100241
-0.0789343
-0.0582608
-0.038717
-0.0207679
-0.00481753
0.00881204
0.0198908
0.0282761
0.0338942
0.0367131
-0.225227
-0.22796
-0.232611
-0.23851
-0.245105
-0.251945
-0.25866
-0.264942
-0.27054
-0.275241
-0.278867
-0.281267
-0.282312
-0.281888
-0.279897
-0.276252
-0.270877
-0.263711
-0.254707
-0.243841
-0.231114
-0.216567
-0.200284
-0.18241
-0.163153
-0.142793
-0.121683
-0.100241
-0.0789343
-0.0582608
-0.038717
-0.0207679
-0.00481754
0.00881204
0.0198908
0.0282761
0.0338942
0.0367131
-0.224508
-0.227199
-0.231778
-0.237585
-0.244077
-0.250811
-0.257418
-0.263599
-0.2691
-0.273711
-0.277256
-0.279584
-0.280565
-0.280086
-0.278049
-0.274366
-0.268964
-0.261782
-0.252775
-0.241919
-0.229221
-0.21472
-0.198504
-0.180719
-0.161571
-0.141341
-0.120377
-0.099092
-0.0779489
-0.0574373
-0.0380466
-0.0202352
-0.0044024
0.00913263
0.0201404
0.0284767
0.0340652
0.0368708
-0.22312
-0.225728
-0.230164
-0.235791
-0.242082
-0.248606
-0.255006
-0.260986
-0.266299
-0.270738
-0.274127
-0.276315
-0.277172
-0.276587
-0.27446
-0.270706
-0.265252
-0.25804
-0.249028
-0.238196
-0.225553
-0.211144
-0.19506
-0.177446
-0.158512
-0.138532
-0.117851
-0.0968718
-0.0760444
-0.0558454
-0.0367502
-0.0192048
-0.00359917
0.00975298
0.0206231
0.0288643
0.0343952
0.0371748
-0.221159
-0.223644
-0.227872
-0.233236
-0.239236
-0.245459
-0.251561
-0.257256
-0.262302
-0.266496
-0.269662
-0.271652
-0.272335
-0.271599
-0.269348
-0.265495
-0.259971
-0.252719
-0.243704
-0.232909
-0.220348
-0.206073
-0.190178
-0.172812
-0.154182
-0.13456
-0.11428
-0.0937322
-0.0733511
-0.0535935
-0.0349154
-0.0177457
-0.00246111
0.010632
0.0213067
0.0294123
0.0348605
0.0376024
-0.218768
-0.221094
-0.225056
-0.230087
-0.235719
-0.241565
-0.247296
-0.252638
-0.257355
-0.261247
-0.264141
-0.265888
-0.26636
-0.265443
-0.263041
-0.25907
-0.253464
-0.246169
-0.237155
-0.226411
-0.213958
-0.199853
-0.184196
-0.167137
-0.148884
-0.129701
-0.109913
-0.0898946
-0.0700584
-0.050839
-0.0326697
-0.0159584
-0.00106627
0.0117094
0.0221434
0.0300811
0.0354262
0.0381205
-0.216134
-0.218271
-0.221918
-0.226562
-0.231772
-0.237188
-0.2425
-0.247444
-0.251793
-0.255349
-0.257942
-0.259422
-0.259661
-0.258546
-0.25598
-0.251884
-0.246192
-0.238856
-0.22985
-0.219171
-0.206846
-0.192938
-0.177552
-0.160841
-0.14301
-0.124318
-0.105077
-0.0856437
-0.06641
-0.0477853
-0.0301778
-0.0139734
0.000483735
0.0129062
0.0230713
0.0308199
0.0360474
0.0386866
-0.213484
-0.215409
-0.218712
-0.222937
-0.2277
-0.232664
-0.237541
-0.242076
-0.246047
-0.249262
-0.251548
-0.252759
-0.252763
-0.25145
-0.248724
-0.244505
-0.238732
-0.231362
-0.222372
-0.211768
-0.199582
-0.185883
-0.170781
-0.15443
-0.137034
-0.118845
-0.100161
-0.0813231
-0.0627004
-0.0446781
-0.0276401
-0.0119501
0.00206449
0.0141261
0.0240144
0.0315665
0.0366703
0.0392503
-0.211077
-0.21278
-0.215734
-0.219548
-0.223875
-0.22841
-0.232875
-0.237028
-0.240649
-0.243548
-0.245554
-0.246518
-0.24631
-0.244818
-0.241948
-0.237622
-0.231781
-0.224386
-0.21542
-0.204893
-0.192843
-0.179345
-0.164513
-0.148502
-0.131512
-0.113789
-0.0956216
-0.0773329
-0.0592731
-0.0418054
-0.0252917
-0.0100763
0.00352857
0.0152544
0.0248834
0.0322495
0.037234
0.0397554
-0.209194
-0.21069
-0.213332
-0.216789
-0.22075
-0.224928
-0.229058
-0.232901
-0.236242
-0.238888
-0.240671
-0.24144
-0.241066
-0.239435
-0.236454
-0.232047
-0.226157
-0.218748
-0.209806
-0.199347
-0.187413
-0.174083
-0.159472
-0.143737
-0.127077
-0.109731
-0.0919785
-0.0741305
-0.0565215
-0.039498
-0.0234045
-0.00857
0.00470504
0.0161592
0.0255767
0.0327892
0.0376731
0.0401434
-0.208123
-0.209469
-0.211901
-0.21513
-0.218864
-0.222825
-0.226754
-0.230413
-0.233588
-0.236087
-0.237741
-0.238397
-0.237926
-0.236216
-0.233173
-0.228721
-0.222804
-0.21539
-0.206466
-0.19605
-0.184188
-0.17096
-0.156483
-0.140914
-0.12445
-0.107328
-0.0898219
-0.072235
-0.054893
-0.0381323
-0.0222876
-0.0076791
0.00539981
0.0166918
0.0259822
0.0331012
0.0379225
0.0403592
-0.208151
-0.209497
-0.211928
-0.215154
-0.218885
-0.222841
-0.226765
-0.230418
-0.233586
-0.23608
-0.237727
-0.23838
-0.23791
-0.236204
-0.233172
-0.228741
-0.222858
-0.215493
-0.206639
-0.196317
-0.184576
-0.1715
-0.15721
-0.141863
-0.125656
-0.108823
-0.0916326
-0.0743813
-0.057385
-0.0409688
-0.0254554
-0.0111528
0.00165586
0.0127216
0.0218348
0.0288269
0.0335693
0.0359699
-0.209223
-0.210719
-0.213359
-0.216814
-0.220772
-0.224945
-0.22907
-0.232906
-0.23624
-0.23888
-0.240656
-0.241421
-0.241045
-0.239417
-0.236446
-0.232057
-0.226198
-0.218835
-0.20996
-0.199592
-0.187776
-0.174597
-0.160172
-0.14466
-0.128258
-0.111205
-0.0937742
-0.0762691
-0.0590143
-0.0423441
-0.0265903
-0.0120693
0.000930003
0.0121548
0.0213944
0.0284818
0.0332902
0.0357277
-0.211107
-0.21281
-0.215763
-0.219574
-0.223899
-0.228428
-0.232888
-0.237034
-0.240648
-0.243539
-0.245537
-0.246494
-0.246283
-0.244791
-0.241927
-0.237616
-0.231801
-0.224447
-0.215542
-0.2051
-0.193164
-0.179814
-0.165166
-0.149377
-0.132649
-0.115226
-0.0973892
-0.0794555
-0.0617637
-0.0446642
-0.0285045
-0.0136149
-0.000295238
0.0111956
0.0206453
0.0278883
0.0328016
0.0352944
-0.213516
-0.215441
-0.218742
-0.222966
-0.227725
-0.232685
-0.237555
-0.242083
-0.246046
-0.249252
-0.25153
-0.252732
-0.25273
-0.251413
-0.248689
-0.244479
-0.238727
-0.231391
-0.222456
-0.211929
-0.199851
-0.186294
-0.171373
-0.155245
-0.138114
-0.120231
-0.101889
-0.0834209
-0.0651834
-0.0475477
-0.0308814
-0.015533
-0.00181563
0.0100036
0.01971
0.0271408
0.0321775
0.0347327
-0.216168
-0.218305
-0.221951
-0.226593
-0.2318
-0.237211
-0.242516
-0.247453
-0.251793
-0.25534
-0.257922
-0.259392
-0.259621
-0.258499
-0.255931
-0.251839
-0.24616
-0.238852
-0.229892
-0.219283
-0.207057
-0.193285
-0.178076
-0.161586
-0.144023
-0.125645
-0.106757
-0.0877094
-0.0688793
-0.050661
-0.0334449
-0.0175994
-0.00345279
0.00871885
0.0186986
0.0263266
0.0314904
0.0341081
-0.218803
-0.22113
-0.225091
-0.23012
-0.23575
-0.24159
-0.247315
-0.252649
-0.257356
-0.261238
-0.26412
-0.265856
-0.266316
-0.265389
-0.262979
-0.259008
-0.253408
-0.246134
-0.237157
-0.226475
-0.214114
-0.200137
-0.184652
-0.167813
-0.149829
-0.130966
-0.111542
-0.0919236
-0.072509
-0.0537157
-0.0359572
-0.019622
-0.00505413
0.00746169
0.0177064
0.0255235
0.0308072
0.0334826
-0.221196
-0.223682
-0.227909
-0.233272
-0.239268
-0.245486
-0.251582
-0.257269
-0.262305
-0.266488
-0.269642
-0.271618
-0.272288
-0.271539
-0.269276
-0.265418
-0.259895
-0.252657
-0.243671
-0.23293
-0.220453
-0.2063
-0.190571
-0.173422
-0.155062
-0.135765
-0.115858
-0.0957238
-0.0757805
-0.0564667
-0.0382172
-0.0214396
-0.00649197
0.00633279
0.0168138
0.0247982
0.0301867
0.0329116
-0.223159
-0.225767
-0.230203
-0.235828
-0.242116
-0.248635
-0.255028
-0.261001
-0.266304
-0.270731
-0.274107
-0.27628
-0.277123
-0.276522
-0.274381
-0.270617
-0.26516
-0.257956
-0.248968
-0.238183
-0.225617
-0.211323
-0.1954
-0.178001
-0.159338
-0.139686
-0.119386
-0.0988299
-0.0784534
-0.0587128
-0.0400609
-0.0229209
-0.00766293
0.00541353
0.0160862
0.0242054
0.0296775
0.0324413
-0.224548
-0.22724
-0.231818
-0.237623
-0.244113
-0.250841
-0.257443
-0.263614
-0.269105
-0.273705
-0.277237
-0.27955
-0.280515
-0.280019
-0.277966
-0.27427
-0.268862
-0.261683
-0.252695
-0.241882
-0.229255
-0.214865
-0.198808
-0.181234
-0.162357
-0.142457
-0.121879
-0.101025
-0.0803418
-0.0602989
-0.041362
-0.0239655
-0.00848819
0.00476575
0.0155732
0.0237866
0.0293168
0.0321075
-0.225267
-0.228001
-0.232652
-0.238549
-0.245141
-0.251977
-0.258685
-0.264959
-0.270546
-0.275235
-0.278848
-0.281233
-0.282261
-0.28182
-0.279812
-0.276152
-0.270769
-0.263605
-0.254618
-0.243791
-0.231133
-0.216694
-0.200568
-0.182905
-0.163919
-0.14389
-0.123168
-0.10216
-0.0813183
-0.0611189
-0.0420343
-0.0245052
-0.00891434
0.0044313
0.0153082
0.02357
0.02913
0.0319344
-0.225267
-0.228001
-0.232652
-0.238549
-0.245141
-0.251977
-0.258685
-0.264959
-0.270546
-0.275235
-0.278848
-0.281233
-0.282261
-0.28182
-0.279812
-0.276152
-0.270769
-0.263605
-0.254618
-0.243791
-0.231133
-0.216694
-0.200568
-0.182905
-0.163919
-0.14389
-0.123168
-0.10216
-0.0813183
-0.0611189
-0.0420344
-0.0245052
-0.00891434
0.0044313
0.0153082
0.02357
0.02913
0.0319344
-0.224548
-0.22724
-0.231818
-0.237623
-0.244113
-0.250841
-0.257443
-0.263614
-0.269105
-0.273705
-0.277237
-0.27955
-0.280515
-0.280019
-0.277966
-0.27427
-0.268862
-0.261683
-0.252695
-0.241882
-0.229255
-0.214865
-0.198808
-0.181234
-0.162357
-0.142457
-0.121879
-0.101025
-0.0803418
-0.0602989
-0.041362
-0.0239656
-0.00848819
0.00476575
0.0155732
0.0237866
0.0293168
0.0321075
-0.223159
-0.225767
-0.230203
-0.235828
-0.242116
-0.248635
-0.255028
-0.261001
-0.266304
-0.270731
-0.274107
-0.27628
-0.277123
-0.276522
-0.274381
-0.270617
-0.26516
-0.257956
-0.248968
-0.238183
-0.225617
-0.211323
-0.1954
-0.178001
-0.159338
-0.139687
-0.119386
-0.0988299
-0.0784534
-0.0587128
-0.0400609
-0.0229209
-0.00766293
0.00541353
0.0160862
0.0242054
0.0296775
0.0324413
-0.221196
-0.223682
-0.227909
-0.233272
-0.239268
-0.245486
-0.251582
-0.257269
-0.262305
-0.266488
-0.269642
-0.271618
-0.272288
-0.271539
-0.269277
-0.265418
-0.259895
-0.252657
-0.243671
-0.23293
-0.220453
-0.2063
-0.190571
-0.173422
-0.155062
-0.135765
-0.115858
-0.0957239
-0.0757805
-0.0564667
-0.0382172
-0.0214396
-0.00649197
0.00633279
0.0168138
0.0247982
0.0301867
0.0329116
-0.218803
-0.22113
-0.225091
-0.23012
-0.23575
-0.24159
-0.247315
-0.252649
-0.257356
-0.261238
-0.26412
-0.265856
-0.266316
-0.265389
-0.262979
-0.259008
-0.253408
-0.246134
-0.237157
-0.226475
-0.214114
-0.200137
-0.184652
-0.167813
-0.149829
-0.130966
-0.111543
-0.0919236
-0.072509
-0.0537157
-0.0359572
-0.019622
-0.00505413
0.00746168
0.0177064
0.0255235
0.0308072
0.0334826
-0.216168
-0.218305
-0.221951
-0.226593
-0.2318
-0.237211
-0.242516
-0.247453
-0.251793
-0.25534
-0.257922
-0.259392
-0.259621
-0.258499
-0.255931
-0.251839
-0.24616
-0.238852
-0.229892
-0.219283
-0.207058
-0.193285
-0.178076
-0.161586
-0.144023
-0.125645
-0.106757
-0.0877094
-0.0688793
-0.050661
-0.0334449
-0.0175994
-0.00345279
0.00871884
0.0186986
0.0263266
0.0314904
0.0341081
-0.213516
-0.215441
-0.218742
-0.222966
-0.227725
-0.232685
-0.237555
-0.242083
-0.246046
-0.249252
-0.25153
-0.252732
-0.25273
-0.251413
-0.248689
-0.244479
-0.238727
-0.231391
-0.222456
-0.211929
-0.199851
-0.186294
-0.171373
-0.155245
-0.138114
-0.120231
-0.101889
-0.083421
-0.0651834
-0.0475477
-0.0308815
-0.015533
-0.00181564
0.0100036
0.01971
0.0271408
0.0321775
0.0347327
-0.211107
-0.21281
-0.215763
-0.219574
-0.223899
-0.228428
-0.232888
-0.237034
-0.240648
-0.243539
-0.245537
-0.246494
-0.246283
-0.244791
-0.241927
-0.237616
-0.231801
-0.224447
-0.215542
-0.2051
-0.193164
-0.179814
-0.165166
-0.149377
-0.132649
-0.115226
-0.0973892
-0.0794555
-0.0617637
-0.0446642
-0.0285045
-0.0136149
-0.000295242
0.0111956
0.0206453
0.0278883
0.0328016
0.0352944
-0.209223
-0.210719
-0.213359
-0.216814
-0.220772
-0.224945
-0.22907
-0.232906
-0.23624
-0.23888
-0.240656
-0.241421
-0.241045
-0.239417
-0.236446
-0.232057
-0.226198
-0.218835
-0.20996
-0.199592
-0.187776
-0.174597
-0.160172
-0.14466
-0.128258
-0.111205
-0.0937742
-0.0762692
-0.0590143
-0.0423441
-0.0265903
-0.0120693
0.000929999
0.0121548
0.0213944
0.0284818
0.0332902
0.0357277
-0.208151
-0.209497
-0.211928
-0.215154
-0.218885
-0.222841
-0.226765
-0.230418
-0.233586
-0.23608
-0.237727
-0.23838
-0.23791
-0.236204
-0.233172
-0.228741
-0.222858
-0.215493
-0.206639
-0.196317
-0.184576
-0.1715
-0.15721
-0.141863
-0.125656
-0.108823
-0.0916326
-0.0743813
-0.057385
-0.0409688
-0.0254554
-0.0111528
0.00165585
0.0127216
0.0218348
0.0288269
0.0335693
0.0359699
-0.208173
-0.209518
-0.211948
-0.215172
-0.2189
-0.222852
-0.226771
-0.230419
-0.233583
-0.236072
-0.237716
-0.238369
-0.237901
-0.236204
-0.233189
-0.228784
-0.222942
-0.215633
-0.206855
-0.196633
-0.185019
-0.1721
-0.157999
-0.142873
-0.126919
-0.110367
-0.0934818
-0.0765511
-0.0598818
-0.0437887
-0.0285832
-0.0145628
-0.00200112
0.0088597
0.0178138
0.0246933
0.0293666
0.0317361
-0.209246
-0.210741
-0.21338
-0.216833
-0.220788
-0.224957
-0.229077
-0.232908
-0.236236
-0.238871
-0.240643
-0.241406
-0.241032
-0.239411
-0.236454
-0.23209
-0.226268
-0.218959
-0.210158
-0.199886
-0.188196
-0.175172
-0.160935
-0.145645
-0.129499
-0.112732
-0.0956113
-0.0784338
-0.061514
-0.0451752
-0.0297373
-0.0155051
-0.00275789
0.00825911
0.0173393
0.0243158
0.0290583
0.0314679
-0.21113
-0.212834
-0.215785
-0.219595
-0.223916
-0.228441
-0.232896
-0.237036
-0.240643
-0.243528
-0.245521
-0.246475
-0.246263
-0.244776
-0.241922
-0.237631
-0.231849
-0.224544
-0.215708
-0.205358
-0.193543
-0.180346
-0.165884
-0.150319
-0.133851
-0.11672
-0.0992029
-0.0816084
-0.0642649
-0.0475106
-0.03168
-0.0170908
-0.00403172
0.00724641
0.0165354
0.0236697
0.0285213
0.03099
-0.213541
-0.215466
-0.218767
-0.222988
-0.227744
-0.232699
-0.237564
-0.242085
-0.246042
-0.24924
-0.251511
-0.252707
-0.252702
-0.251386
-0.248669
-0.244475
-0.238749
-0.231456
-0.222583
-0.212142
-0.200179
-0.18677
-0.172035
-0.156131
-0.139263
-0.12168
-0.10367
-0.0855548
-0.067682
-0.0504087
-0.0340881
-0.0190543
-0.00560835
0.00599158
0.0155353
0.022859
0.0278379
0.0303727
-0.216195
-0.218332
-0.221978
-0.226617
-0.231821
-0.237227
-0.242527
-0.247457
-0.251789
-0.255327
-0.257901
-0.259363
-0.259586
-0.258461
-0.255896
-0.251814
-0.246156
-0.238883
-0.229977
-0.219447
-0.20733
-0.193701
-0.178674
-0.162409
-0.145113
-0.127042
-0.108497
-0.0898176
-0.0713699
-0.0535326
-0.0366802
-0.021165
-0.00730201
0.00464276
0.0144568
0.0219787
0.0270878
0.0296882
-0.218832
-0.221159
-0.225119
-0.230146
-0.235773
-0.241608
-0.247327
-0.252653
-0.257352
-0.261224
-0.264097
-0.265823
-0.266275
-0.265341
-0.26293
-0.258963
-0.253379
-0.246133
-0.237203
-0.226592
-0.214332
-0.200493
-0.185186
-0.16857
-0.150856
-0.132308
-0.113238
-0.0940018
-0.0749867
-0.0565929
-0.039216
-0.0232271
-0.00895502
0.00332599
0.0134015
0.0211126
0.026344
0.0290044
-0.221226
-0.223712
-0.227939
-0.2333
-0.239293
-0.245506
-0.251596
-0.257275
-0.262302
-0.266475
-0.269618
-0.271583
-0.272242
-0.271484
-0.269216
-0.265357
-0.259843
-0.252627
-0.243682
-0.233004
-0.220622
-0.2066
-0.191046
-0.174118
-0.156031
-0.137053
-0.117509
-0.0977711
-0.0782427
-0.059345
-0.0414936
-0.0250768
-0.0104364
0.00214599
0.0124542
0.0203322
0.0256699
0.0283815
-0.22319
-0.225799
-0.230235
-0.235858
-0.242142
-0.248657
-0.255044
-0.261008
-0.266302
-0.270719
-0.274083
-0.276244
-0.277074
-0.276462
-0.274312
-0.270545
-0.265092
-0.257904
-0.24895
-0.238223
-0.225745
-0.211578
-0.195826
-0.178647
-0.160256
-0.140929
-0.120999
-0.100849
-0.0809001
-0.0615893
-0.043349
-0.0265819
-0.0116408
0.00118672
0.0116832
0.0196953
0.0251175
0.0278692
-0.22458
-0.227272
-0.231851
-0.237654
-0.244141
-0.250864
-0.257459
-0.263623
-0.269104
-0.273693
-0.277213
-0.279513
-0.280464
-0.279955
-0.277891
-0.274189
-0.268782
-0.261616
-0.252658
-0.241898
-0.229355
-0.215087
-0.199197
-0.181843
-0.163239
-0.143666
-0.123463
-0.103023
-0.0827759
-0.0631727
-0.044657
-0.0276422
-0.0124887
0.000511617
0.0111403
0.0192459
0.0247268
0.0275061
-0.2253
-0.228034
-0.232685
-0.23858
-0.245169
-0.252
-0.258702
-0.264968
-0.270546
-0.275224
-0.278824
-0.281195
-0.282209
-0.281754
-0.279735
-0.276067
-0.270684
-0.26353
-0.25457
-0.243794
-0.231218
-0.2169
-0.200939
-0.183494
-0.164781
-0.145081
-0.124737
-0.104146
-0.0837456
-0.0639908
-0.0453325
-0.0281895
-0.0129262
0.00016333
0.0108601
0.0190138
0.0245246
0.027318
-0.2253
-0.228034
-0.232685
-0.23858
-0.245169
-0.252
-0.258702
-0.264968
-0.270546
-0.275224
-0.278824
-0.281195
-0.282209
-0.281754
-0.279735
-0.276067
-0.270684
-0.26353
-0.25457
-0.243794
-0.231218
-0.2169
-0.200939
-0.183494
-0.164781
-0.145081
-0.124737
-0.104146
-0.0837456
-0.0639908
-0.0453325
-0.0281895
-0.0129262
0.00016333
0.0108601
0.0190138
0.0245246
0.027318
-0.22458
-0.227272
-0.231851
-0.237654
-0.244141
-0.250864
-0.257459
-0.263623
-0.269104
-0.273693
-0.277213
-0.279513
-0.280464
-0.279955
-0.277891
-0.274189
-0.268782
-0.261616
-0.252658
-0.241897
-0.229355
-0.215087
-0.199197
-0.181843
-0.163239
-0.143666
-0.123463
-0.103023
-0.082776
-0.0631727
-0.044657
-0.0276422
-0.0124887
0.000511616
0.0111403
0.0192459
0.0247268
0.0275061
-0.22319
-0.225799
-0.230235
-0.235858
-0.242142
-0.248657
-0.255044
-0.261008
-0.266302
-0.270719
-0.274083
-0.276244
-0.277074
-0.276462
-0.274312
-0.270545
-0.265092
-0.257904
-0.24895
-0.238223
-0.225745
-0.211578
-0.195826
-0.178647
-0.160256
-0.140929
-0.120999
-0.100849
-0.0809001
-0.0615893
-0.043349
-0.0265819
-0.0116408
0.00118672
0.0116832
0.0196953
0.0251175
0.0278692
-0.221226
-0.223712
-0.227939
-0.2333
-0.239293
-0.245506
-0.251596
-0.257275
-0.262302
-0.266475
-0.269618
-0.271583
-0.272242
-0.271484
-0.269216
-0.265357
-0.259843
-0.252627
-0.243682
-0.233004
-0.220622
-0.2066
-0.191046
-0.174118
-0.156031
-0.137053
-0.117509
-0.0977711
-0.0782427
-0.059345
-0.0414936
-0.0250768
-0.0104364
0.00214599
0.0124542
0.0203322
0.0256699
0.0283815
-0.218832
-0.221159
-0.225119
-0.230146
-0.235773
-0.241608
-0.247327
-0.252653
-0.257352
-0.261224
-0.264097
-0.265823
-0.266275
-0.265341
-0.26293
-0.258963
-0.253379
-0.246133
-0.237203
-0.226592
-0.214332
-0.200493
-0.185186
-0.16857
-0.150856
-0.132308
-0.113238
-0.0940019
-0.0749867
-0.0565929
-0.039216
-0.0232271
-0.00895503
0.00332599
0.0134015
0.0211126
0.026344
0.0290044
-0.216195
-0.218332
-0.221978
-0.226617
-0.231821
-0.237227
-0.242527
-0.247456
-0.251789
-0.255327
-0.257901
-0.259363
-0.259586
-0.258461
-0.255896
-0.251814
-0.246156
-0.238883
-0.229977
-0.219447
-0.207331
-0.193701
-0.178674
-0.162409
-0.145113
-0.127042
-0.108497
-0.0898176
-0.0713699
-0.0535326
-0.0366802
-0.021165
-0.00730201
0.00464276
0.0144568
0.0219787
0.0270878
0.0296882
-0.213541
-0.215466
-0.218767
-0.222988
-0.227744
-0.232699
-0.237564
-0.242085
-0.246042
-0.24924
-0.251511
-0.252707
-0.252702
-0.251386
-0.248669
-0.244475
-0.238749
-0.231456
-0.222583
-0.212142
-0.200179