/*--------------------------------*- C++ -*----------------------------------*\
  =========                 |
  \\      /  F ield         | OpenFOAM: The Open Source CFD Toolbox
   \\    /   O peration     | Website:  https://openfoam.org
    \\  /    A nd           | Version:  6
     \\/     M anipulation  |
\*---------------------------------------------------------------------------*/
FoamFile
{
    version     2.0;
    format      ascii;
    class       volVectorField;
    location    "1500";
    object      U;
}
// * * * * * * * * * * * * * * * * * * * * * * * * * * * * * * * * * * * * * //

dimensions      [0 1 -1 0 0 0 0];

internalField   nonuniform List<vector> 
7000
(
(0.000590951 0.000603628 0.997868)
(0.000741447 0.000604618 0.999401)
(0.000197134 0.000604183 0.99894)
(6.09913e-05 0.000604113 0.99894)
(-4.8122e-06 0.000604007 0.998941)
(-6.90528e-05 0.000603833 0.99894)
(-0.00012837 0.000603601 0.998935)
(-0.000254707 0.000603396 0.998932)
(-0.000801153 0.000603598 0.999412)
(-0.000624313 0.000602371 0.997839)
(0.000591937 0.000765119 0.999413)
(0.000741702 0.000765435 1.00095)
(0.000196754 0.000765307 1.00049)
(6.06818e-05 0.000765058 1.00049)
(-5.15592e-06 0.000764795 1.00049)
(-6.95073e-05 0.000764443 1.00049)
(-0.000128795 0.000764036 1.00048)
(-0.000254986 0.000763769 1.00048)
(-0.000801982 0.000763452 1.00096)
(-0.000625565 0.000762835 0.999386)
(0.000591521 0.000222567 0.998946)
(0.000741592 0.000222337 1.00048)
(0.000196638 0.000222294 1.00002)
(6.0451e-05 0.000222121 1.00002)
(-5.49182e-06 0.000221867 1.00002)
(-6.99218e-05 0.000221537 1.00002)
(-0.000129195 0.000221178 1.00001)
(-0.000255351 0.000220917 1.00001)
(-0.000802188 0.000220634 1.00049)
(-0.000625266 0.000220649 0.998919)
(0.000591537 9.32875e-05 0.998947)
(0.000741478 9.32706e-05 1.00048)
(0.000196517 9.32501e-05 1.00002)
(6.02599e-05 9.31454e-05 1.00002)
(-5.75425e-06 9.29733e-05 1.00002)
(-7.02308e-05 9.27375e-05 1.00002)
(-0.000129465 9.24768e-05 1.00002)
(-0.00025554 9.2316e-05 1.00001)
(-0.000802286 9.21779e-05 1.00049)
(-0.000625384 9.20738e-05 0.998921)
(0.000591593 3.29166e-05 0.99895)
(0.000741507 3.30435e-05 1.00048)
(0.000196479 3.30907e-05 1.00002)
(6.0172e-05 3.31026e-05 1.00002)
(-5.90137e-06 3.30713e-05 1.00002)
(-7.04204e-05 3.29919e-05 1.00002)
(-0.000129618 3.28918e-05 1.00002)
(-0.000255612 3.2882e-05 1.00002)
(-0.000802332 3.29194e-05 1.0005)
(-0.000625443 3.29388e-05 0.998925)
(0.000591671 -2.91274e-05 0.998949)
(0.000741625 -2.89377e-05 1.00048)
(0.000196558 -2.88202e-05 1.00002)
(6.02394e-05 -2.86761e-05 1.00002)
(-5.86546e-06 -2.85435e-05 1.00002)
(-7.04104e-05 -2.8434e-05 1.00002)
(-0.000129574 -2.83322e-05 1.00002)
(-0.000255488 -2.81522e-05 1.00002)
(-0.000802143 -2.78961e-05 1.0005)
(-0.000625348 -2.7604e-05 0.998926)
(0.000591761 -8.99918e-05 0.998946)
(0.000741817 -8.96939e-05 1.00048)
(0.000196744 -8.95283e-05 1.00002)
(6.04494e-05 -8.92869e-05 1.00002)
(-5.65869e-06 -8.90285e-05 1.00002)
(-7.02079e-05 -8.87682e-05 1.00002)
(-0.000129335 -8.84988e-05 1.00002)
(-0.00025517 -8.81539e-05 1.00002)
(-0.000801723 -8.77091e-05 1.00049)
(-0.0006251 -8.72285e-05 0.998925)
(0.000591869 -0.000220339 0.998946)
(0.000742115 -0.000219906 1.00048)
(0.000196986 -0.000219759 1.00002)
(6.07396e-05 -0.000219489 1.00002)
(-5.34624e-06 -0.000219176 1.00002)
(-6.98784e-05 -0.000218831 1.00002)
(-0.000128957 -0.000218448 1.00002)
(-0.00025471 -0.00021798 1.00002)
(-0.000801182 -0.000217354 1.00049)
(-0.000624736 -0.000216873 0.998926)
(0.000592359 -0.000764602 0.999413)
(0.000742333 -0.000764674 1.00095)
(0.000197166 -0.000764415 1.00049)
(6.10197e-05 -0.000764019 1.00049)
(-4.99328e-06 -0.000763607 1.00049)
(-6.94511e-05 -0.000763098 1.00049)
(-0.000128441 -0.000762505 1.00048)
(-0.000254052 -0.000761866 1.00048)
(-0.000800475 -0.000761177 1.00096)
(-0.000624739 -0.000759869 0.999392)
(0.000591523 -0.00060388 0.997867)
(0.000742321 -0.000604704 0.999401)
(0.00019774 -0.000604178 0.99894)
(6.15556e-05 -0.000604 0.99894)
(-4.38729e-06 -0.000603769 0.998943)
(-6.87033e-05 -0.000603449 0.998943)
(-0.000127633 -0.000603056 0.99894)
(-0.000253401 -0.000602597 0.998939)
(-0.000799106 -0.000602618 0.999416)
(-0.000623106 -0.000600989 0.997853)
(0.00144146 0.00147555 0.994376)
(0.00168661 0.00148096 0.999162)
(0.000398821 0.00147758 0.997323)
(0.000223343 0.00147733 0.99731)
(3.32202e-05 0.00147627 0.997296)
(-0.000166728 0.00147475 0.997293)
(-0.000344737 0.00147277 0.997299)
(-0.000495712 0.00147012 0.997306)
(-0.00180501 0.00147133 0.99923)
(-0.00151942 0.00146147 0.994264)
(0.001447 0.00173988 0.999237)
(0.00168829 0.00174152 1.00403)
(0.000397494 0.00173964 1.00219)
(0.00022219 0.00173827 1.00218)
(3.12714e-05 0.00173637 1.00216)
(-0.000169669 0.00173378 1.00215)
(-0.000348457 0.00173065 1.00216)
(-0.000498708 0.00172754 1.00216)
(-0.00181274 0.00172612 1.00408)
(-0.00152902 0.00171742 0.999097)
(0.00144377 0.000446812 0.997362)
(0.00168661 0.000445784 1.00215)
(0.000396788 0.000445265 1.00031)
(0.000220921 0.000444058 1.0003)
(2.95088e-05 0.000442454 1.00028)
(-0.000171825 0.000440428 1.00028)
(-0.00035059 0.000438243 1.00028)
(-0.000500505 0.000436461 1.00028)
(-0.00181478 0.000434989 1.00221)
(-0.00152851 0.000430201 0.997226)
(0.00144401 0.000287243 0.997353)
(0.00168596 0.000287037 1.00215)
(0.000395814 0.000286513 1.0003)
(0.000219541 0.000285489 1.00029)
(2.77673e-05 0.000284104 1.00027)
(-0.000173815 0.00028235 1.00027)
(-0.000352421 0.00028049 1.00027)
(-0.00050188 0.000279035 1.00027)
(-0.00181816 0.000277931 1.00221)
(-0.00153182 0.00027222 0.99721)
(0.00144387 0.000107213 0.997344)
(0.00168556 0.000107094 1.00214)
(0.000395151 0.000106761 1.00029)
(0.000218528 0.000106147 1.00028)
(2.63901e-05 0.000105203 1.00027)
(-0.000175419 0.00010395 1.00026)
(-0.000353886 0.000102646 1.00026)
(-0.000502943 0.000101704 1.00026)
(-0.00182127 0.000101121 1.0022)
(-0.0015345 9.62133e-05 0.997196)
(0.00144378 -8.87379e-05 0.997345)
(0.00168533 -8.8818e-05 1.00214)
(0.000394816 -8.89972e-05 1.0003)
(0.00021799 -8.91864e-05 1.00028)
(2.55797e-05 -8.96215e-05 1.00027)
(-0.00017636 -9.02537e-05 1.00026)
(-0.000354656 -9.08368e-05 1.00026)
(-0.000503337 -9.10611e-05 1.00026)
(-0.00182346 -9.08657e-05 1.0022)
(-0.00153657 -9.42895e-05 0.997194)
(0.00144374 -0.000270112 0.997356)
(0.00168526 -0.000270124 1.00215)
(0.000394781 -0.000270143 1.00031)
(0.000217894 -0.000269966 1.00029)
(2.53128e-05 -0.00026999 1.00028)
(-0.000176642 -0.000270115 1.00027)
(-0.0003547 -0.000270067 1.00027)
(-0.000502981 -0.000269638 1.00027)
(-0.00182448 -0.000268689 1.00221)
(-0.00153783 -0.000270543 0.997204)
(0.0014433 -0.000432645 0.997366)
(0.0016854 -0.000431791 1.00216)
(0.000395016 -0.000431867 1.00032)
(0.000218122 -0.000431604 1.0003)
(2.54103e-05 -0.00043149 1.00029)
(-0.000176454 -0.000431339 1.00028)
(-0.000354194 -0.000430834 1.00028)
(-0.000502028 -0.000429857 1.00028)
(-0.00182449 -0.000428252 1.00223)
(-0.00153791 -0.000429971 0.997215)
(0.00144641 -0.00173198 0.999246)
(0.00168662 -0.00173397 1.00404)
(0.000394883 -0.00173278 1.0022)
(0.000218111 -0.00173253 1.00219)
(2.54607e-05 -0.00173235 1.00217)
(-0.000176039 -0.001732 1.00216)
(-0.00035322 -0.00173131 1.00217)
(-0.000500449 -0.00173041 1.00217)
(-0.00182525 -0.0017308 1.00411)
(-0.00154134 -0.00172874 0.999094)
(0.00144053 -0.00147379 0.994379)
(0.00168423 -0.00147948 0.999167)
(0.00039526 -0.00147647 0.997327)
(0.000217773 -0.00147682 0.997313)
(2.52515e-05 -0.00147668 0.997299)
(-0.000175974 -0.00147643 0.997294)
(-0.000353016 -0.00147606 0.997297)
(-0.000501375 -0.00147524 0.997299)
(-0.00182316 -0.00147839 0.999237)
(-0.00153523 -0.00147205 0.994237)
(0.0019438 0.00200808 0.990207)
(0.00207428 0.00201941 0.998721)
(0.000361727 0.0020112 0.99551)
(0.000317796 0.00201137 0.995479)
(5.86851e-06 0.0020091 0.995409)
(-0.000294678 0.00200607 0.995401)
(-0.000579587 0.00200228 0.995452)
(-0.000559745 0.00199611 0.995464)
(-0.00230542 0.0019994 0.998867)
(-0.00209834 0.00198025 0.989948)
(0.00195542 0.00217676 0.998892)
(0.00207806 0.00218069 1.00742)
(0.000359368 0.00217533 1.0042)
(0.000315641 0.00217331 1.00417)
(1.2811e-06 0.00216979 1.00409)
(-0.000301506 0.00216485 1.00408)
(-0.000588731 0.00215867 1.00411)
(-0.000567977 0.00215151 1.00411)
(-0.00232124 0.00214904 1.00751)
(-0.00211685 0.00213204 0.998544)
(0.00194744 0.00046078 0.995603)
(0.00207305 0.000459517 1.00412)
(0.000358194 0.000458661 1.0009)
(0.000313402 0.000456485 1.00087)
(-1.80251e-06 0.00045375 1.0008)
(-0.000305483 0.000450047 1.00078)
(-0.000593049 0.000445611 1.00083)
(-0.000572555 0.000441307 1.00083)
(-0.0023244 0.000436662 1.00424)
(-0.00211439 0.00042582 0.995267)
(0.00194857 0.000451788 0.995584)
(0.00207235 0.000452141 1.00411)
(0.0003564 0.000451205 1.00089)
(0.000310923 0.000449412 1.00085)
(-5.00186e-06 0.000447012 1.00078)
(-0.0003095 0.000443705 1.00076)
(-0.000597403 0.000439658 1.0008)
(-0.000576855 0.000435534 1.0008)
(-0.00233307 0.000431283 1.00422)
(-0.00212199 0.000418521 0.995227)
(0.00194812 0.000159255 0.995526)
(0.00207166 0.000159087 1.00405)
(0.000355379 0.000158627 1.00083)
(0.000309224 0.000157675 1.0008)
(-7.49443e-06 0.000156115 1.00072)
(-0.000312814 0.000153777 1.0007)
(-0.000601199 0.000150795 1.00074)
(-0.000580858 0.000147537 1.00074)
(-0.0023407 0.000144088 1.00417)
(-0.00212739 0.000133958 0.995154)
(0.00194797 -0.000135158 0.995529)
(0.00207135 -0.000135435 1.00405)
(0.000354952 -0.000135547 1.00083)
(0.000308421 -0.000135675 1.0008)
(-8.88935e-06 -0.000136254 1.00072)
(-0.000314807 -0.000137341 1.00071)
(-0.00060363 -0.000138843 1.00075)
(-0.000583534 -0.000140666 1.00074)
(-0.00234637 -0.000142624 1.00418)
(-0.00213162 -0.000149235 0.995147)
(0.00194815 -0.000429754 0.995591)
(0.00207141 -0.000430536 1.00411)
(0.000355102 -0.000430204 1.00089)
(0.000308498 -0.000429531 1.00086)
(-9.17434e-06 -0.000429274 1.00079)
(-0.000315414 -0.000429313 1.00077)
(-0.000604526 -0.000429527 1.00081)
(-0.00058463 -0.000430072 1.00081)
(-0.00234955 -0.00043067 1.00425)
(-0.00213427 -0.000433337 0.995207)
(0.00194673 -0.000442418 0.995615)
(0.00207147 -0.00044166 1.00413)
(0.000355974 -0.00044153 1.00092)
(0.000309325 -0.000440605 1.00089)
(-8.69116e-06 -0.00044007 1.00081)
(-0.000315085 -0.000439583 1.0008)
(-0.000604406 -0.000438991 1.00084)
(-0.000584726 -0.000438616 1.00084)
(-0.00235037 -0.00043816 1.00428)
(-0.00213383 -0.000439991 0.995234)
(0.00195438 -0.00216859 0.998916)
(0.00207569 -0.00217287 1.00744)
(0.000356044 -0.00216841 1.00422)
(0.000309778 -0.00216799 1.00419)
(-8.28542e-06 -0.00216711 1.00412)
(-0.000314455 -0.00216605 1.0041)
(-0.000603613 -0.0021648 1.00414)
(-0.000583856 -0.00216345 1.00414)
(-0.00235459 -0.00216726 1.0076)
(-0.00214166 -0.00216034 0.998534)
(0.00194271 -0.00200801 0.990221)
(0.00207136 -0.00201937 0.998732)
(0.000357011 -0.00201163 0.995522)
(0.00030956 -0.00201269 0.995491)
(-7.42123e-06 -0.00201191 0.995419)
(-0.000312945 -0.00201112 0.995405)
(-0.000601547 -0.00201039 0.995447)
(-0.000583904 -0.00200821 0.995449)
(-0.00234764 -0.00201581 0.998886)
(-0.00212756 -0.00200111 0.989857)
(0.00226012 0.00236076 0.985071)
(0.00221478 0.00237876 0.997727)
(0.000258191 0.00236452 0.993285)
(0.000371144 0.00236546 0.993246)
(-6.66444e-05 0.00236116 0.993108)
(-0.00040429 0.00235597 0.993088)
(-0.000799352 0.00234975 0.993188)
(-0.00057477 0.00233819 0.993193)
(-0.00258295 0.00234423 0.997983)
(-0.00251141 0.00231085 0.984578)
(0.00227875 0.00237421 0.998044)
(0.00222097 0.00238066 1.01073)
(0.000254789 0.00237058 1.00626)
(0.000367929 0.00236776 1.00622)
(-7.48822e-05 0.00236157 1.00607)
(-0.000416663 0.00235313 1.00603)
(-0.000816745 0.00234243 1.0061)
(-0.000590435 0.00232875 1.00607)
(-0.00261151 0.0023251 1.01087)
(-0.00254329 0.00229342 0.997344)
(0.00226483 0.000415884 0.993464)
(0.00221136 0.000414658 1.00612)
(0.000252876 0.000413352 1.00167)
(0.000363851 0.000409671 1.00163)
(-8.02597e-05 0.000405235 1.00148)
(-0.00042363 0.000398916 1.00145)
(-0.000824596 0.000390861 1.00153)
(-0.000599497 0.000382562 1.0015)
(-0.00261748 0.000373318 1.00631)
(-0.00253982 0.000352371 0.992788)
(0.00226742 0.000587643 0.993447)
(0.0022108 0.000589141 1.00611)
(0.000249836 0.000587397 1.00165)
(0.000359878 0.000584666 1.00161)
(-8.5601e-05 0.000580893 1.00146)
(-0.00043073 0.000575359 1.00143)
(-0.000832863 0.000568121 1.00151)
(-0.000607948 0.000560039 1.00148)
(-0.00263403 0.0005519 1.00631)
(-0.00255394 0.000528755 0.992725)
(0.00226629 0.000180272 0.993334)
(0.00220955 0.000180233 1.00599)
(0.000248404 0.000179562 1.00154)
(0.000357349 0.000178318 1.0015)
(-8.95853e-05 0.000176067 1.00135)
(-0.000436395 0.000172384 1.00131)
(-0.000839907 0.000167284 1.00139)
(-0.000615847 0.000161089 1.00136)
(-0.0026474 0.000154248 1.0062)
(-0.00256273 0.000137593 0.992574)
(0.00226621 -0.000147707 0.993339)
(0.0022093 -0.000147929 1.006)
(0.000247985 -0.000147769 1.00154)
(0.0003564 -0.000147601 1.0015)
(-9.15324e-05 -0.000148108 1.00135)
(-0.000439507 -0.000149461 1.00132)
(-0.000844144 -0.000151704 1.00139)
(-0.000621103 -0.000154959 1.00136)
(-0.00265696 -0.000159315 1.00622)
(-0.00256929 -0.000168772 0.992558)
(0.00226717 -0.000557875 0.993462)
(0.00221001 -0.000559645 1.00612)
(0.000248535 -0.000558471 1.00167)
(0.000356983 -0.000556902 1.00163)
(-9.1457e-05 -0.000555931 1.00148)
(-0.00044 -0.000555357 1.00144)
(-0.000845379 -0.000555151 1.00152)
(-0.00062326 -0.000555906 1.00149)
(-0.00266206 -0.000558118 1.00636)
(-0.00257329 -0.000559104 0.992675)
(0.00226441 -0.000390897 0.993487)
(0.00221001 -0.000390032 1.00614)
(0.000250594 -0.000389487 1.00169)
(0.000358919 -0.000387297 1.00165)
(-8.99908e-05 -0.000385939 1.0015)
(-0.000438759 -0.000384612 1.00147)
(-0.000844697 -0.000383193 1.00155)
(-0.000623906 -0.000382964 1.00152)
(-0.00266187 -0.000382816 1.00639)
(-0.00257036 -0.000383523 0.992707)
(0.00227811 -0.00236246 0.998085)
(0.00221886 -0.00236893 1.01076)
(0.000251137 -0.00235996 1.0063)
(0.000360476 -0.0023591 1.00626)
(-8.8783e-05 -0.00235653 1.00612)
(-0.000437532 -0.00235386 1.00608)
(-0.00084393 -0.00235128 1.00616)
(-0.000622875 -0.00234791 1.00614)
(-0.00267052 -0.00235629 1.01103)
(-0.00258425 -0.0023413 0.997307)
(0.00225975 -0.00236006 0.985099)
(0.00221225 -0.0023778 0.997746)
(0.000252827 -0.00236419 0.993309)
(0.000360772 -0.00236615 0.99327)
(-8.5558e-05 -0.00236374 0.993128)
(-0.000433031 -0.00236167 0.993099)
(-0.000837528 -0.00236022 0.99318)
(-0.000621076 -0.00235493 0.99316)
(-0.00265592 -0.00236886 0.998017)
(-0.00255832 -0.00234142 0.984359)
(0.00248422 0.00262963 0.979483)
(0.00227276 0.00265444 0.996477)
(0.000164982 0.00263366 0.990853)
(0.00039303 0.00263546 0.990796)
(-0.00018163 0.00262796 0.990602)
(-0.000505267 0.00261935 0.990567)
(-0.00102104 0.00260939 0.990695)
(-0.000617731 0.00258941 0.9907)
(-0.002809 0.00259454 0.996909)
(-0.00286322 0.00254217 0.978645)
(0.00251029 0.00249925 0.996996)
(0.00228118 0.00250793 1.01404)
(0.000160233 0.00249268 1.00836)
(0.000388275 0.0024886 1.0083)
(-0.000195288 0.00247813 1.00808)
(-0.000525937 0.00246402 1.00801)
(-0.00105106 0.00244605 1.00809)
(-0.000647561 0.00242152 1.00802)
(-0.00285778 0.00241035 1.01424)
(-0.0029121 0.00235632 0.995761)
(0.00248991 0.000390118 0.991153)
(0.00226654 0.000388943 1.00815)
(0.000157286 0.000387134 1.0025)
(0.000381126 0.000381234 1.00244)
(-0.000204575 0.000374171 1.00223)
(-0.000538123 0.000363597 1.00217)
(-0.00106515 0.000349405 1.00226)
(-0.000665465 0.000334277 1.00221)
(-0.00287227 0.000315632 1.00844)
(-0.00291075 0.000277129 0.989953)
(0.00249443 0.00070682 0.991132)
(0.0022662 0.000709916 1.00813)
(0.00015247 0.000706907 1.00249)
(0.000375078 0.000703017 1.00242)
(-0.000213197 0.000697269 1.00221)
(-0.000550169 0.000688412 1.00214)
(-0.00107991 0.000676165 1.00223)
(-0.000681471 0.000661877 1.00217)
(-0.00290279 0.000646224 1.00843)
(-0.00293569 0.000605934 0.989837)
(0.00249228 0.00017616 0.99098)
(0.00226412 0.000176505 1.00797)
(0.000150545 0.000175536 1.00233)
(0.000371462 0.00017406 1.00227)
(-0.000219257 0.000171031 1.00205)
(-0.000559256 0.000165677 1.00199)
(-0.00109169 0.000157705 1.00207)
(-0.000695936 0.000147586 1.00201)
(-0.00292588 0.000134775 1.00829)
(-0.00294996 0.000107983 0.989611)
(0.0024925 -0.000132368 0.990988)
(0.00226418 -0.000131971 1.00798)
(0.000150283 -0.000131325 1.00234)
(0.000370603 -0.00013045 1.00228)
(-0.000221584 -0.000130431 1.00206)
(-0.000563497 -0.000131572 1.002)
(-0.00109797 -0.000134226 1.00208)
(-0.000704761 -0.000138731 1.00202)
(-0.0029413 -0.000146733 1.00832)
(-0.00295997 -0.000159429 0.989581)
(0.00249506 -0.000666985 0.991155)
(0.00226632 -0.000669405 1.00815)
(0.000151563 -0.000666826 1.00251)
(0.000372318 -0.000663766 1.00245)
(-0.000220381 -0.000661257 1.00224)
(-0.000563048 -0.000659043 1.00217)
(-0.00109876 -0.000657369 1.00226)
(-0.000707834 -0.00065724 1.0022)
(-0.00294843 -0.000661285 1.00852)
(-0.00296542 -0.000658245 0.989741)
(0.0024909 -0.000356524 0.991189)
(0.00226662 -0.000355402 1.00817)
(0.000155523 -0.000354575 1.00254)
(0.000376164 -0.000350421 1.00248)
(-0.000216831 -0.000347588 1.00227)
(-0.000559642 -0.000344502 1.00221)
(-0.00109614 -0.000341325 1.0023)
(-0.000708073 -0.000340018 1.00224)
(-0.00294558 -0.000340323 1.00857)
(-0.0029587 -0.000335534 0.989792)
(0.00251099 -0.0024813 0.997058)
(0.0022801 -0.00248882 1.01409)
(0.00015641 -0.00247479 1.00842)
(0.000379546 -0.00247277 1.00837)
(-0.000214156 -0.00246695 1.00816)
(-0.000557274 -0.00246119 1.0081)
(-0.00109464 -0.00245591 1.00819)
(-0.000706606 -0.00244824 1.00813)
(-0.00295674 -0.00246034 1.01451)
(-0.00297601 -0.00243138 0.995651)
(0.00248662 -0.00262658 0.979528)
(0.00227284 -0.00264979 0.996511)
(0.00015992 -0.00262946 0.990895)
(0.000381597 -0.00263199 0.990839)
(-0.000206546 -0.00262649 0.99064)
(-0.000547376 -0.00262196 0.99059)
(-0.00108094 -0.00261874 0.990686)
(-0.000699732 -0.0026085 0.990643)
(-0.00293078 -0.00262741 0.996941)
(-0.00293601 -0.00258362 0.978235)
(0.00263768 0.00283699 0.973841)
(0.00227247 0.0028684 0.995211)
(7.39993e-05 0.00284072 0.988411)
(0.000377933 0.00284303 0.988313)
(-0.000338869 0.00283075 0.988076)
(-0.000617487 0.00281676 0.988021)
(-0.0012521 0.00280007 0.988157)
(-0.000691445 0.00276604 0.988186)
(-0.00301046 0.00276664 0.995893)
(-0.00317191 0.0026787 0.97257)
(0.00267136 0.0025793 0.996003)
(0.00228285 0.00258977 1.01745)
(6.739e-05 0.00256905 1.01056)
(0.000370451 0.00256282 1.01046)
(-0.000360803 0.00254594 1.01018)
(-0.000651279 0.00252301 1.01006)
(-0.00130318 0.00249263 1.01011)
(-0.000744472 0.0024488 1.01001)
(-0.00309837 0.00242215 1.01773)
(-0.003253 0.00232067 0.993981)
(0.00264419 0.000381385 0.988873)
(0.00226293 0.000380322 1.01024)
(6.29655e-05 0.000377938 1.00341)
(0.000358829 0.000369172 1.00331)
(-0.000376012 0.000358386 1.00304)
(-0.000672096 0.000341416 1.00294)
(-0.00132855 0.000317279 1.00301)
(-0.000778584 0.000289164 1.00294)
(-0.00313497 0.00025303 1.01068)
(-0.00326282 0.000178435 0.986899)
(0.0026509 0.000811906 0.988826)
(0.0022628 0.000816971 1.0102)
(5.59976e-05 0.000812465 1.00337)
(0.000350133 0.000807397 1.00326)
(-0.000389361 0.000799122 1.00299)
(-0.000691669 0.000785702 1.00288)
(-0.00135468 0.000766036 1.00294)
(-0.000808986 0.00074033 1.00286)
(-0.00319256 0.000710937 1.01066)
(-0.00330747 0.000637482 0.986671)
(0.00264751 0.000157494 0.988653)
(0.00225979 0.000158563 1.01002)
(5.37677e-05 0.000157568 1.00319)
(0.000345409 0.000156299 1.00308)
(-0.000397877 0.000152858 1.00281)
(-0.000705288 0.000145961 1.0027)
(-0.00137396 0.000134553 1.00275)
(-0.000834861 0.000118109 1.00266)
(-0.00323421 9.53247e-05 1.0105)
(-0.00333308 4.94184e-05 0.986362)
(0.00264835 -9.75685e-05 0.988663)
(0.00226068 -9.57939e-05 1.01003)
(5.42474e-05 -9.4152e-05 1.0032)
(0.000345468 -9.15449e-05 1.0031)
(-0.000399708 -8.97552e-05 1.00282)
(-0.000709986 -8.92725e-05 1.00272)
(-0.00138245 -9.11126e-05 1.00277)
(-0.000848951 -9.6337e-05 1.00268)
(-0.0032596 -0.000109676 1.01055)
(-0.00334976 -0.000128243 0.98631)
(0.00265331 -0.000757233 0.988857)
(0.00226523 -0.000759711 1.01023)
(5.70874e-05 -0.00075484 1.0034)
(0.000349756 -0.000749036 1.0033)
(-0.000395586 -0.000743185 1.00303)
(-0.00070662 -0.000737118 1.00293)
(-0.00138083 -0.000731483 1.00299)
(-0.000852236 -0.000727896 1.0029)
(-0.00326928 -0.000734484 1.01081)
(-0.00335683 -0.000723431 0.986508)
(0.00264799 -0.000335687 0.988922)
(0.0022666 -0.000333308 1.01028)
(6.41319e-05 -0.000331649 1.00346)
(0.00035714 -0.000324209 1.00337)
(-0.000387698 -0.000318389 1.0031)
(-0.0006983 -0.000311559 1.00301)
(-0.00137314 -0.000303929 1.00308)
(-0.00085066 -0.000299901 1.003)
(-0.00326026 -0.000299416 1.01091)
(-0.00334234 -0.000285487 0.986621)
(0.00267543 -0.00255052 0.996081)
(0.00228577 -0.00255799 1.01751)
(6.60855e-05 -0.00253826 1.01064)
(0.000363766 -0.0025336 1.01055)
(-0.000382094 -0.00252215 1.01029)
(-0.000692816 -0.00251053 1.01019)
(-0.00136965 -0.00249972 1.01026)
(-0.000847128 -0.00248518 1.01018)
(-0.00327193 -0.00250005 1.01814)
(-0.00336293 -0.00244806 0.993758)
(0.00264504 -0.00282802 0.973906)
(0.00227842 -0.00285644 0.995272)
(7.25703e-05 -0.00282886 0.988481)
(0.000369624 -0.00283112 0.988387)
(-0.000366801 -0.00282062 0.988146)
(-0.000673959 -0.00281156 0.988072)
(-0.00134463 -0.00280492 0.988157)
(-0.000833281 -0.00278711 0.988104)
(-0.00322691 -0.00281144 0.995963)
(-0.00330046 -0.00274161 0.971825)
(0.00272715 0.00298937 0.968235)
(0.0022135 0.00302674 0.993955)
(-3.22931e-05 0.00299175 0.986008)
(0.00031884 0.00299368 0.985852)
(-0.000538751 0.00297451 0.985581)
(-0.000755362 0.00295163 0.985504)
(-0.00150399 0.00292258 0.985633)
(-0.000780958 0.0028658 0.985709)
(-0.00319108 0.00284693 0.995027)
(-0.00345286 0.0026981 0.966515)
(0.0027683 0.00261504 0.995096)
(0.00222533 0.00262661 1.02093)
(-4.14969e-05 0.00259986 1.01285)
(0.000306649 0.00259001 1.01269)
(-0.000573708 0.00256373 1.01234)
(-0.000810878 0.00252651 1.01216)
(-0.00158989 0.00247449 1.01215)
(-0.000881319 0.00239679 1.012)
(-0.00335484 0.00233127 1.02131)
(-0.00358926 0.00213649 0.991992)
(0.00273402 0.000375252 0.986679)
(0.00219965 0.000374352 1.01239)
(-4.82381e-05 0.00037107 1.0044)
(0.000288667 0.000358624 1.00423)
(-0.000598038 0.000342472 1.00391)
(-0.000846185 0.000315592 1.00376)
(-0.00163635 0.000274821 1.00377)
(-0.000947361 0.000223153 1.00367)
(-0.00344146 0.000153512 1.01305)
(-0.00363046 3.69806e-06 0.983625)
(0.00274292 0.00090069 0.986589)
(0.00219949 0.00090799 1.01232)
(-5.78014e-05 0.000901812 1.00432)
(0.000276425 0.000895513 1.00415)
(-0.000618353 0.000883948 1.00382)
(-0.000877838 0.000864139 1.00366)
(-0.00168142 0.000832854 1.00366)
(-0.00100435 0.000789494 1.00354)
(-0.00355021 0.00073499 1.01299)
(-0.00371449 0.000598772 0.983172)
(0.00273813 0.0001308 0.986406)
(0.00219563 0.000132975 1.01212)
(-6.00608e-05 0.000132442 1.00413)
(0.000270642 0.00013205 1.00396)
(-0.000629717 0.000128926 1.00363)
(-0.000897544 0.000121024 1.00346)
(-0.0017111 0.000105844 1.00346)
(-0.00104799 8.22559e-05 1.00332)
(-0.00362474 4.31506e-05 1.01284)
(-0.00376256 -3.6808e-05 0.982736)
(0.00273997 -4.91006e-05 0.98642)
(0.00219803 -4.49993e-05 1.01213)
(-5.79373e-05 -4.15826e-05 1.00414)
(0.000272974 -3.56748e-05 1.00398)
(-0.000629384 -3.00333e-05 1.00365)
(-0.000900952 -2.52101e-05 1.00349)
(-0.00172002 -2.2961e-05 1.00349)
(-0.00106828 -2.59493e-05 1.00336)
(-0.00366546 -4.42453e-05 1.01293)
(-0.0037894 -6.71105e-05 0.982655)
(0.00274822 -0.000826422 0.986629)
(0.00220621 -0.000827953 1.01235)
(-5.21983e-05 -0.000819523 1.00437)
(0.000282133 -0.000809059 1.00421)
(-0.0006192 -0.000796965 1.00389)
(-0.00089042 -0.000783063 1.00374)
(-0.00171149 -0.000768643 1.00375)
(-0.00106694 -0.000756741 1.00363)
(-0.00367082 -0.000761494 1.01324)
(-0.00379187 -0.00072949 0.982886)
(0.00274243 -0.000313691 0.986741)
(0.00221002 -0.000309679 1.01245)
(-4.03717e-05 -0.000306408 1.00448)
(0.000295598 -0.000293943 1.00432)
(-0.000603199 -0.000282779 1.00401)
(-0.000872595 -0.000268823 1.00388)
(-0.00169347 -0.000253172 1.0039)
(-0.00105801 -0.0002416 1.0038)
(-0.00364824 -0.000238722 1.01342)
(-0.00376309 -0.000200483 0.983096)
(0.00277739 -0.00257198 0.995187)
(0.00223514 -0.00257758 1.021)
(-3.64742e-05 -0.00255104 1.01295)
(0.000307303 -0.00254148 1.01281)
(-0.000592449 -0.00252113 1.01249)
(-0.000861452 -0.00249966 1.01234)
(-0.00168464 -0.00247886 1.01237)
(-0.00105034 -0.00245042 1.01226)
(-0.00365435 -0.002467 1.02197)
(-0.00377915 -0.00237174 0.991482)
(0.00274256 -0.0029726 0.968324)
(0.0022302 -0.00300433 0.994058)
(-2.49674e-05 -0.00296849 0.986121)
(0.000320154 -0.00296893 0.985977)
(-0.00056488 -0.00295085 0.985708)
(-0.000827983 -0.00293442 0.985609)
(-0.00164042 -0.00292096 0.985668)
(-0.00102259 -0.00289044 0.98562)
(-0.00358072 -0.0029186 0.995141)
(-0.00368991 -0.00280968 0.965159)
(0.0027647 0.00309871 0.962665)
(0.00210892 0.00314123 0.992671)
(-0.000157165 0.00309864 0.98364)
(0.000212594 0.00309874 0.983422)
(-0.000785687 0.00306982 0.983127)
(-0.00093696 0.00303308 0.983029)
(-0.00178802 0.00298281 0.983147)
(-0.000881438 0.00288704 0.983302)
(-0.00331316 0.00283095 0.994312)
(-0.00369203 0.00256795 0.960554)
(0.0028131 0.00262044 0.994247)
(0.00212162 0.00263231 1.02441)
(-0.000170105 0.00259897 1.0152)
(0.000192669 0.00258341 1.01496)
(-0.000840319 0.00254367 1.01455)
(-0.00102686 0.00248468 1.01428)
(-0.00193251 0.00239684 1.01416)
(-0.00106182 0.00226049 1.01393)
(-0.00361307 0.00212164 1.02489)
(-0.00391105 0.0017443 0.989598)
(0.00277159 0.000371398 0.984568)
(0.00208977 0.00037063 1.01456)
(-0.000180264 0.000366076 1.00547)
(0.000165942 0.000349024 1.00523)
(-0.000878001 0.000325354 1.00486)
(-0.00108521 0.000284007 1.00464)
(-0.00201479 0.00021734 1.00457)
(-0.00118481 0.000124524 1.00441)
(-0.00380349 -1.61072e-05 1.01552)
(-0.00402101 -0.000323364 0.979892)
(0.00278249 0.000975356 0.984428)
(0.00208923 0.00098508 1.01444)
(-0.000192854 0.000977237 1.00534)
(0.000149059 0.000969797 1.0051)
(-0.000908171 0.000954304 1.00472)
(-0.00113469 0.000926181 1.00449)
(-0.00209119 0.000878933 1.00439)
(-0.00129611 0.000805501 1.00419)
(-0.00402721 0.000694207 1.01545)
(-0.00418136 0.000423896 0.979089)
(0.00277632 0.00010084 0.984246)
(0.00208481 0.000104691 1.01424)
(-0.000194596 0.00010547 1.00515)
(0.000142737 0.000107221 1.00491)
(-0.000922113 0.000106144 1.00453)
(-0.00116114 9.93059e-05 1.00429)
(-0.0021356 8.21022e-05 1.00418)
(-0.00137161 4.95142e-05 1.00397)
(-0.00417681 -1.88828e-05 1.01536)
(-0.00428194 -0.000170361 0.978505)
(0.0027797 8.85245e-06 0.984262)
(0.00208977 1.64892e-05 1.01425)
(-0.000189285 2.29405e-05 1.00517)
(0.00014983 3.47146e-05 1.00494)
(-0.000916077 4.79536e-05 1.00456)
(-0.0011588 6.24628e-05 1.00434)
(-0.0021406 7.51816e-05 1.00424)
(-0.00139702 8.17134e-05 1.00404)
(-0.00424359 5.83258e-05 1.01554)
(-0.00432389 1.65425e-05 0.978392)
(0.00279218 -0.000875541 0.984476)
(0.00210316 -0.000874739 1.01449)
(-0.00017846 -0.00086096 1.0054)
(0.000167689 -0.00084271 1.00518)
(-0.000894272 -0.000819449 1.00482)
(-0.00113383 -0.000790855 1.00461)
(-0.00211577 -0.000758692 1.00454)
(-0.00138456 -0.000725651 1.00437)
(-0.00425139 -0.000728203 1.01595)
(-0.00433038 -0.000679321 0.978734)
(0.00278696 -0.000289352 0.984642)
(0.00211135 -0.000282081 1.01464)
(-0.000159257 -0.000275553 1.00557)
(0.000191488 -0.000255212 1.00536)
(-0.000863882 -0.000234587 1.00501)
(-0.00109788 -0.000207776 1.00483)
(-0.00207498 -0.000175674 1.00478)
(-0.00136282 -0.000146095 1.00465)
(-0.00420899 -0.00014139 1.01623)
(-0.00428453 -6.99706e-05 0.979155)
(0.00283044 -0.00255767 0.99434)
(0.00214409 -0.00255947 1.0245)
(-0.000151454 -0.0025246 1.01531)
(0.000211288 -0.00250659 1.0151)
(-0.000844119 -0.00247238 1.01474)
(-0.00107519 -0.00243413 1.01454)
(-0.00205405 -0.00239387 1.01449)
(-0.00134848 -0.00234502 1.01435)
(-0.00419465 -0.00235583 1.02601)
(-0.00428382 -0.00218967 0.988773)
(0.00279192 -0.00307029 0.962783)
(0.0021432 -0.00310425 0.992837)
(-0.000132167 -0.00305934 0.983813)
(0.000236085 -0.00305552 0.983621)
(-0.00079671 -0.00302631 0.983342)
(-0.001017 -0.00299756 0.983229)
(-0.00198207 -0.00297109 0.983252)
(-0.00129815 -0.00292416 0.983209)
(-0.00406666 -0.00294926 0.994631)
(-0.00414021 -0.0027767 0.958183)
(0.00276395 0.00317776 0.957159)
(0.00197597 0.00322441 0.99136)
(-0.000296306 0.00317414 0.981316)
(6.2617e-05 0.00317073 0.98104)
(-0.00107843 0.00312889 0.980735)
(-0.001171 0.0030715 0.980622)
(-0.00211785 0.00298641 0.980725)
(-0.000979815 0.00282487 0.980973)
(-0.00331486 0.0026892 0.993651)
(-0.00380091 0.00220719 0.95532)
(0.00281925 0.00261199 0.99346)
(0.0019888 0.00262317 1.02788)
(-0.000314282 0.00258292 1.01758)
(3.14987e-05 0.00255936 1.01727)
(-0.00116131 0.00250157 1.01678)
(-0.0013139 0.0024102 1.01641)
(-0.00235876 0.00226413 1.01613)
(-0.00130578 0.00202252 1.01573)
(-0.00390747 0.00172998 1.02829)
(-0.00425336 0.000944143 0.987187)
(0.00277061 0.000374517 0.982553)
(0.00195063 0.000373735 1.01674)
(-0.000328936 0.000367656 1.00661)
(-6.64555e-06 0.000345083 1.00631)
(-0.00121827 0.000311366 1.00588)
(-0.00140913 0.000248872 1.00558)
(-0.00250704 0.000140095 1.00538)
(-0.00154994 -3.09963e-05 1.00511)
(-0.00437009 -0.000305762 1.01797)
(-0.00459772 -0.00100458 0.975969)
(0.00278322 0.00104067 0.982359)
(0.00194935 0.00105297 1.01657)
(-0.000344866 0.00104375 1.00643)
(-2.94582e-05 0.00103545 1.00612)
(-0.00126208 0.00101561 1.00569)
(-0.00148627 0.000976913 1.00537)
(-0.00263855 0.000905539 1.00513)
(-0.00176012 0.000783546 1.0048)
(-0.00482918 0.000594179 1.01796)
(-0.00495822 3.84212e-05 0.974375)
(0.00277588 7.19612e-05 0.982184)
(0.00194498 7.82441e-05 1.01636)
(-0.000345192 8.15788e-05 1.00624)
(-3.52607e-05 8.73704e-05 1.00594)
(-0.00127756 9.12391e-05 1.0055)
(-0.00152021 8.91701e-05 1.00519)
(-0.00270083 7.39072e-05 1.00494)
(-0.00187449 3.64479e-05 1.0046)
(-0.00508057 -5.44161e-05 1.01801)
(-0.00512814 -0.000326251 0.973403)
(0.00278146 7.27188e-05 0.982202)
(0.00195391 8.54512e-05 1.01639)
(-0.000334488 9.6725e-05 1.00627)
(-1.96772e-05 0.000117979 1.00597)