/*--------------------------------*- C++ -*----------------------------------*\
  =========                 |
  \\      /  F ield         | OpenFOAM: The Open Source CFD Toolbox
   \\    /   O peration     | Website:  https://openfoam.org
    \\  /    A nd           | Version:  6
     \\/     M anipulation  |
\*---------------------------------------------------------------------------*/
FoamFile
{
    version     2.0;
    format      ascii;
    class       volScalarField;
    location    "0.21";
    object      T;
}
// * * * * * * * * * * * * * * * * * * * * * * * * * * * * * * * * * * * * * //

dimensions      [0 0 0 1 0 0 0];

internalField   nonuniform List<scalar> 
7000
(
103.206
103.206
103.205
103.205
103.204
103.203
103.202
103.201
103.201
103.2
103.206
103.206
103.205
103.205
103.204
103.203
103.202
103.201
103.201
103.2
103.206
103.206
103.205
103.205
103.204
103.203
103.202
103.201
103.201
103.2
103.206
103.206
103.205
103.205
103.204
103.203
103.202
103.201
103.201
103.2
103.206
103.206
103.205
103.205
103.204
103.203
103.202
103.201
103.201
103.2
103.206
103.206
103.205
103.205
103.204
103.203
103.202
103.201
103.201
103.2
103.206
103.206
103.205
103.205
103.204
103.203
103.202
103.201
103.201
103.2
103.206
103.206
103.205
103.205
103.204
103.203
103.202
103.201
103.201
103.2
103.206
103.206
103.205
103.205
103.204
103.203
103.202
103.201
103.201
103.2
103.206
103.206
103.205
103.205
103.204
103.203
103.202
103.201
103.201
103.2
89.7808
89.7801
89.7789
89.7771
89.7746
89.7717
89.7685
89.7655
89.7631
89.7617
89.7807
89.7801
89.7788
89.777
89.7746
89.7716
89.7685
89.7654
89.763
89.7616
89.7807
89.78
89.7788
89.7769
89.7745
89.7716
89.7684
89.7654
89.7629
89.7616
89.7806
89.78
89.7787
89.7769
89.7745
89.7715
89.7684
89.7653
89.7629
89.7616
89.7806
89.7799
89.7787
89.7769
89.7744
89.7715
89.7684
89.7653
89.7629
89.7615
89.7806
89.7799
89.7787
89.7769
89.7744
89.7715
89.7684
89.7653
89.7629
89.7615
89.7806
89.7799
89.7787
89.7769
89.7745
89.7715
89.7684
89.7653
89.7629
89.7616
89.7806
89.78
89.7787
89.7769
89.7745
89.7716
89.7684
89.7654
89.7629
89.7616
89.7807
89.78
89.7788
89.7769
89.7745
89.7716
89.7685
89.7654
89.763
89.7616
89.7807
89.7801
89.7788
89.777
89.7746
89.7717
89.7685
89.7655
89.763
89.7617
76.8319
76.8307
76.8284
76.8248
76.8201
76.8143
76.8079
76.8016
76.7965
76.7936
76.8318
76.8306
76.8282
76.8247
76.82
76.8142
76.8078
76.8015
76.7964
76.7935
76.8317
76.8305
76.8282
76.8246
76.8199
76.8141
76.8077
76.8014
76.7963
76.7935
76.8317
76.8304
76.8281
76.8246
76.8198
76.814
76.8076
76.8014
76.7963
76.7934
76.8316
76.8304
76.8281
76.8245
76.8198
76.814
76.8076
76.8013
76.7962
76.7934
76.8316
76.8304
76.8281
76.8245
76.8198
76.814
76.8076
76.8013
76.7963
76.7934
76.8316
76.8304
76.8281
76.8245
76.8198
76.814
76.8076
76.8014
76.7963
76.7934
76.8317
76.8305
76.8281
76.8246
76.8199
76.8141
76.8077
76.8014
76.7963
76.7935
76.8317
76.8305
76.8282
76.8247
76.8199
76.8142
76.8078
76.8015
76.7964
76.7936
76.8318
76.8306
76.8283
76.8248
76.82
76.8143
76.8079
76.8016
76.7965
76.7937
64.6394
64.6374
64.6335
64.6276
64.6194
64.6092
64.5975
64.5858
64.5761
64.5705
64.6393
64.6373
64.6334
64.6274
64.6192
64.609
64.5974
64.5857
64.5759
64.5704
64.6392
64.6372
64.6333
64.6273
64.6191
64.6089
64.5973
64.5856
64.5758
64.5703
64.6391
64.6371
64.6332
64.6272
64.619
64.6088
64.5972
64.5855
64.5758
64.5702
64.639
64.637
64.6332
64.6272
64.619
64.6088
64.5972
64.5855
64.5758
64.5702
64.639
64.637
64.6332
64.6272
64.619
64.6088
64.5972
64.5855
64.5758
64.5702
64.6391
64.6371
64.6332
64.6272
64.619
64.6088
64.5972
64.5855
64.5758
64.5702
64.6391
64.6371
64.6332
64.6273
64.6191
64.6089
64.5973
64.5856
64.5759
64.5703
64.6392
64.6372
64.6333
64.6274
64.6192
64.609
64.5974
64.5857
64.576
64.5704
64.6393
64.6373
64.6335
64.6275
64.6193
64.6091
64.5975
64.5858
64.5761
64.5706
53.4315
53.4285
53.4224
53.4129
53.3995
53.3823
53.362
53.341
53.3228
53.312
53.4313
53.4283
53.4222
53.4127
53.3993
53.3821
53.3619
53.3408
53.3226
53.3119
53.4312
53.4282
53.4221
53.4126
53.3992
53.382
53.3618
53.3407
53.3225
53.3118
53.4311
53.4281
53.422
53.4125
53.3991
53.3819
53.3617
53.3406
53.3225
53.3117
53.4311
53.428
53.422
53.4124
53.3991
53.3819
53.3616
53.3406
53.3224
53.3117
53.4311
53.428
53.422
53.4125
53.3991
53.3819
53.3617
53.3406
53.3224
53.3117
53.4311
53.4281
53.422
53.4125
53.3991
53.3819
53.3617
53.3407
53.3225
53.3118
53.4312
53.4281
53.4221
53.4126
53.3992
53.382
53.3618
53.3407
53.3226
53.3119
53.4313
53.4283
53.4222
53.4127
53.3993
53.3821
53.3619
53.3409
53.3227
53.312
53.4314
53.4284
53.4224
53.4128
53.3995
53.3823
53.3621
53.341
53.3229
53.3122
43.3726
43.3682
43.3592
43.3446
43.3236
43.2956
43.2613
43.224
43.1902
43.1693
43.3724
43.368
43.359
43.3444
43.3234
43.2954
43.2611
43.2238
43.19
43.1691
43.3723
43.3679
43.3589
43.3443
43.3233
43.2953
43.261
43.2237
43.1899
43.1691
43.3722
43.3678
43.3588
43.3442
43.3232
43.2952
43.2609
43.2236
43.1898
43.169
43.3722
43.3678
43.3587
43.3442
43.3232
43.2952
43.2609
43.2236
43.1898
43.169
43.3722
43.3678
43.3587
43.3442
43.3232
43.2952
43.2609
43.2236
43.1898
43.169
43.3722
43.3678
43.3588
43.3442
43.3232
43.2952
43.261
43.2236
43.1899
43.169
43.3723
43.3679
43.3589
43.3443
43.3233
43.2953
43.2611
43.2237
43.19
43.1691
43.3724
43.368
43.359
43.3445
43.3235
43.2955
43.2612
43.2239
43.1901
43.1693
43.3725
43.3682
43.3592
43.3446
43.3236
43.2956
43.2614
43.2241
43.1903
43.1695
34.5582
34.5521
34.5392
34.5179
34.4862
34.4422
34.3856
34.3203
34.2572
34.2155
34.558
34.5519
34.539
34.5177
34.486
34.442
34.3855
34.3202
34.257
34.2154
34.5579
34.5517
34.5389
34.5176
34.4859
34.4419
34.3853
34.32
34.2569
34.2153
34.5578
34.5516
34.5388
34.5175
34.4858
34.4418
34.3853
34.32
34.2569
34.2152
34.5577
34.5516
34.5387
34.5175
34.4858
34.4418
34.3852
34.3199
34.2568
34.2152
34.5577
34.5516
34.5387
34.5175
34.4858
34.4418
34.3852
34.32
34.2568
34.2152
34.5578
34.5516
34.5388
34.5175
34.4858
34.4418
34.3853
34.32
34.2569
34.2153
34.5579
34.5517
34.5389
34.5176
34.4859
34.4419
34.3854
34.3201
34.257
34.2154
34.558
34.5519
34.539
34.5178
34.4861
34.4421
34.3855
34.3203
34.2572
34.2155
34.5581
34.552
34.5392
34.518
34.4863
34.4423
34.3857
34.3204
34.2573
34.2157
27.0162
27.0081
26.9906
26.9611
26.9155
26.8492
26.759
26.6468
26.5279
26.4407
27.016
27.0079
26.9904
26.9609
26.9153
26.8491
26.7588
26.6466
26.5277
26.4406
27.0159
27.0078
26.9903
26.9608
26.9152
26.8489
26.7587
26.6465
26.5276
26.4405
27.0158
27.0077
26.9902
26.9607
26.9151
26.8489
26.7586
26.6464
26.5276
26.4404
27.0158
27.0076
26.9902
26.9607
26.9151
26.8488
26.7586
26.6464
26.5276
26.4404
27.0158
27.0076
26.9902
26.9607
26.9151
26.8488
26.7586
26.6464
26.5276
26.4404
27.0158
27.0077
26.9903
26.9607
26.9151
26.8489
26.7587
26.6465
26.5276
26.4405
27.0159
27.0078
26.9903
26.9608
26.9152
26.849
26.7588
26.6466
26.5277
26.4406
27.016
27.0079
26.9905
26.961
26.9154
26.8491
26.7589
26.6467
26.5279
26.4407
27.0162
27.0081
26.9907
26.9612
26.9156
26.8493
26.7591
26.6469
26.5281
26.4409
20.7147
20.7045
20.6822
20.6435
20.5817
20.4875
20.3505
20.1638
19.939
19.7427
20.7145
20.7043
20.682
20.6434
20.5816
20.4874
20.3504
20.1636
19.9388
19.7426
20.7144
20.7042
20.6819
20.6432
20.5814
20.4873
20.3503
20.1635
19.9387
19.7425
20.7144
20.7041
20.6818
20.6432
20.5814
20.4872
20.3502
20.1635
19.9387
19.7425
20.7143
20.7041
20.6818
20.6431
20.5813
20.4872
20.3502
20.1635
19.9387
19.7424
20.7143
20.7041
20.6818
20.6432
20.5814
20.4872
20.3502
20.1635
19.9387
19.7425
20.7144
20.7042
20.6819
20.6432
20.5814
20.4873
20.3503
20.1635
19.9387
19.7425
20.7144
20.7042
20.682
20.6433
20.5815
20.4874
20.3503
20.1636
19.9388
19.7426
20.7146
20.7044
20.6821
20.6434
20.5816
20.4875
20.3505
20.1638
19.939
19.7427
20.7147
20.7045
20.6823
20.6436
20.5818
20.4877
20.3507
20.1639
19.9391
19.7429
15.5732
15.5612
15.5346
15.4875
15.4098
15.2862
15.0937
14.8022
14.3851
13.8966
15.5731
15.5611
15.5345
15.4873
15.4097
15.2861
15.0936
14.802
14.3849
13.8965
15.573
15.561
15.5344
15.4872
15.4096
15.286
15.0935
14.802
14.3849
13.8964
15.5729
15.5609
15.5343
15.4872
15.4096
15.2859
15.0934
14.8019
14.3848
13.8964
15.5729
15.5609
15.5343
15.4871
15.4095
15.2859
15.0934
14.8019
14.3848
13.8964
15.5729
15.5609
15.5343
15.4872
15.4095
15.2859
15.0934
14.8019
14.3848
13.8964
15.5729
15.5609
15.5343
15.4872
15.4096
15.2859
15.0935
14.802
14.3849
13.8964
15.573
15.561
15.5344
15.4873
15.4097
15.286
15.0936
14.8021
14.385
13.8965
15.5731
15.5611
15.5345
15.4874
15.4098
15.2862
15.0937
14.8022
14.3851
13.8966
15.5732
15.5613
15.5347
15.4876
15.41
15.2863
15.0939
14.8023
14.3852
13.8968
11.4766
11.4635
11.434
11.3812
11.2926
11.1472
10.909
10.5124
9.81605
8.44237
11.4765
11.4633
11.4339
11.3811
11.2925
11.147
10.9089
10.5123
9.81596
8.4423
11.4764
11.4632
11.4338
11.3811
11.2924
11.147
10.9089
10.5122
9.8159
8.44225
11.4764
11.4632
11.4338
11.381
11.2924
11.1469
10.9088
10.5122
9.81586
8.44222
11.4764
11.4632
11.4337
11.381
11.2924
11.1469
10.9088
10.5122
9.81586
8.44221
11.4764
11.4632
11.4338
11.381
11.2924
11.1469
10.9088
10.5122
9.81587
8.44223
11.4764
11.4632
11.4338
11.381
11.2924
11.147
10.9089
10.5122
9.81591
8.44226
11.4765
11.4633
11.4339
11.3811
11.2925
11.147
10.9089
10.5123
9.81599
8.44233
11.4766
11.4634
11.434
11.3812
11.2926
11.1471
10.909
10.5124
9.81608
8.44241
11.4767
11.4635
11.4341
11.3814
11.2928
11.1473
10.9092
10.5125
9.81621
8.44253
8.28903
8.27563
8.24563
8.19173
8.10105
7.95215
7.70968
7.31434
6.66592
5.60851
8.28893
8.27553
8.24553
8.19164
8.10095
7.95207
7.7096
7.31426
6.66585
5.60845
8.28886
8.27546
8.24546
8.19157
8.10089
7.952
7.70954
7.31421
6.6658
5.60841
8.28882
8.27541
8.24542
8.19153
8.10085
7.95197
7.70951
7.31417
6.66577
5.60839
8.2888
8.2754
8.2454
8.19151
8.10084
7.95195
7.7095
7.31417
6.66577
5.60838
8.28881
8.27541
8.24541
8.19152
8.10085
7.95197
7.70951
7.31418
6.66578
5.60839
8.28884
8.27544
8.24545
8.19156
8.10089
7.95201
7.70955
7.31422
6.66582
5.60842
8.2889
8.2755
8.24551
8.19163
8.10095
7.95207
7.70961
7.31428
6.66587
5.60848
8.28898
8.27559
8.2456
8.19172
8.10105
7.95217
7.7097
7.31437
6.66595
5.60855
8.28907
8.2757
8.24572
8.19184
8.10117
7.95229
7.70982
7.31448
6.66606
5.60864
5.86668
5.85402
5.82579
5.77539
5.69156
5.55648
5.34324
5.01333
4.51813
3.81874
5.8666
5.85394
5.82571
5.77532
5.69149
5.55641
5.34317
5.01327
4.51807
3.81869
5.86655
5.85389
5.82565
5.77526
5.69144
5.55636
5.34313
5.01323
4.51803
3.81866
5.86651
5.85385
5.82562
5.77523
5.69141
5.55634
5.3431
5.0132
4.51801
3.81864
5.8665
5.85384
5.82561
5.77522
5.6914
5.55633
5.34309
5.0132
4.51801
3.81864
5.86651
5.85385
5.82562
5.77523
5.69141
5.55634
5.34311
5.01321
4.51802
3.81865
5.86653
5.85388
5.82565
5.77526
5.69144
5.55637
5.34314
5.01324
4.51805
3.81868
5.86658
5.85393
5.8257
5.77532
5.6915
5.55643
5.34319
5.01329
4.5181
3.81872
5.86665
5.854
5.82578
5.77539
5.69157
5.5565
5.34327
5.01336
4.51816
3.81877
5.86673
5.8541
5.82588
5.77549
5.69167
5.5566
5.34336
5.01345
4.51825
3.81885
4.06868
4.05752
4.03281
3.98924
3.9181
3.80651
3.63698
3.38855
3.04256
2.59878
4.06862
4.05746
4.03275
3.98918
3.91804
3.80646
3.63693
3.38851
3.04252
2.59874
4.06857
4.05742
4.03271
3.98914
3.918
3.80642
3.6369
3.38847
3.04249
2.59871
4.06855
4.05739
4.03268
3.98911
3.91798
3.8064
3.63688
3.38846
3.04247
2.5987
4.06854
4.05738
4.03267
3.98911
3.91798
3.80639
3.63687
3.38845
3.04247
2.5987
4.06854
4.05739
4.03268
3.98912
3.91799
3.8064
3.63688
3.38846
3.04248
2.59871
4.06857
4.05742
4.03271
3.98914
3.91801
3.80643
3.63691
3.38849
3.0425
2.59873
4.06861
4.05746
4.03275
3.98919
3.91806
3.80647
3.63695
3.38853
3.04254
2.59876
4.06866
4.05751
4.03281
3.98925
3.91812
3.80654
3.63701
3.38858
3.04259
2.59881
4.06872
4.05759
4.03289
3.98933
3.9182
3.80661
3.63709
3.38865
3.04266
2.59886
2.76491
2.75568
2.7354
2.70018
2.6439
2.55813
2.43265
2.2574
2.02729
1.75096
2.76487
2.75563
2.73535
2.70014
2.64386
2.55809
2.43261
2.25736
2.02725
1.75093
2.76483
2.7556
2.73532
2.7001
2.64383
2.55806
2.43258
2.25734
2.02723
1.75091
2.76481
2.75558
2.7353
2.70009
2.64381
2.55804
2.43257
2.25732
2.02722
1.7509
2.76481
2.75557
2.7353
2.70008
2.64381
2.55804
2.43256
2.25732
2.02722
1.7509
2.76481
2.75558
2.7353
2.70009
2.64381
2.55805
2.43257
2.25733
2.02723
1.75091
2.76483
2.7556
2.73532
2.70011
2.64384
2.55807
2.43259
2.25735
2.02724
1.75092
2.76486
2.75563
2.73536
2.70015
2.64387
2.55811
2.43263
2.25738
2.02727
1.75095
2.7649
2.75568
2.73541
2.70019
2.64392
2.55815
2.43267
2.25742
2.02731
1.75098
2.76495
2.75574
2.73547
2.70026
2.64398
2.55821
2.43273
2.25748
2.02736
1.75103
1.84115
1.83392
1.8182
1.79133
1.74931
1.68704
1.59904
1.48107
1.33324
1.16407
1.84112
1.83389
1.81817
1.79129
1.74928
1.68701
1.59901
1.48105
1.33321
1.16405
1.84109
1.83387
1.81814
1.79127
1.74926
1.68699
1.59899
1.48103
1.3332
1.16403
1.84108
1.83385
1.81813
1.79126
1.74924
1.68698
1.59898
1.48102
1.33319
1.16402
1.84107
1.83385
1.81813
1.79126
1.74924
1.68698
1.59898
1.48102
1.33319
1.16402
1.84108
1.83385
1.81813
1.79126
1.74925
1.68699
1.59898
1.48103
1.33319
1.16403
1.84109
1.83387
1.81815
1.79128
1.74926
1.687
1.599
1.48104
1.33321
1.16404
1.84112
1.83389
1.81818
1.7913
1.74929
1.68703
1.59902
1.48107
1.33323
1.16406
1.84115
1.83393
1.81821
1.79134
1.74933
1.68706
1.59906
1.4811
1.33326
1.16409
1.84119
1.83397
1.81826
1.79139
1.74937
1.68711
1.5991
1.48114
1.3333
1.16412
1.20145
1.19607
1.18447
1.16496
1.1351
1.09201
1.03297
0.956647
0.864712
0.763703
1.20142
1.19604
1.18445
1.16494
1.13508
1.09198
1.03295
0.956629
0.864695
0.763688
1.20141
1.19602
1.18443
1.16493
1.13507
1.09197
1.03294
0.956617
0.864684
0.763677
1.2014
1.19601
1.18442
1.16492
1.13506
1.09196
1.03293
0.95661
0.864678
0.763672
1.20139
1.19601
1.18442
1.16491
1.13506
1.09196
1.03293
0.956609
0.864677
0.763671
1.2014
1.19602
1.18442
1.16492
1.13506
1.09197
1.03294
0.956614
0.864682
0.763675
1.20141
1.19603
1.18444
1.16493
1.13507
1.09198
1.03295
0.956626
0.864693
0.763685
1.20143
1.19605
1.18446
1.16495
1.13509
1.092
1.03297
0.956643
0.864709
0.7637
1.20145
1.19607
1.18448
1.16498
1.13512
1.09202
1.03299
0.956667
0.864731
0.76372
1.20148
1.19611
1.18452
1.16501
1.13516
1.09206
1.03302
0.956697
0.864759
0.763746
0.768359
0.764528
0.756355
0.74281
0.722497
0.693909
0.655914
0.608511
0.553768
0.496552
0.768341
0.764511
0.756338
0.742794
0.722482
0.693894
0.6559
0.608498
0.553756
0.496541
0.76833
0.7645
0.756327
0.742783
0.722471
0.693884
0.655891
0.608489
0.553748
0.496533
0.768323
0.764493
0.75632
0.742777
0.722465
0.693879
0.655886
0.608485
0.553744
0.496529
0.768321
0.764491
0.756319
0.742776
0.722465
0.693878
0.655885
0.608485
0.553743
0.496529
0.768325
0.764495
0.756323
0.74278
0.722469
0.693882
0.655889
0.608489
0.553747
0.496533
0.768333
0.764503
0.756331
0.742789
0.722478
0.693891
0.655898
0.608497
0.553755
0.49654
0.768346
0.764517
0.756345
0.742803
0.722492
0.693905
0.655911
0.608509
0.553767
0.496551
0.768363
0.764536
0.756365
0.742823
0.722511
0.693924
0.65593
0.608527
0.553783
0.496566
0.768383
0.76456
0.75639
0.742848
0.722536
0.693948
0.655953
0.608548
0.553803
0.496584
0.48163
0.479013
0.473482
0.464451
0.451177
0.432966
0.409538
0.381562
0.351354
0.323466
0.481618
0.479002
0.473471
0.46444
0.451166
0.432956
0.409528
0.381553
0.351346
0.323458
0.48161
0.478994
0.473463
0.464433
0.451159
0.43295
0.409522
0.381547
0.35134
0.323452
0.481606
0.47899
0.473459
0.464429
0.451156
0.432946
0.409519
0.381544
0.351337
0.32345
0.481605
0.478989
0.473458
0.464428
0.451155
0.432946
0.409519
0.381544
0.351337
0.32345
0.481607
0.478991
0.473461
0.464431
0.451158
0.432949
0.409522
0.381547
0.35134
0.323452
0.481613
0.478997
0.473467
0.464437
0.451164
0.432955
0.409528
0.381553
0.351345
0.323458
0.481622
0.479007
0.473477
0.464447
0.451174
0.432965
0.409537
0.381562
0.351354
0.323466
0.481635
0.47902
0.47349
0.464461
0.451188
0.432978
0.40955
0.381574
0.351365
0.323476
0.481649
0.479037
0.473508
0.464479
0.451205
0.432995
0.409566
0.381589
0.35138
0.32349
0.295941
0.29422
0.290615
0.284815
0.276461
0.265302
0.251471
0.235922
0.221246
0.213665
0.295933
0.294212
0.290608
0.284808
0.276454
0.265296
0.251465
0.235916
0.22124
0.213659
0.295928
0.294207
0.290603
0.284803
0.276449
0.265291
0.251461
0.235912
0.221237
0.213655
0.295925
0.294204
0.2906
0.284801
0.276447
0.265289
0.251458
0.235911
0.221235
0.213653
0.295924
0.294204
0.290599
0.2848
0.276447
0.265289
0.251458
0.235911
0.221235
0.213653
0.295926
0.294206
0.290601
0.284802
0.276449
0.265291
0.25146
0.235913
0.221237
0.213655
0.29593
0.29421
0.290606
0.284807
0.276453
0.265295
0.251465
0.235917
0.221241
0.213659
0.295937
0.294217
0.290613
0.284814
0.27646
0.265302
0.251471
0.235923
0.221247
0.213665
0.295945
0.294226
0.290622
0.284823
0.276469
0.265311
0.25148
0.235931
0.221255
0.213673
0.295955
0.294237
0.290634
0.284835
0.276481
0.265323
0.251491
0.235942
0.221265
0.213683
5.10772
3.34166
2.44385
2.14151
2.35522
3.13215
4.64445
7.2354
11.5444
18.8324
5.10766
3.34161
2.4438
2.14146
2.35515
3.13207
4.64434
7.23525
11.5441
18.8321
5.10762
3.34158
2.44377
2.14143
2.35511
3.13201
4.64427
7.23515
11.544
18.832
5.1076
3.34156
2.44375
2.14141
2.35508
3.13197
4.64422
7.23508
11.5439
18.8318
5.1076
3.34156
2.44374
2.1414
2.35507
3.13195
4.64419
7.23505
11.5439
18.8318
5.10761
3.34156
2.44375
2.1414
2.35507
3.13195
4.64419
7.23505
11.5439
18.8318
5.10764
3.34159
2.44377
2.14141
2.35509
3.13197
4.64422
7.23508
11.5439
18.8319
5.10768
3.34162
2.4438
2.14144
2.35511
3.132
4.64425
7.23514
11.544
18.832
5.10774
3.34167
2.44383
2.14147
2.35515
3.13204
4.64431
7.23521
11.5441
18.8321
5.10782
3.34172
2.44388
2.14151
2.35518
3.13209
4.64437
7.23529
11.5442
18.8323
4.02938
2.86574
2.1937
1.96934
2.18118
2.88376
4.21288
6.40198
9.78886
14.7343
4.02933
2.86569
2.19365
1.96929
2.18113
2.88369
4.21279
6.40185
9.78868
14.7341
4.02929
2.86566
2.19362
1.96926
2.18109
2.88363
4.21272
6.40175
9.78855
14.7339
4.02927
2.86564
2.1936
1.96924
2.18106
2.8836
4.21267
6.40169
9.78847
14.7338
4.02927
2.86564
2.1936
1.96923
2.18105
2.88358
4.21265
6.40166
9.78844
14.7338
4.02928
2.86565
2.1936
1.96923
2.18105
2.88358
4.21265
6.40166
9.78844
14.7338
4.02931
2.86567
2.19362
1.96925
2.18106
2.8836
4.21267
6.40169
9.78848
14.7339
4.02935
2.8657
2.19365
1.96927
2.18109
2.88363
4.21271
6.40175
9.78856
14.734
4.0294
2.86574
2.19369
1.96931
2.18113
2.88367
4.21276
6.40182
9.78866
14.7341
4.02948
2.8658
2.19373
1.96935
2.18118
2.88373
4.21284
6.40192
9.7888
14.7343
2.96404
2.25668
1.81845
1.6855
1.8846
2.46805
3.52693
5.188
7.57979
10.7213
2.964
2.25664
1.81841
1.68546
1.88455
2.46799
3.52685
5.18789
7.57965
10.7211
2.96397
2.25662
1.81838
1.68543
1.88451
2.46794
3.52678
5.18781
7.57954
10.721
2.96396
2.2566
1.81837
1.68541
1.88449
2.46791
3.52675
5.18776
7.57948
10.7209
2.96395
2.2566
1.81836
1.6854
1.88448
2.4679
3.52673
5.18773
7.57945
10.7209
2.96396
2.25661
1.81837
1.6854
1.88448
2.4679
3.52673
5.18774
7.57945
10.7209
2.96399
2.25662
1.81838
1.68542
1.88449
2.46792
3.52675
5.18776
7.57949
10.7209
2.96402
2.25665
1.81841
1.68544
1.88452
2.46794
3.52678
5.18781
7.57956
10.721
2.96407
2.25669
1.81844
1.68547
1.88455
2.46799
3.52684
5.18789
7.57965
10.7211
2.96413
2.25675
1.81849
1.68552
1.8846
2.46804
3.52691
5.18798
7.57978
10.7213
2.10665
1.68698
1.42269
1.36008
1.53422
1.98705
2.77341
3.95228
5.55605
7.52678
2.10661
1.68695
1.42266
1.36005
1.53418
1.987
2.77334
3.95219
5.55594
7.52664
2.10659
1.68693
1.42264
1.36002
1.53415
1.98696
2.77329
3.95213
5.55586
7.52654
2.10658
1.68692
1.42262
1.36001
1.53413
1.98694
2.77325
3.95208
5.5558
7.52648
2.10657
1.68691
1.42262
1.36
1.53412
1.98692
2.77324
3.95207
5.55578
7.52645
2.10658
1.68692
1.42262
1.36001
1.53412
1.98693
2.77324
3.95207
5.55578
7.52646
2.1066
1.68693
1.42264
1.36002
1.53413
1.98694
2.77326
3.95209
5.55582
7.5265
2.10663
1.68696
1.42266
1.36004
1.53416
1.98697
2.77329
3.95214
5.55587
7.52658
2.10667
1.68699
1.42269
1.36007
1.53419
1.98701
2.77334
3.9522
5.55596
7.52668
2.10672
1.68704
1.42273
1.36011
1.53423
1.98706
2.77341
3.95229
5.55607
7.52683
1.46147
1.21612
1.0654
1.04621
1.18845
1.52181
2.07693
2.87756
3.92169
5.15292
1.46144
1.21609
1.06537
1.04619
1.18842
1.52177
2.07687
2.87749
3.9216
5.15282
1.46142
1.21608
1.06536
1.04617
1.18839
1.52174
2.07683
2.87744
3.92154
5.15274
1.46141
1.21607
1.06534
1.04615
1.18838
1.52172
2.07681
2.87741
3.9215
5.1527
1.46141
1.21606
1.06534
1.04615
1.18837
1.52171
2.0768
2.8774
3.92148
5.15268
1.46142
1.21607
1.06535
1.04615
1.18837
1.52171
2.0768
2.8774
3.92149
5.15268
1.46143
1.21608
1.06536
1.04616
1.18838
1.52172
2.07681
2.87742
3.92151
5.15272
1.46146
1.2161
1.06538
1.04618
1.1884
1.52175
2.07684
2.87746
3.92156
5.15278
1.46149
1.21613
1.0654
1.04621
1.18843
1.52178
2.07688
2.87751
3.92163
5.15286
1.46153
1.21617
1.06543
1.04624
1.18847
1.52182
2.07694
2.87758
3.92172
5.15298
0.993943
0.853074
0.771585
0.774972
0.884836
1.1205
1.49808
2.02519
2.69107
3.4555
0.993924
0.853055
0.771565
0.77495
0.884809
1.12046
1.49804
2.02514
2.69101
3.45543
0.99391
0.853042
0.771551
0.774934
0.88479
1.12044
1.49801
2.0251
2.69096
3.45537
0.993903
0.853034
0.771543
0.774925
0.884778
1.12043
1.49799
2.02508
2.69093
3.45534
0.993902
0.853033
0.77154
0.774921
0.884773
1.12042
1.49798
2.02507
2.69092
3.45532
0.993907
0.853037
0.771544
0.774924
0.884776
1.12042
1.49798
2.02507
2.69092
3.45533
0.993918
0.853047
0.771553
0.774933
0.884785
1.12043
1.498
2.02509
2.69094
3.45536
0.993936
0.853063
0.771568
0.774948
0.884801
1.12045
1.49802
2.02512
2.69098
3.4554
0.99396
0.853085
0.771589
0.774969
0.884824
1.12048
1.49805
2.02516
2.69104
3.45547
0.993992
0.853114
0.771616
0.774996
0.884854
1.12051
1.4981
2.02522
2.69111
3.45556
0.665838
0.587508
0.5466
0.559762
0.641439
0.803515
1.05392
1.39338
1.81082
2.27982
0.665823
0.587493
0.546585
0.559744
0.641419
0.803489
1.05389
1.39334
1.81077
2.27977
0.665813
0.587483
0.546574
0.559732
0.641404
0.803471
1.05387
1.39332
1.81074
2.27973
0.665808
0.587477
0.546568
0.559725
0.641395
0.80346
1.05385
1.3933
1.81072
2.27971
0.665807
0.587476
0.546566
0.559723
0.641392
0.803455
1.05385
1.39329
1.81071
2.2797
0.665811
0.58748
0.546569
0.559725
0.641394
0.803458
1.05385
1.3933
1.81071
2.2797
0.66582
0.587488
0.546577
0.559732
0.641401
0.803466
1.05386
1.39331
1.81073
2.27972
0.665833
0.5875
0.546588
0.559744
0.641414
0.803481
1.05388
1.39333
1.81076
2.27976
0.665852
0.587517
0.546605
0.559761
0.641433
0.803503
1.0539
1.39337
1.8108
2.27981
0.665875
0.587539
0.546626
0.559782
0.641457
0.803531
1.05394
1.39341
1.81085
2.27988
0.444132
0.403827
0.386398
0.402917
0.462993
0.573772
0.738652
0.955293
1.21347
1.49469
0.444121
0.403816
0.386386
0.402903
0.462977
0.573753
0.738629
0.955264
1.21343
1.49465
0.444113
0.403808
0.386378
0.402894
0.462966
0.573739
0.738612
0.955244
1.21341
1.49463
0.444109
0.403804
0.386373
0.402889
0.462959
0.573731
0.738602
0.955231
1.21339
1.49461
0.444109
0.403804
0.386372
0.402887
0.462957
0.573727
0.738598
0.955226
1.21339
1.4946
0.444112
0.403806
0.386374
0.402889
0.462959
0.573729
0.7386
0.955229
1.21339
1.49461
0.444119
0.403812
0.38638
0.402895
0.462965
0.573737
0.738608
0.95524
1.21341
1.49462
0.444129
0.403822
0.386389
0.402904
0.462975
0.573749
0.738623
0.955258
1.21343
1.49465
0.444143
0.403835
0.386402
0.402917
0.46299
0.573766
0.738644
0.955284
1.21346
1.49469
0.44416
0.403851
0.386418
0.402934
0.463009
0.573788
0.738671
0.955317
1.2135
1.49474
0.303716
0.287828
0.284126
0.301599
0.34743
0.426159
0.538682
0.680743
0.841243
1.00193
0.303708
0.287819
0.284117
0.301589
0.347418
0.426144
0.538664
0.680721
0.841218
1.0019
0.303702
0.287813
0.284111
0.301581
0.347409
0.426134
0.538652
0.680706
0.841201
1.00188
0.3037
0.28781
0.284107
0.301577
0.347404
0.426128
0.538644
0.680697
0.84119
1.00187
0.303699
0.28781
0.284107
0.301576
0.347403
0.426125
0.538641
0.680693
0.841186
1.00187
0.303702
0.287812
0.284109
0.301578
0.347404
0.426127
0.538643
0.680696
0.841189
1.00187
0.303707
0.287817
0.284113
0.301583
0.34741
0.426133
0.53865
0.680704
0.8412
1.00188
0.303715
0.287825
0.284121
0.30159
0.347418
0.426143
0.538662
0.680719
0.841217
1.0019
0.303725
0.287835
0.284131
0.301601
0.34743
0.426157
0.538679
0.680739
0.841242
1.00193
0.303738
0.287847
0.284144
0.301615
0.347445
0.426175
0.5387
0.680766
0.841273
1.00197
0.23007
0.230505
0.234185
0.252058
0.290922
0.35429
0.44185
0.547896
0.658397
0.745009
0.230064
0.230499
0.234178
0.25205
0.290913
0.354279
0.441837
0.547881
0.658379
0.74499
0.23006
0.230495
0.234173
0.252044
0.290906
0.354271
0.441827
0.547869
0.658366
0.744975
0.230058
0.230492
0.23417
0.252041
0.290902
0.354266
0.441821
0.547862
0.658357
0.744966
0.230058
0.230492
0.23417
0.25204
0.290901
0.354264
0.441819
0.547859
0.658355
0.744963
0.23006
0.230494
0.234172
0.252042
0.290902
0.354266
0.441821
0.547861
0.658358
0.744967
0.230064
0.230498
0.234176
0.252046
0.290907
0.354271
0.441827
0.547869
0.658367
0.744977
0.23007
0.230505
0.234182
0.252053
0.290915
0.35428
0.441838
0.547882
0.658381
0.744994
0.230079
0.230513
0.234191
0.252062
0.290925
0.354292
0.441852
0.547899
0.658402
0.745017
0.230089
0.230524
0.234202
0.252074
0.290938
0.354307
0.441871
0.547921
0.658428
0.745046
31.9268
37.3248
40.0576
41.6103
42.5395
43.1054
43.4493
43.6536
43.7673
43.818
31.9264
37.3243
40.0571
41.6098
42.5389
43.1049
43.4488
43.6531
43.7668
43.8176
31.9261
37.324
40.0568
41.6094
42.5386
43.1046
43.4484
43.6527
43.7665
43.8173
31.9259
37.3238
40.0566
41.6092
42.5384
43.1044
43.4482
43.6526
43.7663
43.8172
31.9259
37.3238
40.0565
41.6092
42.5383
43.1043
43.4482
43.6525
43.7663
43.8172
31.9259
37.3238
40.0565
41.6092
42.5384
43.1043
43.4482
43.6526
43.7663
43.8172
31.926
37.3239
40.0567
41.6093
42.5385
43.1045
43.4484
43.6527
43.7665
43.8174
31.9261
37.3241
40.0569
41.6096
42.5388
43.1048
43.4487
43.653
43.7668
43.8177
31.9264
37.3244
40.0572
41.6099
42.5392
43.1052
43.4491
43.6534
43.7672
43.8181
31.9267
37.3247
40.0576
41.6104
42.5396
43.1056
43.4496
43.6539
43.7677
43.8186
21.0699
25.2714
27.8332
29.3877
30.337
30.9177
31.2703
31.4792
31.5953
31.647
21.0696
25.2711
27.8329
29.3874
30.3366
30.9173
31.2699
31.4789
31.5949
31.6467
21.0694
25.2708
27.8326
29.3871
30.3364
30.9171
31.2696
31.4786
31.5947
31.6465
21.0693
25.2707
27.8325
29.3869
30.3362
30.9169
31.2695
31.4784
31.5945
31.6464
21.0692
25.2706
27.8324
29.3869
30.3361
30.9169
31.2694
31.4784
31.5945
31.6464
21.0692
25.2707
27.8324
29.3869
30.3362
30.9169
31.2695
31.4785
31.5946
31.6464
21.0693
25.2708
27.8325
29.387
30.3363
30.917
31.2696
31.4786
31.5947
31.6466
21.0694
25.2709
27.8327
29.3872
30.3365
30.9173
31.2699
31.4789
31.595
31.6468
21.0696
25.2712
27.833
29.3875
30.3369
30.9176
31.2702
31.4792
31.5953
31.6472
21.0699
25.2715
27.8334
29.3879
30.3373
30.918
31.2706
31.4797
31.5958
31.6477
14.2499
17.0718
19.0462
20.351
21.1893
21.7176
22.0442
22.2399
22.3493
22.3983
14.2496
17.0715
19.0459
20.3507
21.189
21.7173
22.0439
22.2396
22.3491
22.3981
14.2495
17.0713
19.0457
20.3505
21.1888
21.7171
22.0437
22.2394
22.3489
22.3979
14.2494
17.0712
19.0456
20.3504
21.1886
21.717
22.0436
22.2393
22.3488
22.3978
14.2493
17.0712
19.0456
20.3504
21.1886
21.717
22.0435
22.2393
22.3487
22.3978
14.2494
17.0712
19.0456
20.3504
21.1886
21.717
22.0436
22.2393
22.3488
22.3978
14.2494
17.0713
19.0457
20.3505
21.1887
21.7171
22.0437
22.2395
22.3489
22.398
14.2495
17.0714
19.0458
20.3507
21.1889
21.7173
22.0439
22.2397
22.3491
22.3982
14.2497
17.0716
19.0461
20.3509
21.1892
21.7176
22.0442
22.24
22.3494
22.3985
14.2499
17.0719
19.0464
20.3513
21.1895
21.7179
22.0446
22.2404
22.3498
22.3989
9.62889
11.4541
12.8495
13.8393
14.509
14.9469
15.2248
15.3943
15.4902
15.5334
9.62873
11.4539
12.8493
13.8391
14.5088
14.9467
15.2245
15.3941
15.49
15.5333
9.62861
11.4538
12.8492
13.839
14.5086
14.9466
15.2244
15.3939
15.4899
15.5331
9.62854
11.4537
12.8491
13.8389
14.5085
14.9465
15.2243
15.3938
15.4898
15.5331
9.62851
11.4537
12.8491
13.8388
14.5085
14.9464
15.2243
15.3938
15.4898
15.533
9.62852
11.4537
12.8491
13.8388
14.5085
14.9465
15.2243
15.3939
15.4898
15.5331
9.62857
11.4538
12.8492
13.8389
14.5086
14.9466
15.2244
15.394
15.4899
15.5332
9.62866
11.4539
12.8493
13.8391
14.5087
14.9467
15.2246
15.3941
15.4901
15.5334
9.6288
11.454
12.8495
13.8393
14.509
14.9469
15.2248
15.3944
15.4903
15.5336
9.62898
11.4542
12.8497
13.8395
14.5092
14.9472
15.2251
15.3947
15.4906
15.5339
6.43871
7.60135
8.54233
9.24669
9.74524
10.0832
10.3037
10.441
10.5198
10.5556
6.43859
7.60122
8.54218
9.24653
9.74508
10.0831
10.3035
10.4408
10.5197
10.5555
6.4385
7.60112
8.54207
9.24642
9.74496
10.0829
10.3034
10.4407
10.5196
10.5554
6.43845
7.60106
8.54201
9.24635
9.74489
10.0829
10.3033
10.4406
10.5195
10.5554
6.43842
7.60103
8.54198
9.24632
9.74487
10.0828
10.3033
10.4406
10.5195
10.5554
6.43843
7.60105
8.542
9.24634
9.74489
10.0829
10.3033
10.4407
10.5195
10.5554
6.43848
7.6011
8.54206
9.24641
9.74496
10.0829
10.3034
10.4407
10.5196
10.5555
6.43855
7.60118
8.54216
9.24652
9.74508
10.0831
10.3035
10.4409
10.5198
10.5556
6.43866
7.60131
8.5423
9.24668
9.74525
10.0833
10.3037
10.4411
10.5199
10.5558
6.4388
7.60148
8.54249
9.24688
9.74547
10.0835
10.3039
10.4413
10.5202
10.5561
4.24593
4.97704
5.59161
6.07072
6.42279
6.6693
6.83441
6.93946
7.0007
7.02878
4.24584
4.97694
5.59151
6.0706
6.42267
6.66917
6.83429
6.93934
7.00058
7.0287
4.24578
4.97687
5.59143
6.07052
6.42258
6.66909
6.8342
6.93926
7.00051
7.02863
4.24574
4.97682
5.59138
6.07047
6.42253
6.66904
6.83415
6.93921
7.00047
7.02859
4.24573
4.97681
5.59137
6.07045
6.42252
6.66903
6.83414
6.9392
7.00046
7.02859
4.24574
4.97682
5.59138
6.07047
6.42254
6.66905
6.83417
6.93923
7.00049
7.02862
4.24577
4.97686
5.59142
6.07052
6.42259
6.66911
6.83423
6.9393
7.00056
7.02869
4.24583
4.97693
5.5915
6.07061
6.42269
6.6692
6.83433
6.9394
7.00066
7.0288
4.24591
4.97702
5.59161
6.07073
6.42281
6.66934
6.83447
6.93954
7.00081
7.02894
4.24601
4.97715
5.59175
6.07088
6.42298
6.66951
6.83465
6.93973
7.001
7.02913
2.76087
3.21227
3.60234
3.91633
4.15446
4.32604
4.44382
4.52029
4.56554
4.58649
2.76081
3.2122
3.60226
3.91625
4.15438
4.32595
4.44373
4.5202
4.56546
4.58643
2.76076
3.21215
3.60221
3.91619
4.15432
4.32589