/*--------------------------------*- C++ -*----------------------------------*\
  =========                 |
  \\      /  F ield         | OpenFOAM: The Open Source CFD Toolbox
   \\    /   O peration     | Website:  https://openfoam.org
    \\  /    A nd           | Version:  6
     \\/     M anipulation  |
\*---------------------------------------------------------------------------*/
FoamFile
{
    version     2.0;
    format      ascii;
    class       volScalarField;
    location    "0.885";
    object      T;
}
// * * * * * * * * * * * * * * * * * * * * * * * * * * * * * * * * * * * * * //

dimensions      [0 0 0 1 0 0 0];

internalField   nonuniform List<scalar> 
7000
(
106.594
106.593
106.59
106.587
106.582
106.578
106.573
106.569
106.566
106.564
106.594
106.593
106.59
106.587
106.582
106.578
106.573
106.569
106.566
106.564
106.594
106.593
106.59
106.587
106.582
106.578
106.573
106.569
106.566
106.564
106.594
106.593
106.59
106.587
106.582
106.578
106.573
106.569
106.566
106.564
106.594
106.593
106.59
106.587
106.582
106.578
106.573
106.569
106.566
106.564
106.594
106.593
106.59
106.587
106.582
106.578
106.573
106.569
106.566
106.564
106.594
106.593
106.59
106.587
106.582
106.578
106.573
106.569
106.566
106.564
106.594
106.593
106.59
106.587
106.582
106.578
106.573
106.569
106.566
106.564
106.594
106.593
106.59
106.587
106.582
106.578
106.573
106.569
106.566
106.564
106.594
106.593
106.59
106.587
106.582
106.578
106.573
106.569
106.566
106.564
99.8019
99.798
99.7906
99.78
99.7672
99.7531
99.739
99.7266
99.7172
99.7122
99.8019
99.798
99.7906
99.78
99.7672
99.7531
99.739
99.7266
99.7172
99.7122
99.8019
99.798
99.7906
99.78
99.7672
99.7531
99.739
99.7266
99.7172
99.7121
99.8019
99.798
99.7906
99.78
99.7672
99.753
99.739
99.7266
99.7172
99.7121
99.8019
99.798
99.7906
99.78
99.7671
99.753
99.739
99.7266
99.7172
99.7121
99.8019
99.798
99.7906
99.78
99.7671
99.753
99.739
99.7266
99.7172
99.7121
99.8019
99.798
99.7906
99.78
99.7671
99.753
99.739
99.7266
99.7172
99.7121
99.8019
99.798
99.7906
99.78
99.7672
99.753
99.739
99.7266
99.7172
99.7121
99.8019
99.798
99.7906
99.78
99.7672
99.7531
99.739
99.7266
99.7172
99.7122
99.8019
99.798
99.7906
99.78
99.7672
99.7531
99.739
99.7266
99.7172
99.7122
93.0714
93.0649
93.0522
93.0342
93.0122
92.9878
92.9634
92.9415
92.9249
92.9159
93.0714
93.0649
93.0522
93.0342
93.0122
92.9878
92.9634
92.9415
92.9249
92.9159
93.0714
93.0649
93.0522
93.0342
93.0122
92.9878
92.9634
92.9415
92.9249
92.9159
93.0714
93.0648
93.0522
93.0342
93.0122
92.9878
92.9634
92.9415
92.9249
92.9159
93.0714
93.0648
93.0522
93.0342
93.0121
92.9878
92.9634
92.9415
92.9249
92.9159
93.0714
93.0648
93.0522
93.0342
93.0121
92.9878
92.9634
92.9415
92.9249
92.9159
93.0714
93.0648
93.0522
93.0342
93.0121
92.9878
92.9634
92.9415
92.9249
92.9159
93.0714
93.0648
93.0522
93.0342
93.0122
92.9878
92.9634
92.9415
92.9249
92.9159
93.0714
93.0649
93.0522
93.0342
93.0122
92.9878
92.9634
92.9415
92.9249
92.9159
93.0714
93.0649
93.0522
93.0342
93.0122
92.9878
92.9634
92.9415
92.9249
92.9159
86.4425
86.4332
86.4151
86.3891
86.3571
86.3212
86.2848
86.2516
86.2261
86.2122
86.4425
86.4332
86.415
86.3891
86.357
86.3212
86.2847
86.2516
86.2261
86.2122
86.4425
86.4332
86.415
86.3891
86.357
86.3212
86.2847
86.2516
86.2261
86.2121
86.4425
86.4332
86.415
86.3891
86.357
86.3212
86.2847
86.2516
86.2261
86.2121
86.4425
86.4332
86.415
86.3891
86.357
86.3211
86.2847
86.2516
86.2261
86.2121
86.4425
86.4331
86.415
86.3891
86.357
86.3211
86.2847
86.2516
86.2261
86.2121
86.4425
86.4332
86.415
86.3891
86.357
86.3211
86.2847
86.2516
86.2261
86.2121
86.4425
86.4332
86.415
86.3891
86.357
86.3212
86.2847
86.2516
86.2261
86.2121
86.4425
86.4332
86.415
86.3891
86.357
86.3212
86.2847
86.2516
86.2261
86.2122
86.4425
86.4332
86.415
86.3891
86.357
86.3212
86.2847
86.2516
86.2261
86.2122
79.9543
79.9421
79.9183
79.8839
79.8408
79.7918
79.741
79.6937
79.6564
79.6357
79.9543
79.9421
79.9182
79.8838
79.8407
79.7918
79.7409
79.6937
79.6564
79.6356
79.9543
79.9421
79.9182
79.8838
79.8407
79.7917
79.7409
79.6937
79.6564
79.6356
79.9543
79.9421
79.9182
79.8838
79.8407
79.7917
79.7409
79.6936
79.6564
79.6356
79.9543
79.9421
79.9182
79.8838
79.8407
79.7917
79.7409
79.6936
79.6564
79.6356
79.9542
79.942
79.9182
79.8838
79.8407
79.7917
79.7409
79.6936
79.6564
79.6356
79.9543
79.9421
79.9182
79.8838
79.8407
79.7917
79.7409
79.6936
79.6564
79.6356
79.9543
79.9421
79.9182
79.8838
79.8407
79.7917
79.7409
79.6936
79.6564
79.6356
79.9543
79.9421
79.9182
79.8838
79.8407
79.7918
79.7409
79.6937
79.6564
79.6356
79.9543
79.9421
79.9182
79.8838
79.8407
79.7918
79.741
79.6937
79.6564
79.6357
73.6442
73.6292
73.5996
73.5565
73.5016
73.4377
73.3694
73.3036
73.2497
73.2187
73.6442
73.6292
73.5996
73.5565
73.5015
73.4376
73.3693
73.3035
73.2497
73.2187
73.6441
73.6291
73.5996
73.5565
73.5015
73.4376
73.3693
73.3035
73.2497
73.2186
73.6441
73.6291
73.5996
73.5565
73.5015
73.4376
73.3693
73.3035
73.2497
73.2186
73.6441
73.6291
73.5996
73.5564
73.5015
73.4376
73.3693
73.3035
73.2497
73.2186
73.6441
73.6291
73.5996
73.5564
73.5015
73.4376
73.3693
73.3035
73.2497
73.2186
73.6441
73.6291
73.5996
73.5564
73.5015
73.4376
73.3693
73.3035
73.2497
73.2186
73.6441
73.6291
73.5996
73.5565
73.5015
73.4376
73.3693
73.3035
73.2497
73.2186
73.6441
73.6291
73.5996
73.5565
73.5015
73.4376
73.3693
73.3035
73.2497
73.2186
73.6442
73.6292
73.5996
73.5565
73.5016
73.4376
73.3693
73.3036
73.2497
73.2187
67.5474
67.5299
67.4952
67.4438
67.3769
67.2966
67.2072
67.1165
67.0377
66.9895
67.5474
67.5299
67.4951
67.4438
67.3768
67.2965
67.2071
67.1165
67.0377
66.9894
67.5473
67.5298
67.4951
67.4437
67.3768
67.2965
67.2071
67.1164
67.0376
66.9894
67.5473
67.5298
67.4951
67.4437
67.3768
67.2965
67.2071
67.1164
67.0376
66.9894
67.5473
67.5298
67.4951
67.4437
67.3768
67.2965
67.2071
67.1164
67.0376
66.9894
67.5473
67.5298
67.4951
67.4437
67.3768
67.2965
67.2071
67.1164
67.0376
66.9894
67.5473
67.5298
67.4951
67.4437
67.3768
67.2965
67.2071
67.1164
67.0376
66.9894
67.5473
67.5298
67.4951
67.4437
67.3768
67.2965
67.2071
67.1164
67.0376
66.9894
67.5473
67.5298
67.4951
67.4437
67.3768
67.2965
67.2071
67.1164
67.0376
66.9894
67.5473
67.5299
67.4952
67.4438
67.3768
67.2966
67.2072
67.1165
67.0377
66.9895
61.6962
61.677
61.6385
61.5806
61.5032
61.4066
61.2929
61.1686
61.0499
60.969
61.6961
61.6769
61.6385
61.5806
61.5031
61.4065
61.2928
61.1686
61.0499
60.969
61.6961
61.6769
61.6384
61.5805
61.5031
61.4065
61.2928
61.1685
61.0498
60.9689
61.6961
61.6769
61.6384
61.5805
61.5031
61.4065
61.2928
61.1685
61.0498
60.9689
61.6961
61.6769
61.6384
61.5805
61.5031
61.4065
61.2928
61.1685
61.0498
60.9689
61.6961
61.6769
61.6384
61.5805
61.5031
61.4065
61.2928
61.1685
61.0498
60.9689
61.6961
61.6769
61.6384
61.5805
61.5031
61.4065
61.2928
61.1685
61.0498
60.9689
61.6961
61.6769
61.6384
61.5805
61.5031
61.4065
61.2928
61.1685
61.0498
60.9689
61.6961
61.6769
61.6384
61.5805
61.5031
61.4065
61.2928
61.1685
61.0498
60.969
61.6961
61.6769
61.6385
61.5806
61.5031
61.4065
61.2929
61.1686
61.0499
60.969
56.1191
56.0995
56.06
55.9994
55.9159
55.8067
55.6686
55.5012
55.3161
55.1631
56.119
56.0995
56.0599
55.9994
55.9158
55.8066
55.6686
55.5011
55.3161
55.1631
56.119
56.0994
56.0599
55.9993
55.9158
55.8066
55.6685
55.5011
55.316
55.1631
56.119
56.0994
56.0599
55.9993
55.9158
55.8066
55.6685
55.501
55.316
55.163
56.119
56.0994
56.0599
55.9993
55.9158
55.8066
55.6685
55.501
55.316
55.163
56.119
56.0994
56.0599
55.9993
55.9158
55.8066
55.6685
55.501
55.316
55.163
56.119
56.0994
56.0599
55.9993
55.9158
55.8066
55.6685
55.501
55.316
55.163
56.119
56.0994
56.0599
55.9993
55.9158
55.8066
55.6685
55.5011
55.316
55.1631
56.119
56.0994
56.0599
55.9993
55.9158
55.8066
55.6685
55.5011
55.3161
55.1631
56.119
56.0995
56.06
55.9994
55.9159
55.8067
55.6686
55.5011
55.3161
55.1631
50.84
50.8221
50.7857
50.7289
50.6482
50.5371
50.384
50.1711
49.8794
49.54
50.8399
50.822
50.7856
50.7289
50.6482
50.537
50.3839
50.171
49.8793
49.5399
50.8399
50.822
50.7856
50.7288
50.6482
50.537
50.3839
50.171
49.8793
49.5399
50.8399
50.822
50.7856
50.7288
50.6481
50.537
50.3839
50.1709
49.8793
49.5399
50.8399
50.822
50.7855
50.7288
50.6481
50.537
50.3839
50.1709
49.8792
49.5398
50.8398
50.822
50.7855
50.7288
50.6481
50.537
50.3839
50.1709
49.8792
49.5398
50.8399
50.822
50.7855
50.7288
50.6481
50.537
50.3839
50.1709
49.8793
49.5398
50.8399
50.822
50.7856
50.7288
50.6481
50.537
50.3839
50.171
49.8793
49.5399
50.8399
50.822
50.7856
50.7288
50.6482
50.537
50.3839
50.171
49.8793
49.5399
50.8399
50.8221
50.7856
50.7289
50.6482
50.5371
50.384
50.171
49.8794
49.54
45.8771
45.8635
45.8356
45.7919
45.7282
45.6361
45.4975
45.2715
44.8572
43.958
45.877
45.8634
45.8356
45.7918
45.7282
45.6361
45.4974
45.2715
44.8572
43.958
45.877
45.8634
45.8355
45.7918
45.7281
45.636
45.4974
45.2714
44.8571
43.9579
45.877
45.8634
45.8355
45.7917
45.7281
45.636
45.4973
45.2714
44.8571
43.9579
45.877
45.8633
45.8355
45.7917
45.7281
45.636
45.4973
45.2714
44.8571
43.9578
45.877
45.8633
45.8355
45.7917
45.7281
45.636
45.4973
45.2714
44.8571
43.9578
45.877
45.8633
45.8355
45.7917
45.7281
45.636
45.4973
45.2714
44.8571
43.9579
45.877
45.8634
45.8355
45.7918
45.7281
45.636
45.4974
45.2714
44.8571
43.9579
45.877
45.8634
45.8356
45.7918
45.7281
45.6361
45.4974
45.2715
44.8571
43.9579
45.877
45.8634
45.8356
45.7918
45.7282
45.6361
45.4974
45.2715
44.8572
43.958
41.2422
41.2356
41.2224
41.2022
41.173
41.1297
41.0606
40.9409
40.7238
40.3415
41.2422
41.2356
41.2224
41.2021
41.1729
41.1297
41.0606
40.9409
40.7237
40.3415
41.2421
41.2355
41.2223
41.2021
41.1729
41.1296
41.0605
40.9408
40.7237
40.3414
41.2421
41.2355
41.2223
41.202
41.1728
41.1296
41.0605
40.9408
40.7236
40.3414
41.2421
41.2355
41.2223
41.202
41.1728
41.1296
41.0605
40.9408
40.7236
40.3414
41.2421
41.2355
41.2223
41.202
41.1728
41.1296
41.0605
40.9408
40.7236
40.3414
41.2421
41.2355
41.2223
41.202
41.1728
41.1296
41.0605
40.9408
40.7236
40.3414
41.2421
41.2355
41.2223
41.2021
41.1729
41.1296
41.0605
40.9408
40.7237
40.3414
41.2421
41.2355
41.2224
41.2021
41.1729
41.1296
41.0605
40.9408
40.7237
40.3415
41.2422
41.2356
41.2224
41.2021
41.1729
41.1297
41.0606
40.9409
40.7238
40.3415
36.9404
36.9433
36.95
36.9625
36.983
37.0136
37.0555
37.1098
37.1843
37.3196
36.9404
36.9432
36.9499
36.9624
36.9829
37.0135
37.0554
37.1098
37.1842
37.3195
36.9403
36.9432
36.9499
36.9624
36.9829
37.0135
37.0554
37.1097
37.1841
37.3195
36.9403
36.9431
36.9499
36.9624
36.9829
37.0134
37.0553
37.1097
37.1841
37.3194
36.9403
36.9431
36.9499
36.9624
36.9829
37.0134
37.0553
37.1097
37.1841
37.3194
36.9403
36.9431
36.9499
36.9624
36.9829
37.0134
37.0553
37.1097
37.1841
37.3194
36.9403
36.9431
36.9499
36.9624
36.9829
37.0134
37.0553
37.1097
37.1841
37.3194
36.9403
36.9432
36.9499
36.9624
36.9829
37.0135
37.0554
37.1097
37.1841
37.3195
36.9403
36.9432
36.9499
36.9624
36.9829
37.0135
37.0554
37.1098
37.1842
37.3195
36.9404
36.9432
36.95
36.9625
36.983
37.0136
37.0554
37.1098
37.1842
37.3196
32.9702
32.9841
33.0142
33.0652
33.1444
33.2619
33.4317
33.675
34.0277
34.5581
32.9702
32.984
33.0141
33.0651
33.1443
33.2618
33.4316
33.675
34.0277
34.558
32.9702
32.984
33.0141
33.0651
33.1443
33.2617
33.4316
33.6749
34.0276
34.558
32.9701
32.984
33.014
33.0651
33.1443
33.2617
33.4316
33.6749
34.0276
34.5579
32.9701
32.984
33.014
33.0651
33.1442
33.2617
33.4315
33.6749
34.0276
34.5579
32.9701
32.984
33.014
33.065
33.1442
33.2617
33.4315
33.6749
34.0276
34.5579
32.9701
32.984
33.014
33.0651
33.1442
33.2617
33.4316
33.6749
34.0276
34.5579
32.9701
32.984
33.0141
33.0651
33.1443
33.2617
33.4316
33.6749
34.0276
34.5579
32.9702
32.984
33.0141
33.0651
33.1443
33.2618
33.4316
33.675
34.0277
34.558
32.9702
32.9841
33.0141
33.0652
33.1444
33.2618
33.4317
33.675
34.0277
34.5581
29.3247
29.3499
29.4042
29.495
29.6343
29.8397
30.1353
30.5548
31.1452
31.9729
29.3246
29.3499
29.4041
29.4949
29.6343
29.8396
30.1352
30.5547
31.1451
31.9729
29.3246
29.3498
29.4041
29.4949
29.6342
29.8396
30.1352
30.5547
31.1451
31.9728
29.3246
29.3498
29.404
29.4948
29.6342
29.8396
30.1352
30.5546
31.1451
31.9728
29.3245
29.3498
29.404
29.4948
29.6342
29.8396
30.1352
30.5546
31.145
31.9728
29.3245
29.3498
29.404
29.4948
29.6342
29.8396
30.1352
30.5546
31.145
31.9728
29.3245
29.3498
29.404
29.4948
29.6342
29.8396
30.1352
30.5546
31.1451
31.9728
29.3246
29.3498
29.4041
29.4949
29.6342
29.8396
30.1352
30.5547
31.1451
31.9728
29.3246
29.3499
29.4041
29.4949
29.6343
29.8396
30.1352
30.5547
31.1451
31.9729
29.3246
29.3499
29.4041
29.4949
29.6343
29.8397
30.1353
30.5548
31.1452
31.9729
25.9924
26.0282
26.1047
26.232
26.4261
26.7106
27.1175
27.6894
28.4788
29.5448
25.9924
26.0282
26.1047
26.2319
26.4261
26.7105
27.1175
27.6894
28.4788
29.5447
25.9923
26.0281
26.1046
26.2319
26.426
26.7105
27.1174
27.6893
28.4787
29.5447
25.9923
26.0281
26.1046
26.2319
26.426
26.7104
27.1174
27.6893
28.4787
29.5447
25.9923
26.0281
26.1046
26.2319
26.426
26.7104
27.1174
27.6893
28.4787
29.5446
25.9923
26.0281
26.1046
26.2318
26.426
26.7104
27.1174
27.6893
28.4787
29.5446
25.9923
26.0281
26.1046
26.2319
26.426
26.7104
27.1174
27.6893
28.4787
29.5447
25.9923
26.0281
26.1046
26.2319
26.426
26.7104
27.1174
27.6893
28.4787
29.5447
25.9924
26.0282
26.1047
26.2319
26.4261
26.7105
27.1174
27.6893
28.4787
29.5447
25.9924
26.0282
26.1047
26.232
26.4261
26.7105
27.1175
27.6894
28.4788
29.5448
22.9595
23.0039
23.0983
23.2546
23.492
23.8388
24.3339
25.0291
25.986
27.265
22.9595
23.0038
23.0982
23.2545
23.492
23.8387
24.3339
25.029
25.9859
27.265
22.9595
23.0038
23.0982
23.2545
23.4919
23.8387
24.3338
25.029
25.9859
27.2649
22.9594
23.0038
23.0981
23.2545
23.4919
23.8386
24.3338
25.029
25.9858
27.2649
22.9594
23.0037
23.0981
23.2544
23.4919
23.8386
24.3338
25.0289
25.9858
27.2649
22.9594
23.0037
23.0981
23.2544
23.4919
23.8386
24.3338
25.0289
25.9858
27.2649
22.9594
23.0038
23.0981
23.2545
23.4919
23.8386
24.3338
25.0289
25.9858
27.2649
22.9594
23.0038
23.0982
23.2545
23.4919
23.8387
24.3338
25.029
25.9859
27.2649
22.9595
23.0038
23.0982
23.2545
23.492
23.8387
24.3339
25.029
25.9859
27.265
22.9595
23.0039
23.0982
23.2546
23.492
23.8387
24.3339
25.0291
25.986
27.265
20.2108
20.2607
20.3667
20.5414
20.8057
21.1908
21.7416
22.5214
23.6131
25.1064
20.2107
20.2607
20.3666
20.5414
20.8056
21.1907
21.7416
22.5214
23.613
25.1064
20.2107
20.2606
20.3666
20.5413
20.8056
21.1907
21.7415
22.5213
23.613
25.1063
20.2107
20.2606
20.3666
20.5413
20.8056
21.1906
21.7415
22.5213
23.613
25.1063
20.2106
20.2606
20.3666
20.5413
20.8056
21.1906
21.7415
22.5213
23.6129
25.1063
20.2106
20.2606
20.3666
20.5413
20.8056
21.1906
21.7415
22.5213
23.6129
25.1063
20.2107
20.2606
20.3666
20.5413
20.8056
21.1906
21.7415
22.5213
23.613
25.1063
20.2107
20.2606
20.3666
20.5413
20.8056
21.1907
21.7415
22.5213
23.613
25.1063
20.2107
20.2606
20.3666
20.5414
20.8056
21.1907
21.7416
22.5214
23.613
25.1064
20.2107
20.2607
20.3667
20.5414
20.8057
21.1908
21.7416
22.5214
23.6131
25.1064
17.731
17.7831
17.8933
18.0737
18.3448
18.7377
19.2994
20.1035
21.2677
22.9762
17.7309
17.7831
17.8932
18.0737
18.3448
18.7376
19.2994
20.1034
21.2676
22.9762
17.7309
17.783
17.8932
18.0737
18.3448
18.7376
19.2993
20.1034
21.2676
22.9761
17.7309
17.783
17.8931
18.0736
18.3447
18.7376
19.2993
20.1033
21.2675
22.9761
17.7308
17.783
17.8931
18.0736
18.3447
18.7375
19.2993
20.1033
21.2675
22.9761
17.7308
17.783
17.8931
18.0736
18.3447
18.7375
19.2993
20.1033
21.2675
22.9761
17.7309
17.783
17.8931
18.0736
18.3447
18.7376
19.2993
20.1033
21.2675
22.9761
17.7309
17.783
17.8932
18.0737
18.3448
18.7376
19.2993
20.1034
21.2676
22.9761
17.7309
17.783
17.8932
18.0737
18.3448
18.7376
19.2994
20.1034
21.2676
22.9762
17.7309
17.7831
17.8932
18.0737
18.3448
18.7377
19.2994
20.1035
21.2677
22.9762
15.5061
15.557
15.664
15.8375
16.0946
16.4614
16.9775
17.7091
18.7883
20.5612
15.5061
15.557
15.6639
15.8374
16.0946
16.4613
16.9774
17.709
18.7883
20.5611
15.506
15.557
15.6639
15.8374
16.0945
16.4613
16.9774
17.709
18.7882
20.5611
15.506
15.5569
15.6639
15.8374
16.0945
16.4613
16.9774
17.709
18.7882
20.5611
15.506
15.5569
15.6639
15.8374
16.0945
16.4613
16.9774
17.7089
18.7882
20.5611
15.506
15.5569
15.6639
15.8374
16.0945
16.4613
16.9774
17.7089
18.7882
20.5611
15.506
15.5569
15.6639
15.8374
16.0945
16.4613
16.9774
17.709
18.7882
20.5611
15.506
15.557
15.6639
15.8374
16.0945
16.4613
16.9774
17.709
18.7883
20.5611
15.506
15.557
15.6639
15.8374
16.0946
16.4613
16.9774
17.709
18.7883
20.5612
15.5061
15.557
15.664
15.8375
16.0946
16.4614
16.9775
17.7091
18.7884
20.5612
41.5307
41.3054
42.6579
45.3909
49.5
55.1095
62.4795
72.0707
84.7204
102.11
41.5307
41.3053
42.6578
45.3908
49.4998
55.1094
62.4794
72.0706
84.7203
102.11
41.5306
41.3053
42.6577
45.3907
49.4998
55.1093
62.4793
72.0705
84.7202
102.11
41.5306
41.3052
42.6577
45.3907
49.4997
55.1093
62.4792
72.0704
84.7202
102.11
41.5305
41.3052
42.6576
45.3907
49.4997
55.1092
62.4792
72.0704
84.7201
102.11
41.5305
41.3052
42.6576
45.3907
49.4997
55.1092
62.4792
72.0704
84.7201
102.11
41.5305
41.3052
42.6577
45.3907
49.4997
55.1092
62.4792
72.0704
84.7201
102.11
41.5306
41.3052
42.6577
45.3907
49.4997
55.1093
62.4793
72.0705
84.7202
102.11
41.5306
41.3053
42.6577
45.3908
49.4998
55.1093
62.4793
72.0705
84.7203
102.11
41.5307
41.3053
42.6578
45.3908
49.4999
55.1094
62.4794
72.0706
84.7203
102.11
39.8284
40.2782
41.8732
44.6524
48.6755
54.0608
61.0021
69.784
80.7749
94.2737
39.8283
40.2781
41.8731
44.6523
48.6754
54.0607
61.002
69.7839
80.7747
94.2736
39.8282
40.2781
41.873
44.6522
48.6753
54.0606
61.0019
69.7838
80.7746
94.2735
39.8282
40.278
41.873
44.6522
48.6753
54.0605
61.0018
69.7837
80.7746
94.2734
39.8282
40.278
41.8729
44.6521
48.6753
54.0605
61.0018
69.7837
80.7745
94.2734
39.8282
40.278
41.8729
44.6521
48.6753
54.0605
61.0018
69.7837
80.7745
94.2734
39.8282
40.278
41.8729
44.6522
48.6753
54.0605
61.0018
69.7837
80.7746
94.2734
39.8282
40.278
41.873
44.6522
48.6753
54.0606
61.0018
69.7837
80.7746
94.2735
39.8283
40.2781
41.873
44.6522
48.6754
54.0606
61.0019
69.7838
80.7747
94.2736
39.8283
40.2782
41.8731
44.6523
48.6755
54.0607
61.002
69.7839
80.7748
94.2737
37.6719
38.6598
40.5011
43.3074
47.1645
52.1669
58.427
66.0595
75.1162
85.4033
37.6718
38.6597
40.501
43.3073
47.1644
52.1668
58.4269
66.0594
75.1161
85.4032
37.6717
38.6597
40.5009
43.3073
47.1643
52.1667
58.4268
66.0593
75.116
85.4031
37.6717
38.6596
40.5008
43.3072
47.1643
52.1666
58.4268
66.0592
75.116
85.403
37.6717
38.6596
40.5008
43.3072
47.1642
52.1666
58.4267
66.0592
75.1159
85.403
37.6717
38.6596
40.5008
43.3072
47.1642
52.1666
58.4267
66.0592
75.1159
85.403
37.6717
38.6596
40.5008
43.3072
47.1643
52.1666
58.4267
66.0592
75.116
85.403
37.6717
38.6596
40.5009
43.3072
47.1643
52.1667
58.4268
66.0593
75.116
85.4031
37.6718
38.6597
40.5009
43.3073
47.1644
52.1667
58.4269
66.0593
75.1161
85.4032
37.6718
38.6598
40.501
43.3074
47.1645
52.1668
58.427
66.0595
75.1162
85.4033
35.396
36.7452
38.7613
41.5485
45.1822
49.724
55.2204
61.68
69.0212
76.973
35.3959
36.7451
38.7612
41.5484
45.1821
49.7239
55.2202
61.6799
69.021
76.9728
35.3958
36.745
38.7612
41.5483
45.182
49.7239
55.2202
61.6798
69.0209
76.9728
35.3958
36.745
38.7611
41.5482
45.1819
49.7238
55.2201
61.6798
69.0209
76.9727
35.3957
36.745
38.7611
41.5482
45.1819
49.7238
55.2201
61.6797
69.0209
76.9727
35.3957
36.745
38.7611
41.5482
45.1819
49.7238
55.2201
61.6797
69.0209
76.9727
35.3958
36.745
38.7611
41.5482
45.1819
49.7238
55.2201
61.6798
69.0209
76.9727
35.3958
36.745
38.7612
41.5483
45.182
49.7238
55.2201
61.6798
69.0209
76.9727
35.3959
36.7451
38.7612
41.5483
45.182
49.7239
55.2202
61.6799
69.021
76.9728
35.3959
36.7451
38.7613
41.5484
45.1821
49.724
55.2203
61.68
69.0211
76.9729
33.1287
34.7219
36.8476
39.5778
42.963
47.0325
51.7876
57.1848
63.106
69.3222
33.1287
34.7218
36.8475
39.5777
42.9629
47.0324
51.7875
57.1846
63.1059
69.322
33.1286
34.7217
36.8474
39.5776
42.9628
47.0323
51.7874
57.1846
63.1058
69.322
33.1286
34.7217
36.8474
39.5776
42.9628
47.0322
51.7873
57.1845
63.1057
69.3219
33.1285
34.7217
36.8473
39.5776
42.9628
47.0322
51.7873
57.1845
63.1057
69.3219
33.1285
34.7217
36.8473
39.5776
42.9628
47.0322
51.7873
57.1845
63.1057
69.3219
33.1286
34.7217
36.8474
39.5776
42.9628
47.0322
51.7873
57.1845
63.1057
69.3219
33.1286
34.7217
36.8474
39.5776
42.9628
47.0323
51.7874
57.1845
63.1058
69.3219
33.1286
34.7218
36.8475
39.5777
42.9629
47.0323
51.7875
57.1846
63.1059
69.322
33.1287
34.7218
36.8476
39.5778
42.963
47.0324
51.7876
57.1847
63.106
69.3222
30.9443
32.7231
34.924
37.5841
40.7273
44.3566
48.4452
52.9258
57.6809
62.5392
30.9442
32.723
34.9239
37.584
40.7272
44.3565
48.4451
52.9257
57.6808
62.539
30.9441
32.7229
34.9239
37.584
40.7271
44.3565
48.445
52.9256
57.6807
62.539
30.9441
32.7229
34.9238
37.5839
40.7271
44.3564
48.445
52.9256
57.6807
62.5389
30.9441
32.7229
34.9238
37.5839
40.7271
44.3564
48.4449
52.9255
57.6807
62.5389
30.9441
32.7229
34.9238
37.5839
40.7271
44.3564
48.4449
52.9255
57.6807
62.5389
30.9441
32.7229
34.9238
37.5839
40.7271
44.3564
48.445
52.9256
57.6807
62.5389
30.9441
32.7229
34.9239
37.5839
40.7271
44.3565
48.445
52.9256
57.6807
62.539
30.9442
32.723
34.9239
37.584
40.7272
44.3565
48.4451
52.9257
57.6808
62.539
30.9443
32.7231
34.924
37.5841
40.7273
44.3566
48.4452
52.9258
57.6809
62.5392
28.8972
30.8557
33.1324
35.7352
38.6687
41.9179
45.4375
49.1463
52.9304
56.6607
28.8971
30.8557
33.1323
35.7351
38.6686
41.9178
45.4374
49.1461
52.9303
56.6606
28.897
30.8556
33.1322
35.735
38.6686
41.9178
45.4373
49.1461
52.9302
56.6605
28.897
30.8556
33.1322
35.735
38.6685
41.9177
45.4372
49.146
52.9301
56.6605
28.897
30.8555
33.1322
35.735
38.6685
41.9177
45.4372
49.146
52.9301
56.6604
28.897
30.8555
33.1322
35.735
38.6685
41.9177
45.4372
49.146
52.9301
56.6604
28.897
30.8556
33.1322
35.735
38.6685
41.9177
45.4372
49.146
52.9301
56.6605
28.897
30.8556
33.1322
35.735
38.6686
41.9178
45.4373
49.1461
52.9302
56.6605
28.8971
30.8557
33.1323
35.7351
38.6686
41.9178
45.4374
49.1462
52.9303
56.6606
28.8972
30.8557
33.1324
35.7352
38.6687
41.9179
45.4375
49.1463
52.9304
56.6607
27.0339
29.2184
31.6007
34.1787
36.9528
39.8999
42.961
46.038
49.0024
51.7299
27.0338
29.2183
31.6006
34.1786
36.9527
39.8998
42.9609
46.0378
49.0023
51.7298
27.0338
29.2182
31.6006
34.1785
36.9527
39.8998
42.9608
46.0378
49.0022
51.7297
27.0337
29.2182
31.6005
34.1785
36.9526
39.8997
42.9608
46.0377
49.0021
51.7297
27.0337
29.2182
31.6005
34.1785
36.9526
39.8997
42.9607
46.0377
49.0021
51.7297
27.0337
29.2182
31.6005
34.1785
36.9526
39.8997
42.9607
46.0377
49.0021
51.7297
27.0337
29.2182
31.6005
34.1785
36.9526
39.8997
42.9608
46.0377
49.0021
51.7297
27.0338
29.2182
31.6006
34.1785
36.9527
39.8998
42.9608
46.0378
49.0022
51.7298
27.0338
29.2183
31.6006
34.1786
36.9527
39.8998
42.9609
46.0379
49.0023
51.7298
27.0339
29.2184
31.6007
34.1787
36.9528
39.8999
42.961
46.038
49.0024
51.73
25.4146
27.9242
30.454
33.0443
35.7176
38.4539
41.1833
43.7816
46.0709
47.8468
25.4145
27.9242
30.4539
33.0443
35.7175
38.4538
41.1832
43.7815
46.0708
47.8467
25.4145
27.9241
30.4539
33.0442
35.7175
38.4538
41.1832
43.7814
46.0707
47.8466
25.4144
27.9241
30.4538
33.0442
35.7174
38.4537
41.1831
43.7814
46.0707
47.8466
25.4144
27.9241
30.4538
33.0441
35.7174
38.4537
41.1831
43.7814
46.0707
47.8465
25.4144
27.9241
30.4538
33.0441
35.7174
38.4537
41.1831
43.7814
46.0707
47.8465
25.4144
27.9241
30.4538
33.0442
35.7174
38.4537
41.1831
43.7814
46.0707
47.8466
25.4145
27.9241
30.4539
33.0442
35.7175
38.4538
41.1832
43.7815
46.0708
47.8466
25.4145
27.9242
30.4539
33.0443
35.7176
38.4539
41.1833
43.7815
46.0708
47.8467
25.4146
27.9243
30.454
33.0444
35.7177
38.454
41.1834
43.7816
46.071
47.8468
24.2137
27.1439
29.8223
32.4414
35.0694
37.6968
40.2468
42.5677
44.4044
45.3208
24.2137
27.1439
29.8223
32.4413
35.0693
37.6967
40.2468
42.5676
44.4043
45.3207
24.2136
27.1438
29.8222
32.4413
35.0692
37.6967
40.2467
42.5675
44.4043
45.3206
24.2136
27.1438
29.8222
32.4412
35.0692
37.6966
40.2467
42.5675
44.4042
45.3206
24.2136
27.1438
29.8222
32.4412
35.0692
37.6966
40.2466
42.5675
44.4042
45.3206
24.2136
27.1438
29.8222
32.4412
35.0692
37.6966
40.2466
42.5675
44.4042
45.3206
24.2136
27.1438
29.8222
32.4412
35.0692
37.6966
40.2467
42.5675
44.4042
45.3206
24.2136
27.1439
29.8222
32.4413
35.0692
37.6967
40.2467
42.5676
44.4043
45.3207
24.2137
27.1439
29.8223
32.4413
35.0693
37.6968
40.2468
42.5676
44.4044
45.3207
24.2137
27.144
29.8224
32.4414
35.0694
37.6969
40.2469
42.5678
44.4045
45.3208
128.147
140.609
148.307
153.735
157.778
160.831
163.105
164.725
165.768
166.279
128.146
140.609
148.307
153.735
157.778
160.831
163.105
164.725
165.768
166.279
128.146
140.609
148.307
153.735
157.778
160.831
163.105
164.725
165.768
166.279
128.146
140.609
148.307
153.735
157.778
160.831
163.105
164.725
165.768
166.279
128.146
140.609
148.307
153.735
157.778
160.831
163.105
164.725
165.768
166.279
128.146
140.609
148.307
153.735
157.778
160.831
163.105
164.725
165.768
166.279
128.146
140.609
148.307
153.735
157.778
160.831
163.105
164.725
165.768
166.279
128.146
140.609
148.307
153.735
157.778
160.831
163.105
164.725
165.768
166.279
128.146
140.609
148.307
153.735
157.778
160.831
163.105
164.725
165.768
166.279
128.147
140.609
148.307
153.735
157.778
160.831
163.105
164.725
165.768
166.279
109.62
120.82
128.781
134.592
138.93
142.189
144.603
146.314
147.412
147.95
109.62
120.82
128.78
134.592
138.93
142.189
144.603
146.314
147.412
147.95
109.62
120.82
128.78
134.591
138.93
142.189
144.603
146.314
147.412
147.949
109.619
120.82
128.78
134.591
138.93
142.189
144.603
146.314
147.412
147.949
109.619
120.82
128.78
134.591
138.93
142.189
144.603
146.314
147.412
147.949
109.619
120.82
128.78
134.591
138.93
142.189
144.603
146.314
147.412
147.949
109.619
120.82
128.78
134.591
138.93
142.189
144.603
146.314
147.412
147.949
109.619
120.82
128.78
134.591
138.93
142.189
144.603
146.314
147.412
147.949
109.62
120.82
128.78
134.592
138.93
142.189
144.603
146.314
147.412
147.95
109.62
120.82
128.781
134.592
138.93
142.189
144.603
146.314
147.413
147.95
96.0646
105.109
112.252
117.778
122.028
125.267
127.683
129.401
130.506
131.047
96.0645
105.109
112.251
117.778
122.028
125.267
127.683
129.401
130.506
131.047
96.0644
105.109
112.251
117.778
122.028
125.267
127.682
129.401
130.506
131.047
96.0643
105.109
112.251
117.778
122.028
125.267
127.682
129.401
130.506
131.047
96.0643
105.109
112.251
117.778
122.028
125.267
127.682
129.401
130.506
131.047
96.0643
105.109
112.251
117.778
122.028
125.267
127.682
129.401
130.506
131.047
96.0643
105.109
112.251
117.778
122.028
125.267
127.682
129.401
130.506
131.047
96.0644
105.109
112.251
117.778
122.028
125.267
127.682
129.401
130.506
131.047
96.0644
105.109
112.251
117.778
122.028
125.267
127.683
129.401
130.506
131.047
96.0646
105.109
112.252
117.778
122.028
125.267
127.683
129.401
130.506
131.047
84.9572
92.1446
98.1957
103.11
107.015
110.055
112.352
114
115.065
115.588
84.9571
92.1444
98.1956
103.11
107.015
110.055
112.352
114
115.065
115.587
84.957
92.1444
98.1955
103.11
107.015
110.055
112.352
114
115.065
115.587
84.957
92.1443
98.1954
103.11
107.015
110.054
112.352
114
115.065
115.587
84.9569
92.1443
98.1954
103.11
107.015
110.054
112.352
114
115.065
115.587
84.9569
92.1443
98.1954
103.11
107.015
110.054
112.352
114
115.065
115.587
84.9569
92.1443
98.1954
103.11
107.015
110.054
112.352
114
115.065
115.587
84.957
92.1443
98.1955
103.11
107.015
110.055
112.352
114
115.065
115.587
84.9571
92.1444
98.1956
103.11
107.015
110.055
112.352
114
115.065
115.588
84.9572
92.1446
98.1957
103.11
107.015
110.055
112.352
114
115.065
115.588
75.4769
81.1619
86.1351
90.3227
93.7483
96.4735
98.5656
100.083
101.071
101.557
75.4767
81.1618
86.135
90.3226
93.7481
96.4733
98.5655
100.083
101.07
101.557
75.4767
81.1617
86.1349
90.3225
93.748
96.4732
98.5654
100.083
101.07
101.557
75.4766
81.1616
86.1348
90.3225
93.748
96.4732
98.5654
100.083
101.07
101.557
75.4766
81.1616
86.1348
90.3224
93.748
96.4732
98.5653
100.083
101.07
101.557
75.4766
81.1616
86.1348
90.3224
93.748
96.4732
98.5653
100.083
101.07
101.557
75.4766
81.1616
86.1348
90.3225
93.748
96.4732
98.5654
100.083
101.07
101.557
75.4766
81.1617
86.1349
90.3225
93.7481
96.4733
98.5654
100.083
101.07
101.557
75.4767
81.1618
86.135
90.3226
93.7482
96.4734
98.5655
100.083
101.07
101.557
75.4769
81.1619
86.1351
90.3228
93.7483
96.4735
98.5657
100.083
101.071
101.557
67.2907
71.7313
75.7138
79.1625
82.0569
84.4089
86.2445
87.5921
88.476
88.9135
67.2906
71.7312
75.7137
79.1623
82.0567
84.4088
86.2444
87.592
88.4759
88.9134
67.2905
71.7311
75.7136
79.1623
82.0566
84.4087
86.2443
87.5919
88.4758
88.9134
67.2905
71.731
75.7135
79.1622
82.0566
84.4086
86.2443
87.5918
88.4757
88.9133
67.2904
71.731
75.7135
79.1622
82.0565
84.4086
86.2442
87.5918
88.4757
88.9133
67.2904
71.731
75.7135
79.1622
82.0566
84.4086
86.2442
87.5918
88.4757
88.9133
67.2905
71.731
75.7135
79.1622
82.0566
84.4086
86.2443
87.5919
88.4758
88.9133
67.2905
71.7311
75.7136
79.1623
82.0567
84.4087
86.2444
87.5919
88.4758
88.9134
67.2906
71.7312
75.7137
79.1624
82.0567
84.4088
86.2445
87.592
88.4759
88.9135
67.2907
71.7313
75.7138
79.1625
82.0569
84.4089
86.2446
87.5922
88.4761
88.9136
60.2307
63.5886
66.669
69.4101
71.7709
73.7318
75.2891
76.4472
77.2136
77.5949
60.2306
63.5885
66.6689
69.41
71.7708
73.7317
75.289
76.4471
77.2135
77.5949
60.2305
63.5884
66.6688
69.4099
71.7707
73.7316
75.2889
76.447
77.2134
77.5948
60.2305
63.5884
66.6687
69.4099
71.7706
73.7316
75.2888
76.4469
77.2134
77.5947
60.2304
63.5884
66.6687
69.4098
71.7706
73.7315
75.2888
76.4469
77.2133
77.5947
60.2304
63.5884
66.6687
69.4098
71.7706
73.7315
75.2888
76.4469
77.2133
77.5947
60.2305
63.5884
66.6687
69.4099
71.7706
73.7316
75.2888
76.447
77.2134
77.5948
60.2305
63.5884
66.6688
69.4099
71.7707
73.7316
75.2889
76.447
77.2135
77.5949
60.2306
63.5885
66.6689
69.41
71.7708
73.7317
75.289
76.4471
77.2136
77.595
60.2307
63.5887
66.669
69.4102
71.7709
73.7319
75.2891
76.4473
77.2137
77.5951
54.1854
56.5391
58.7901
60.8747
62.7298
64.3108
65.591
66.5568
67.2021
67.5251
54.1853
56.5389
58.7899
60.8746
62.7297
64.3107
65.5909
66.5567
67.202
67.525
54.1852
56.5389
58.7899
60.8745