/*--------------------------------*- C++ -*----------------------------------*\
  =========                 |
  \\      /  F ield         | OpenFOAM: The Open Source CFD Toolbox
   \\    /   O peration     | Website:  https://openfoam.org
    \\  /    A nd           | Version:  6
     \\/     M anipulation  |
\*---------------------------------------------------------------------------*/
FoamFile
{
    version     2.0;
    format      ascii;
    class       volScalarField;
    location    "0.8";
    object      T;
}
// * * * * * * * * * * * * * * * * * * * * * * * * * * * * * * * * * * * * * //

dimensions      [0 0 0 1 0 0 0];

internalField   nonuniform List<scalar> 
7000
(
106.422
106.42
106.417
106.412
106.407
106.401
106.395
106.389
106.385
106.383
106.422
106.42
106.417
106.412
106.407
106.401
106.395
106.389
106.385
106.383
106.422
106.42
106.417
106.412
106.407
106.401
106.395
106.389
106.385
106.383
106.422
106.42
106.417
106.412
106.407
106.401
106.395
106.389
106.385
106.383
106.422
106.42
106.417
106.412
106.407
106.401
106.395
106.389
106.385
106.383
106.422
106.42
106.417
106.412
106.407
106.401
106.395
106.389
106.385
106.383
106.422
106.42
106.417
106.412
106.407
106.401
106.395
106.389
106.385
106.383
106.422
106.42
106.417
106.412
106.407
106.401
106.395
106.389
106.385
106.383
106.422
106.42
106.417
106.412
106.407
106.401
106.395
106.389
106.385
106.383
106.422
106.42
106.417
106.412
106.407
106.401
106.395
106.389
106.385
106.383
99.2882
99.283
99.2732
99.2592
99.2422
99.2236
99.205
99.1886
99.1762
99.1696
99.2881
99.283
99.2732
99.2592
99.2422
99.2236
99.205
99.1886
99.1762
99.1696
99.2881
99.283
99.2732
99.2592
99.2422
99.2235
99.205
99.1886
99.1762
99.1696
99.2881
99.283
99.2731
99.2592
99.2422
99.2235
99.205
99.1886
99.1762
99.1696
99.2881
99.283
99.2731
99.2592
99.2422
99.2235
99.205
99.1886
99.1762
99.1696
99.2881
99.283
99.2731
99.2592
99.2422
99.2235
99.205
99.1886
99.1762
99.1696
99.2881
99.283
99.2731
99.2592
99.2422
99.2235
99.205
99.1886
99.1762
99.1696
99.2881
99.283
99.2731
99.2592
99.2422
99.2235
99.205
99.1886
99.1762
99.1696
99.2881
99.283
99.2732
99.2592
99.2422
99.2235
99.205
99.1886
99.1762
99.1696
99.2881
99.283
99.2732
99.2592
99.2422
99.2236
99.205
99.1886
99.1762
99.1696
92.2234
92.2147
92.1978
92.1738
92.1444
92.1119
92.0794
92.0503
92.0282
92.0163
92.2234
92.2147
92.1978
92.1737
92.1443
92.1119
92.0793
92.0503
92.0282
92.0163
92.2234
92.2146
92.1977
92.1737
92.1443
92.1119
92.0793
92.0502
92.0282
92.0162
92.2234
92.2146
92.1977
92.1737
92.1443
92.1118
92.0793
92.0502
92.0282
92.0162
92.2234
92.2146
92.1977
92.1737
92.1443
92.1118
92.0793
92.0502
92.0282
92.0162
92.2234
92.2146
92.1977
92.1737
92.1443
92.1118
92.0793
92.0502
92.0282
92.0162
92.2234
92.2146
92.1977
92.1737
92.1443
92.1118
92.0793
92.0502
92.0282
92.0162
92.2234
92.2146
92.1977
92.1737
92.1443
92.1118
92.0793
92.0502
92.0282
92.0162
92.2234
92.2146
92.1977
92.1737
92.1443
92.1119
92.0793
92.0502
92.0282
92.0163
92.2234
92.2147
92.1977
92.1737
92.1443
92.1119
92.0793
92.0503
92.0282
92.0163
85.2724
85.2598
85.2352
85.2002
85.1568
85.1084
85.0593
85.0147
84.9805
84.9618
85.2724
85.2598
85.2352
85.2001
85.1568
85.1084
85.0593
85.0147
84.9805
84.9618
85.2724
85.2598
85.2352
85.2001
85.1567
85.1084
85.0592
85.0147
84.9805
84.9617
85.2724
85.2598
85.2352
85.2001
85.1567
85.1083
85.0592
85.0147
84.9804
84.9617
85.2724
85.2597
85.2352
85.2001
85.1567
85.1083
85.0592
85.0147
84.9804
84.9617
85.2724
85.2597
85.2352
85.2001
85.1567
85.1083
85.0592
85.0147
84.9804
84.9617
85.2724
85.2597
85.2352
85.2001
85.1567
85.1083
85.0592
85.0147
84.9804
84.9617
85.2724
85.2597
85.2352
85.2001
85.1567
85.1083
85.0592
85.0147
84.9805
84.9617
85.2724
85.2598
85.2352
85.2001
85.1568
85.1084
85.0593
85.0147
84.9805
84.9618
85.2724
85.2598
85.2352
85.2001
85.1568
85.1084
85.0593
85.0147
84.9805
84.9618
78.4789
78.462
78.4291
78.3817
78.3224
78.2551
78.1856
78.1211
78.0704
78.0422
78.4788
78.462
78.4291
78.3817
78.3223
78.2551
78.1855
78.1211
78.0704
78.0422
78.4788
78.462
78.4291
78.3816
78.3223
78.2551
78.1855
78.121
78.0704
78.0422
78.4788
78.462
78.429
78.3816
78.3223
78.2551
78.1855
78.121
78.0704
78.0422
78.4788
78.4619
78.429
78.3816
78.3223
78.2551
78.1855
78.121
78.0703
78.0422
78.4788
78.4619
78.429
78.3816
78.3223
78.2551
78.1855
78.121
78.0703
78.0422
78.4788
78.4619
78.429
78.3816
78.3223
78.2551
78.1855
78.121
78.0704
78.0422
78.4788
78.462
78.429
78.3816
78.3223
78.2551
78.1855
78.121
78.0704
78.0422
78.4788
78.462
78.4291
78.3816
78.3223
78.2551
78.1855
78.121
78.0704
78.0422
78.4788
78.462
78.4291
78.3817
78.3224
78.2551
78.1856
78.1211
78.0704
78.0422
71.8843
71.8631
71.8212
71.7603
71.6829
71.5932
71.4979
71.4067
71.3325
71.2899
71.8843
71.863
71.8212
71.7603
71.6829
71.5932
71.4979
71.4066
71.3324
71.2898
71.8843
71.863
71.8212
71.7603
71.6828
71.5932
71.4979
71.4066
71.3324
71.2898
71.8843
71.863
71.8212
71.7602
71.6828
71.5932
71.4978
71.4066
71.3324
71.2898
71.8843
71.863
71.8211
71.7602
71.6828
71.5931
71.4978
71.4066
71.3324
71.2898
71.8842
71.863
71.8211
71.7602
71.6828
71.5931
71.4978
71.4066
71.3324
71.2898
71.8843
71.863
71.8211
71.7602
71.6828
71.5931
71.4978
71.4066
71.3324
71.2898
71.8843
71.863
71.8212
71.7602
71.6828
71.5932
71.4978
71.4066
71.3324
71.2898
71.8843
71.863
71.8212
71.7603
71.6828
71.5932
71.4979
71.4066
71.3324
71.2898
71.8843
71.863
71.8212
71.7603
71.6829
71.5932
71.4979
71.4066
71.3324
71.2899
65.528
65.5023
65.4514
65.3764
65.2791
65.1633
65.0356
64.9075
64.7974
64.7308
65.5279
65.5022
65.4514
65.3763
65.2791
65.1633
65.0356
64.9074
64.7974
64.7308
65.5279
65.5022
65.4514
65.3763
65.2791
65.1633
65.0355
64.9074
64.7974
64.7307
65.5279
65.5022
65.4513
65.3763
65.279
65.1632
65.0355
64.9074
64.7974
64.7307
65.5278
65.5022
65.4513
65.3763
65.279
65.1632
65.0355
64.9074
64.7973
64.7307
65.5278
65.5022
65.4513
65.3763
65.279
65.1632
65.0355
64.9074
64.7973
64.7307
65.5278
65.5022
65.4513
65.3763
65.279
65.1632
65.0355
64.9074
64.7974
64.7307
65.5279
65.5022
65.4513
65.3763
65.279
65.1632
65.0355
64.9074
64.7974
64.7307
65.5279
65.5022
65.4514
65.3763
65.2791
65.1633
65.0355
64.9074
64.7974
64.7308
65.5279
65.5022
65.4514
65.3764
65.2791
65.1633
65.0356
64.9074
64.7974
64.7308
59.4454
59.4158
59.3568
59.2683
59.1509
59.0064
58.8391
58.6598
58.4923
58.3804
59.4454
59.4158
59.3567
59.2682
59.1509
59.0063
58.839
58.6598
58.4922
58.3804
59.4453
59.4158
59.3567
59.2682
59.1509
59.0063
58.839
58.6597
58.4922
58.3803
59.4453
59.4157
59.3567
59.2682
59.1508
59.0063
58.839
58.6597
58.4922
58.3803
59.4453
59.4157
59.3566
59.2682
59.1508
59.0063
58.8389
58.6597
58.4922
58.3803
59.4453
59.4157
59.3566
59.2682
59.1508
59.0063
58.8389
58.6597
58.4922
58.3803
59.4453
59.4157
59.3566
59.2682
59.1508
59.0063
58.839
58.6597
58.4922
58.3803
59.4453
59.4157
59.3567
59.2682
59.1509
59.0063
58.839
58.6597
58.4922
58.3803
59.4453
59.4158
59.3567
59.2682
59.1509
59.0063
58.839
58.6597
58.4922
58.3804
59.4454
59.4158
59.3567
59.2683
59.1509
59.0064
58.839
58.6598
58.4923
58.3804
53.6683
53.6359
53.5708
53.4718
53.3373
53.165
52.9534
52.7056
52.4423
52.2325
53.6682
53.6359
53.5708
53.4718
53.3372
53.1649
52.9533
52.7055
52.4422
52.2325
53.6682
53.6359
53.5707
53.4718
53.3372
53.1649
52.9533
52.7055
52.4422
52.2325
53.6682
53.6358
53.5707
53.4717
53.3372
53.1649
52.9532
52.7055
52.4422
52.2324
53.6682
53.6358
53.5707
53.4717
53.3372
53.1649
52.9532
52.7055
52.4422
52.2324
53.6682
53.6358
53.5707
53.4717
53.3372
53.1649
52.9532
52.7055
52.4422
52.2324
53.6682
53.6358
53.5707
53.4717
53.3372
53.1649
52.9532
52.7055
52.4422
52.2324
53.6682
53.6358
53.5707
53.4717
53.3372
53.1649
52.9533
52.7055
52.4422
52.2325
53.6682
53.6359
53.5707
53.4718
53.3372
53.1649
52.9533
52.7055
52.4422
52.2325
53.6682
53.6359
53.5708
53.4718
53.3373
53.165
52.9533
52.7056
52.4423
52.2325
48.2228
48.1897
48.1225
48.019
47.8753
47.684
47.4334
47.1057
46.6866
46.2294
48.2228
48.1896
48.1224
48.019
47.8752
47.684
47.4333
47.1057
46.6866
46.2294
48.2228
48.1896
48.1224
48.0189
47.8752
47.684
47.4333
47.1056
46.6865
46.2293
48.2227
48.1896
48.1223
48.0189
47.8752
47.6839
47.4332
47.1056
46.6865
46.2293
48.2227
48.1895
48.1223
48.0189
47.8752
47.6839
47.4332
47.1056
46.6865
46.2293
48.2227
48.1895
48.1223
48.0189
47.8752
47.6839
47.4332
47.1056
46.6865
46.2293
48.2227
48.1895
48.1223
48.0189
47.8752
47.6839
47.4332
47.1056
46.6865
46.2293
48.2227
48.1896
48.1224
48.0189
47.8752
47.6839
47.4332
47.1056
46.6865
46.2293
48.2228
48.1896
48.1224
48.019
47.8752
47.684
47.4333
47.1057
46.6866
46.2293
48.2228
48.1896
48.1224
48.019
47.8753
47.684
47.4333
47.1057
46.6866
46.2294
43.1291
43.0977
43.0341
42.9356
42.7971
42.608
42.3471
41.9675
41.3541
40.1678
43.129
43.0977
43.0341
42.9356
42.7971
42.608
42.347
41.9674
41.354
40.1677
43.129
43.0977
43.034
42.9356
42.797
42.6079
42.347
41.9674
41.354
40.1677
43.129
43.0976
43.034
42.9355
42.797
42.6079
42.3469
41.9674
41.354
40.1676
43.129
43.0976
43.034
42.9355
42.797
42.6079
42.3469
41.9673
41.3539
40.1676
43.129
43.0976
43.034
42.9355
42.797
42.6079
42.3469
41.9673
41.3539
40.1676
43.129
43.0976
43.034
42.9355
42.797
42.6079
42.3469
41.9673
41.3539
40.1676
43.129
43.0976
43.034
42.9355
42.797
42.6079
42.3469
41.9674
41.354
40.1677
43.129
43.0977
43.034
42.9356
42.797
42.608
42.347
41.9674
41.354
40.1677
43.129
43.0977
43.0341
42.9356
42.7971
42.608
42.347
41.9675
41.3541
40.1678
38.3998
38.3733
38.3199
38.2379
38.1236
37.9693
37.7588
37.4605
37.0152
36.3346
38.3998
38.3733
38.3198
38.2378
38.1236
37.9692
37.7588
37.4604
37.0152
36.3345
38.3997
38.3732
38.3198
38.2378
38.1235
37.9692
37.7587
37.4604
37.0151
36.3344
38.3997
38.3732
38.3198
38.2377
38.1235
37.9692
37.7587
37.4604
37.0151
36.3344
38.3997
38.3732
38.3198
38.2377
38.1235
37.9691
37.7587
37.4603
37.015
36.3344
38.3997
38.3732
38.3197
38.2377
38.1235
37.9691
37.7587
37.4603
37.015
36.3344
38.3997
38.3732
38.3198
38.2377
38.1235
37.9692
37.7587
37.4603
37.0151
36.3344
38.3997
38.3732
38.3198
38.2378
38.1235
37.9692
37.7587
37.4604
37.0151
36.3344
38.3997
38.3733
38.3198
38.2378
38.1236
37.9692
37.7588
37.4604
37.0151
36.3345
38.3998
38.3733
38.3199
38.2378
38.1236
37.9693
37.7588
37.4605
37.0152
36.3345
34.0402
34.0214
33.9843
33.9295
33.8572
33.7665
33.6547
33.5176
33.3557
33.2033
34.0401
34.0214
33.9843
33.9294
33.8571
33.7664
33.6547
33.5175
33.3556
33.2032
34.0401
34.0213
33.9842
33.9294
33.8571
33.7664
33.6546
33.5175
33.3556
33.2032
34.0401
34.0213
33.9842
33.9294
33.857
33.7664
33.6546
33.5174
33.3555
33.2031
34.0401
34.0213
33.9842
33.9294
33.857
33.7663
33.6546
33.5174
33.3555
33.2031
34.0401
34.0213
33.9842
33.9294
33.857
33.7663
33.6546
33.5174
33.3555
33.2031
34.0401
34.0213
33.9842
33.9294
33.857
33.7664
33.6546
33.5174
33.3555
33.2031
34.0401
34.0213
33.9842
33.9294
33.8571
33.7664
33.6546
33.5175
33.3556
33.2031
34.0401
34.0213
33.9843
33.9294
33.8571
33.7664
33.6547
33.5175
33.3556
33.2032
34.0401
34.0214
33.9843
33.9295
33.8572
33.7665
33.6547
33.5176
33.3557
33.2033
30.048
30.039
30.0227
30.0025
29.9837
29.9735
29.9826
30.0285
30.1436
30.3955
30.0479
30.0389
30.0226
30.0025
29.9836
29.9734
29.9826
30.0284
30.1436
30.3954
30.0479
30.0389
30.0226
30.0024
29.9836
29.9734
29.9825
30.0284
30.1435
30.3953
30.0478
30.0388
30.0226
30.0024
29.9835
29.9733
29.9825
30.0283
30.1435
30.3953
30.0478
30.0388
30.0226
30.0024
29.9835
29.9733
29.9825
30.0283
30.1435
30.3953
30.0478
30.0388
30.0226
30.0024
29.9835
29.9733
29.9825
30.0283
30.1434
30.3953
30.0478
30.0388
30.0226
30.0024
29.9835
29.9733
29.9825
30.0283
30.1435
30.3953
30.0479
30.0389
30.0226
30.0024
29.9836
29.9734
29.9825
30.0284
30.1435
30.3953
30.0479
30.0389
30.0226
30.0025
29.9836
29.9734
29.9826
30.0284
30.1435
30.3954
30.0479
30.0389
30.0227
30.0025
29.9837
29.9735
29.9826
30.0285
30.1436
30.3954
26.4144
26.4161
26.4226
26.4401
26.4787
26.5531
26.6846
26.9041
27.257
27.8107
26.4143
26.416
26.4226
26.4401
26.4786
26.553
26.6846
26.904
27.2569
27.8106
26.4143
26.416
26.4225
26.4401
26.4786
26.553
26.6845
26.904
27.2568
27.8106
26.4143
26.416
26.4225
26.44
26.4786
26.553
26.6845
26.904
27.2568
27.8105
26.4142
26.416
26.4225
26.44
26.4786
26.5529
26.6845
26.9039
27.2568
27.8105
26.4142
26.416
26.4225
26.44
26.4786
26.5529
26.6845
26.9039
27.2568
27.8105
26.4142
26.416
26.4225
26.44
26.4786
26.553
26.6845
26.904
27.2568
27.8105
26.4143
26.416
26.4225
26.44
26.4786
26.553
26.6845
26.904
27.2568
27.8106
26.4143
26.416
26.4226
26.4401
26.4786
26.553
26.6846
26.904
27.2569
27.8106
26.4143
26.4161
26.4226
26.4401
26.4787
26.5531
26.6846
26.9041
27.257
27.8107
23.1256
23.1377
23.1663
23.2199
23.3128
23.4658
23.708
24.0793
24.6306
25.4221
23.1255
23.1377
23.1662
23.2199
23.3128
23.4657
23.708
24.0793
24.6305
25.4221
23.1255
23.1376
23.1662
23.2199
23.3127
23.4657
23.7079
24.0792
24.6304
25.422
23.1255
23.1376
23.1662
23.2198
23.3127
23.4656
23.7079
24.0792
24.6304
25.422
23.1254
23.1376
23.1662
23.2198
23.3127
23.4656
23.7079
24.0792
24.6304
25.4219
23.1254
23.1376
23.1662
23.2198
23.3127
23.4656
23.7079
24.0792
24.6304
25.4219
23.1254
23.1376
23.1662
23.2198
23.3127
23.4656
23.7079
24.0792
24.6304
25.422
23.1255
23.1376
23.1662
23.2198
23.3127
23.4657
23.7079
24.0792
24.6304
25.422
23.1255
23.1377
23.1662
23.2199
23.3128
23.4657
23.708
24.0792
24.6305
25.4221
23.1255
23.1377
23.1663
23.2199
23.3128
23.4658
23.708
24.0793
24.6305
25.4221
20.1642
20.1853
20.2327
20.3169
20.4551
20.6726
21.0053
21.5011
22.2186
23.2178
20.1641
20.1853
20.2327
20.3169
20.455
20.6725
21.0053
21.501
22.2186
23.2177
20.1641
20.1853
20.2327
20.3168
20.455
20.6725
21.0052
21.501
22.2185
23.2177
20.1641
20.1852
20.2326
20.3168
20.4549
20.6725
21.0052
21.501
22.2185
23.2176
20.1641
20.1852
20.2326
20.3168
20.4549
20.6724
21.0052
21.501
22.2185
23.2176
20.164
20.1852
20.2326
20.3168
20.4549
20.6724
21.0052
21.501
22.2185
23.2176
20.1641
20.1852
20.2326
20.3168
20.4549
20.6725
21.0052
21.501
22.2185
23.2176
20.1641
20.1852
20.2327
20.3168
20.455
20.6725
21.0052
21.501
22.2185
23.2177
20.1641
20.1853
20.2327
20.3169
20.455
20.6725
21.0053
21.501
22.2186
23.2177
20.1641
20.1853
20.2327
20.3169
20.4551
20.6726
21.0053
21.5011
22.2186
23.2178
17.5109
17.5388
17.5999
17.7058
17.8753
18.1367
18.5311
19.1164
19.9687
21.1718
17.5109
17.5387
17.5998
17.7058
17.8752
18.1366
18.5311
19.1163
19.9687
21.1717
17.5108
17.5387
17.5998
17.7057
17.8752
18.1366
18.5311
19.1163
19.9686
21.1717
17.5108
17.5387
17.5998
17.7057
17.8752
18.1366
18.531
19.1163
19.9686
21.1717
17.5108
17.5386
17.5998
17.7057
17.8752
18.1366
18.531
19.1163
19.9686
21.1716
17.5108
17.5386
17.5998
17.7057
17.8752
18.1366
18.531
19.1163
19.9686
21.1716
17.5108
17.5386
17.5998
17.7057
17.8752
18.1366
18.531
19.1163
19.9686
21.1717
17.5108
17.5387
17.5998
17.7057
17.8752
18.1366
18.5311
19.1163
19.9686
21.1717
17.5109
17.5387
17.5998
17.7057
17.8752
18.1366
18.5311
19.1163
19.9687
21.1717
17.5109
17.5387
17.5999
17.7058
17.8753
18.1367
18.5312
19.1164
19.9687
21.1718
15.1461
15.1777
15.2463
15.3631
15.5466
15.8253
16.2422
16.8637
17.7957
19.2019
15.146
15.1776
15.2462
15.363
15.5466
15.8253
16.2421
16.8636
17.7956
19.2019
15.146
15.1776
15.2462
15.363
15.5465
15.8252
16.2421
16.8636
17.7956
19.2018
15.146
15.1776
15.2462
15.363
15.5465
15.8252
16.242
16.8636
17.7955
19.2018
15.146
15.1776
15.2462
15.363
15.5465
15.8252
16.242
16.8635
17.7955
19.2018
15.146
15.1776
15.2462
15.363
15.5465
15.8252
16.242
16.8635
17.7955
19.2018
15.146
15.1776
15.2462
15.363
15.5465
15.8252
16.242
16.8636
17.7955
19.2018
15.146
15.1776
15.2462
15.363
15.5465
15.8252
16.2421
16.8636
17.7956
19.2018
15.146
15.1776
15.2462
15.363
15.5466
15.8253
16.2421
16.8636
17.7956
19.2019
15.1461
15.1777
15.2463
15.3631
15.5466
15.8253
16.2422
16.8637
17.7957
19.2019
13.0505
13.083
13.1526
13.2692
13.4486
13.7149
14.1047
14.6784
15.5541
17.035
13.0505
13.0829
13.1526
13.2691
13.4485
13.7148
14.1047
14.6784
15.5541
17.0349
13.0504
13.0829
13.1525
13.2691
13.4485
13.7148
14.1047
14.6783
15.554
17.0349
13.0504
13.0829
13.1525
13.2691
13.4485
13.7148
14.1046
14.6783
15.554
17.0348
13.0504
13.0829
13.1525
13.2691
13.4485
13.7148
14.1046
14.6783
15.554
17.0348
13.0504
13.0829
13.1525
13.2691
13.4485
13.7148
14.1046
14.6783
15.554
17.0348
13.0504
13.0829
13.1525
13.2691
13.4485
13.7148
14.1046
14.6783
15.554
17.0348
13.0504
13.0829
13.1525
13.2691
13.4485
13.7148
14.1047
14.6784
15.554
17.0349
13.0505
13.0829
13.1526
13.2691
13.4485
13.7148
14.1047
14.6784
15.5541
17.0349
13.0505
13.083
13.1526
13.2692
13.4486
13.7149
14.1047
14.6784
15.5541
17.035
37.2077
36.5413
37.4965
39.859
43.6188
48.9006
55.9675
65.2863
77.7037
94.917
37.2076
36.5412
37.4964
39.8589
43.6187
48.9004
55.9673
65.2862
77.7036
94.9169
37.2075
36.5411
37.4963
39.8588
43.6186
48.9004
55.9673
65.2861
77.7035
94.9167
37.2075
36.5411
37.4963
39.8587
43.6185
48.9003
55.9672
65.286
77.7034
94.9167
37.2074
36.541
37.4962
39.8587
43.6185
48.9003
55.9672
65.286
77.7034
94.9166
37.2074
36.541
37.4962
39.8587
43.6185
48.9003
55.9672
65.286
77.7034
94.9166
37.2075
36.5411
37.4963
39.8587
43.6185
48.9003
55.9672
65.286
77.7034
94.9167
37.2075
36.5411
37.4963
39.8588
43.6186
48.9003
55.9672
65.286
77.7035
94.9167
37.2075
36.5411
37.4963
39.8588
43.6186
48.9004
55.9673
65.2861
77.7035
94.9168
37.2076
36.5412
37.4964
39.8589
43.6187
48.9005
55.9674
65.2862
77.7036
94.9169
35.4312
35.4896
36.7073
39.1252
42.8041
47.8644
54.504
63.0127
73.7655
87.0686
35.4311
35.4895
36.7072
39.1251
42.804
47.8643
54.5039
63.0126
73.7653
87.0684
35.431
35.4894
36.7071
39.125
42.8039
47.8642
54.5038
63.0125
73.7652
87.0683
35.431
35.4894
36.7071
39.125
42.8038
47.8642
54.5038
63.0124
73.7652
87.0683
35.431
35.4894
36.707
39.125
42.8038
47.8642
54.5037
63.0124
73.7651
87.0682
35.431
35.4894
36.707
39.125
42.8038
47.8641
54.5037
63.0124
73.7651
87.0682
35.431
35.4894
36.707
39.125
42.8038
47.8642
54.5037
63.0124
73.7652
87.0682
35.431
35.4894
36.7071
39.125
42.8039
47.8642
54.5038
63.0125
73.7652
87.0683
35.4311
35.4895
36.7071
39.1251
42.8039
47.8643
54.5039
63.0125
73.7653
87.0684
35.4311
35.4895
36.7072
39.1252
42.804
47.8644
54.504
63.0126
73.7654
87.0685
33.2184
33.8512
35.336
37.7932
41.3136
45.9962
51.9578
59.3177
68.1324
78.2111
33.2184
33.8511
35.3359
37.7931
41.3135
45.9961
51.9577
59.3176
68.1323
78.211
33.2183
33.851
35.3358
37.7931
41.3134
45.996
51.9576
59.3175
68.1322
78.2109
33.2183
33.851
35.3358
37.793
41.3134
45.9959
51.9575
59.3175
68.1321
78.2108
33.2182
33.8509
35.3358
37.793
41.3133
45.9959
51.9575
59.3174
68.1321
78.2108
33.2182
33.8509
35.3358
37.793
41.3133
45.9959
51.9575
59.3174
68.1321
78.2108
33.2183
33.8509
35.3358
37.793
41.3134
45.9959
51.9575
59.3174
68.1321
78.2108
33.2183
33.851
35.3358
37.793
41.3134
45.9959
51.9576
59.3175
68.1322
78.2109
33.2183
33.851
35.3359
37.7931
41.3135
45.996
51.9576
59.3176
68.1322
78.211
33.2184
33.8511
35.336
37.7932
41.3136
45.9961
51.9577
59.3177
68.1324
78.2111
30.9194
31.9345
33.6097
36.0584
39.3633
43.5918
48.7948
54.9856
62.0856
69.8258
30.9193
31.9345
33.6096
36.0583
39.3632
43.5916
48.7946
54.9854
62.0855
69.8257
30.9193
31.9344
33.6095
36.0582
39.3632
43.5916
48.7946
54.9854
62.0854
69.8256
30.9192
31.9343
33.6095
36.0582
39.3631
43.5915
48.7945
54.9853
62.0853
69.8255
30.9192
31.9343
33.6094
36.0581
39.3631
43.5915
48.7945
54.9853
62.0853
69.8255
30.9192
31.9343
33.6094
36.0581
39.3631
43.5915
48.7945
54.9853
62.0853
69.8255
30.9192
31.9343
33.6094
36.0582
39.3631
43.5915
48.7945
54.9853
62.0853
69.8255
30.9193
31.9344
33.6095
36.0582
39.3631
43.5915
48.7945
54.9853
62.0854
69.8255
30.9193
31.9344
33.6096
36.0583
39.3632
43.5916
48.7946
54.9854
62.0855
69.8256
30.9194
31.9345
33.6096
36.0584
39.3633
43.5917
48.7947
54.9855
62.0856
69.8258
28.662
29.931
31.7243
34.1236
37.1869
40.9497
45.4185
50.5539
56.2406
62.2503
28.6619
29.9309
31.7243
34.1235
37.1868
40.9496
45.4184
50.5538
56.2405
62.2502
28.6618
29.9309
31.7242
34.1234
37.1867
40.9495
45.4183
50.5537
56.2404
62.2501
28.6618
29.9308
31.7241
34.1234
37.1866
40.9494
45.4183
50.5537
56.2403
62.25
28.6618
29.9308
31.7241
34.1233
37.1866
40.9494
45.4182
50.5536
56.2403
62.25
28.6618
29.9308
31.7241
34.1233
37.1866
40.9494
45.4182
50.5536
56.2403
62.25
28.6618
29.9308
31.7241
34.1234
37.1866
40.9494
45.4183
50.5537
56.2403
62.25
28.6618
29.9308
31.7242
34.1234
37.1867
40.9495
45.4183
50.5537
56.2404
62.2501
28.6619
29.9309
31.7242
34.1235
37.1867
40.9495
45.4184
50.5538
56.2405
62.2501
28.662
29.931
31.7243
34.1236
37.1868
40.9496
45.4185
50.5539
56.2406
62.2503
26.5171
27.9726
29.8431
32.1754
35.0016
38.3308
42.1416
46.3708
50.9032
55.5678
26.517
27.9725
29.843
32.1753
35.0015
38.3307
42.1415
46.3706
50.9031
55.5677
26.517
27.9724
29.8429
32.1753
35.0014
38.3306
42.1414
46.3706
50.903
55.5676
26.5169
27.9724
29.8429
32.1752
35.0013
38.3306
42.1414
46.3705
50.9029
55.5676
26.5169
27.9724
29.8429
32.1752
35.0013
38.3306
42.1413
46.3705
50.9029
55.5675
26.5169
27.9724
29.8429
32.1752
35.0013
38.3306
42.1413
46.3705
50.9029
55.5675
26.5169
27.9724
29.8429
32.1752
35.0013
38.3306
42.1414
46.3705
50.9029
55.5676
26.517
27.9724
29.8429
32.1753
35.0014
38.3306
42.1414
46.3706
50.903
55.5676
26.517
27.9725
29.843
32.1753
35.0014
38.3307
42.1415
46.3706
50.9031
55.5677
26.5171
27.9726
29.8431
32.1754
35.0015
38.3308
42.1416
46.3708
50.9032
55.5678
24.5359
26.1625
28.1036
30.3774
32.9963
35.9513
39.2023
42.6725
46.2508
49.8081
24.5358
26.1625
28.1035
30.3773
32.9962
35.9512
39.2022
42.6724
46.2507
49.8079
24.5358
26.1624
28.1034
30.3772
32.9961
35.9511
39.2021
42.6723
46.2506
49.8079
24.5357
26.1624
28.1034
30.3772
32.996
35.951
39.202
42.6723
46.2506
49.8078
24.5357
26.1623
28.1033
30.3772
32.996
35.951
39.202
42.6722
46.2505
49.8078
24.5357
26.1623
28.1033
30.3772
32.996
35.951
39.202
42.6722
46.2505
49.8078
24.5357
26.1624
28.1034
30.3772
32.996
35.951
39.202
42.6723
46.2506
49.8078
24.5358
26.1624
28.1034
30.3772
32.9961
35.9511
39.2021
42.6723
46.2506
49.8079
24.5358
26.1625
28.1035
30.3773
32.9962
35.9512
39.2022
42.6724
46.2507
49.808
24.5359
26.1625
28.1036
30.3774
32.9963
35.9513
39.2023
42.6725
46.2508
49.8081
22.7613
24.5933
26.6274
28.8708
31.3302
33.9878
36.7895
39.6424
42.422
45.0051
22.7612
24.5933
26.6273
28.8707
31.3301
33.9877
36.7894
39.6423
42.4219
45.005
22.7612
24.5932
26.6272
28.8706
31.3301
33.9876
36.7893
39.6422
42.4218
45.0049
22.7611
24.5932
26.6272
28.8706
31.33
33.9875
36.7893
39.6421
42.4217
45.0049
22.7611
24.5931
26.6272
28.8705
31.33
33.9875
36.7892
39.6421
42.4217
45.0048
22.7611
24.5931
26.6272
28.8705
31.33
33.9875
36.7892
39.6421
42.4217
45.0049
22.7611
24.5932
26.6272
28.8706
31.33
33.9875
36.7893
39.6421
42.4217
45.0049
22.7612
24.5932
26.6272
28.8706
31.3301
33.9876
36.7893
39.6422
42.4218
45.0049
22.7612
24.5933
26.6273
28.8707
31.3301
33.9877
36.7894
39.6423
42.4219
45.005
22.7613
24.5933
26.6274
28.8708
31.3302
33.9878
36.7895
39.6424
42.422
45.0052
21.2474
23.3682
25.5303
27.7775
30.1343
32.5841
35.0621
37.4501
39.5776
41.2466
21.2473
23.3681
25.5302
27.7774
30.1342
32.584
35.062
37.45
39.5775
41.2464
21.2473
23.368
25.5302
27.7773
30.1341
32.584
35.0619
37.4499
39.5775
41.2464
21.2473
23.368
25.5301
27.7773
30.1341
32.5839
35.0618
37.4499
39.5774
41.2463
21.2472
23.368
25.5301
27.7773
30.1341
32.5839
35.0618
37.4499
39.5774
41.2463
21.2472
23.368
25.5301
27.7773
30.1341
32.5839
35.0618
37.4499
39.5774
41.2463
21.2473
23.368
25.5301
27.7773
30.1341
32.5839
35.0619
37.4499
39.5774
41.2463
21.2473
23.368
25.5302
27.7774
30.1341
32.584
35.0619
37.45
39.5775
41.2464
21.2473
23.3681
25.5302
27.7774
30.1342
32.5841
35.062
37.45
39.5776
41.2465
21.2474
23.3682
25.5303
27.7775
30.1343
32.5842
35.0621
37.4502
39.5777
41.2466
20.148
22.6386
24.9299
27.1983
29.5078
31.8504
34.1537
36.2738
37.9674
38.8181
20.1479
22.6385
24.9298
27.1982
29.5078
31.8503
34.1536
36.2737
37.9673
38.818
20.1479
22.6385
24.9298
27.1982
29.5077
31.8502
34.1536
36.2736
37.9672
38.818
20.1479
22.6384
24.9297
27.1981
29.5077
31.8502
34.1535
36.2736
37.9672
38.8179
20.1478
22.6384
24.9297
27.1981
29.5077
31.8502
34.1535
36.2736
37.9672
38.8179
20.1478
22.6384
24.9297
27.1981
29.5077
31.8502
34.1535
36.2736
37.9672
38.8179
20.1479
22.6384
24.9297
27.1981
29.5077
31.8502
34.1535
36.2736
37.9672
38.8179
20.1479
22.6385
24.9298
27.1982
29.5077
31.8503
34.1536
36.2737
37.9673
38.818
20.148
22.6385
24.9299
27.1983
29.5078
31.8503
34.1537
36.2737
37.9673
38.8181
20.148
22.6386
24.9299
27.1984
29.5079
31.8504
34.1538
36.2739
37.9675
38.8182
120.863
133.234
140.841
146.182
150.145
153.127
155.342
156.916
157.928
158.423
120.863
133.234
140.841
146.182
150.145
153.127
155.342
156.916
157.928
158.423
120.863
133.234
140.841
146.182
150.145
153.127
155.341
156.916
157.927
158.423
120.863
133.234
140.841
146.182
150.145
153.127
155.341
156.916
157.927
158.423
120.863
133.234
140.841
146.182
150.144
153.127
155.341
156.916
157.927
158.423
120.863
133.234
140.841
146.182
150.144
153.127
155.341
156.916
157.927
158.423
120.863
133.234
140.841
146.182
150.145
153.127
155.341
156.916
157.927
158.423
120.863
133.234
140.841
146.182
150.145
153.127
155.341
156.916
157.927
158.423
120.863
133.234
140.841
146.182
150.145
153.127
155.342
156.916
157.928
158.423
120.863
133.234
140.841
146.182
150.145
153.127
155.342
156.916
157.928
158.423
102.264
113.336
121.181
126.888
131.135
134.315
136.663
138.324
139.389
139.909
102.264
113.336
121.181
126.888
131.135
134.314
136.663
138.324
139.388
139.909
102.264
113.336
121.181
126.888
131.134
134.314
136.663
138.324
139.388
139.908
102.264
113.336
121.181
126.888
131.134
134.314
136.662
138.324
139.388
139.908
102.264
113.336
121.181
126.888
131.134
134.314
136.662
138.324
139.388
139.908
102.264
113.336
121.181
126.888
131.134
134.314
136.662
138.324
139.388
139.908
102.264
113.336
121.181
126.888
131.134
134.314
136.662
138.324
139.388
139.908
102.264
113.336
121.181
126.888
131.134
134.314
136.663
138.324
139.388
139.909
102.264
113.336
121.181
126.888
131.134
134.314
136.663
138.324
139.389
139.909
102.264
113.336
121.181
126.888
131.135
134.315
136.663
138.324
139.389
139.909
88.6973
97.5912
104.602
110.014
114.163
117.317
119.664
121.33
122.399
122.922
88.6971
97.591
104.602
110.014
114.163
117.317
119.663
121.329
122.399
122.922
88.697
97.5909
104.602
110.013
114.163
117.317
119.663
121.329
122.399
122.921
88.697
97.5908
104.602
110.013
114.163
117.317
119.663
121.329
122.399
122.921
88.6969
97.5908
104.602
110.013
114.163
117.317
119.663
121.329
122.399
122.921
88.6969
97.5908
104.602
110.013
114.163
117.317
119.663
121.329
122.399
122.921
88.6969
97.5908
104.602
110.013
114.163
117.317
119.663
121.329
122.399
122.921
88.697
97.5909
104.602
110.013
114.163
117.317
119.663
121.329
122.399
122.922
88.6971
97.591
104.602
110.014
114.163
117.317
119.664
121.33
122.399
122.922
88.6972
97.5911
104.602
110.014
114.163
117.317
119.664
121.33
122.399
122.922
77.6269
84.6554
90.5683
95.3628
99.1642
102.116
104.343
105.937
106.966
107.471
77.6267
84.6553
90.5682
95.3627
99.1641
102.116
104.343
105.937
106.966
107.471
77.6266
84.6552
90.5681
95.3626
99.164
102.116
104.343
105.937
106.966
107.47
77.6266
84.6551
90.568
95.3625
99.1639
102.116
104.343
105.937
106.966
107.47
77.6265
84.6551
90.568
95.3625
99.1638
102.116
104.343
105.937
106.966
107.47
77.6265
84.6551
90.568
95.3625
99.1639
102.116
104.343
105.937
106.966
107.47
77.6266
84.6551
90.568
95.3625
99.1639
102.116
104.343
105.937
106.966
107.47
77.6266
84.6552
90.5681
95.3626
99.164
102.116
104.343
105.937
106.966
107.47
77.6267
84.6553
90.5682
95.3627
99.1641
102.116
104.343
105.937
106.966
107.471
77.6268
84.6554
90.5683
95.3628
99.1642
102.116
104.343
105.938
106.966
107.471
68.2252
73.7539
78.5909
82.6602
85.9838
88.6232
90.6459
92.1107
93.0625
93.5311
68.2251
73.7538
78.5908
82.66
85.9837
88.6231
90.6458
92.1105
93.0624
93.531
68.225
73.7537
78.5907
82.6599
85.9836
88.623
90.6457
92.1104
93.0623
93.5309
68.2249
73.7536
78.5906
82.6599
85.9835
88.6229
90.6456
92.1104
93.0622
93.5308
68.2249
73.7536
78.5906
82.6598
85.9835
88.6229
90.6456
92.1104
93.0622
93.5308
68.2249
73.7536
78.5906
82.6598
85.9835
88.6229
90.6456
92.1104
93.0622
93.5308
68.2249
73.7536
78.5906
82.6599
85.9835
88.6229
90.6456
92.1104
93.0622
93.5309
68.225
73.7537
78.5907
82.6599
85.9836
88.623
90.6457
92.1105
93.0623
93.5309
68.2251
73.7538
78.5908
82.66
85.9837
88.6231
90.6458
92.1106
93.0624
93.5311
68.2252
73.7539
78.591
82.6602
85.9838
88.6233
90.6459
92.1107
93.0626
93.5312
60.1525
64.4483
68.3045
71.6427
74.4416
76.7127
78.4826
79.78
80.6301
81.0506
60.1523
64.4482
68.3044
71.6426
74.4414
76.7126
78.4824
79.7799
80.63
81.0505
60.1522
64.4481
68.3043
71.6425
74.4413
76.7125
78.4823
79.7798
80.6299
81.0504
60.1522
64.4481
68.3042
71.6425
74.4413
76.7124
78.4823
79.7797
80.6298
81.0504
60.1521
64.448
68.3042
71.6424
74.4412
76.7124
78.4822
79.7797
80.6298
81.0503
60.1521
64.448
68.3042
71.6424
74.4412
76.7124
78.4823
79.7797
80.6298
81.0504
60.1522
64.4481
68.3042
71.6425
74.4413
76.7124
78.4823
79.7798
80.6299
81.0504
60.1522
64.4481
68.3043
71.6425
74.4413
76.7125
78.4824
79.7798
80.6299
81.0505
60.1523
64.4482
68.3044
71.6426
74.4415
76.7126
78.4825
79.78
80.63
81.0506
60.1525
64.4484
68.3045
71.6428
74.4416
76.7128
78.4826
79.7801
80.6302
81.0507
53.2335
56.4671
59.4379
62.0819
64.3574
66.2452
67.7425
68.8546
69.5898
69.9554
53.2334
56.467
59.4378
62.0818
64.3572
66.2451
67.7423
68.8545
69.5897
69.9553
53.2333
56.4669
59.4377
62.0817
64.3571
66.245
67.7422
68.8544
69.5896
69.9553
53.2332
56.4668
59.4376
62.0816
64.3571
66.2449
67.7422
68.8543
69.5896
69.9552
53.2332
56.4668
59.4376
62.0816
64.357
66.2449
67.7422
68.8543
69.5895
69.9552
53.2332
56.4668
59.4376
62.0816
64.357
66.2449
67.7422
68.8543
69.5896
69.9552
53.2332
56.4668
59.4377
62.0816
64.3571
66.245
67.7422
68.8543
69.5896
69.9553
53.2333
56.4669
59.4377
62.0817
64.3572
66.245
67.7423
68.8544
69.5897
69.9553
53.2334
56.467
59.4378
62.0818
64.3573
66.2451
67.7424
68.8545
69.5898
69.9554
53.2335
56.4671
59.438
62.082
64.3574
66.2453
67.7425
68.8547
69.5899
69.9556
47.3503
49.6092
51.7736
53.7783
55.5611
57.0788
58.3063
59.2312
59.8487
60.1575
47.3502