/*--------------------------------*- C++ -*----------------------------------*\
  =========                 |
  \\      /  F ield         | OpenFOAM: The Open Source CFD Toolbox
   \\    /   O peration     | Website:  https://openfoam.org
    \\  /    A nd           | Version:  6
     \\/     M anipulation  |
\*---------------------------------------------------------------------------*/
FoamFile
{
    version     2.0;
    format      ascii;
    class       volVectorField;
    location    "0.05";
    object      U;
}
// * * * * * * * * * * * * * * * * * * * * * * * * * * * * * * * * * * * * * //

dimensions      [0 1 -1 0 0 0 0];

internalField   nonuniform List<vector> 
56000
(
(-1.38966e-05 1.86862e-05 0.211765)
(5.43069e-06 2.62161e-05 0.449304)
(8.71026e-05 2.13261e-05 0.596378)
(0.000188519 1.36699e-05 0.683084)
(0.000258824 4.83548e-06 0.723342)
(0.000259689 -5.25163e-06 0.722564)
(0.000185922 -1.66818e-05 0.680848)
(7.38349e-05 -2.91838e-05 0.593042)
(-1.10164e-05 -4.03148e-05 0.445675)
(-2.01662e-05 -3.42733e-05 0.209458)
(-3.15541e-06 0.000101387 0.451586)
(9.85753e-05 0.000170753 1.06545)
(0.000362844 0.000161868 1.47183)
(0.000664082 0.000116984 1.71883)
(0.000871228 5.37992e-05 1.83521)
(0.000886329 -2.16226e-05 1.83347)
(0.000691781 -0.000105277 1.71387)
(0.000370801 -0.000184739 1.46452)
(8.13683e-05 -0.000226651 1.05771)
(-1.19096e-05 -0.000150087 0.447268)
(6.09904e-06 0.000182148 0.607355)
(0.000204842 0.000326736 1.49311)
(0.000639811 0.000329748 2.10361)
(0.00111829 0.000257483 2.48371)
(0.00144382 0.000142186 2.66513)
(0.00147355 -2.59131e-07 2.66274)
(0.001179 -0.000156549 2.47691)
(0.000675653 -0.000298522 2.09367)
(0.000195 -0.000365274 1.48274)
(-3.97626e-06 -0.000232161 0.601688)
(1.09614e-05 0.000234501 0.713153)
(0.000283285 0.000444239 1.7922)
(0.000851553 0.000472326 2.55579)
(0.00146852 0.000391554 3.03975)
(0.00188584 0.000244994 3.27305)
(0.0019251 5.77202e-05 3.27006)
(0.00155004 -0.000147668 3.03126)
(0.000903195 -0.000330394 2.54342)
(0.000275395 -0.000412828 1.77939)
(-7.25039e-07 -0.00025864 0.706212)
(1.19521e-05 0.000254296 0.786998)
(0.000331496 0.000503637 2.00354)
(0.000992774 0.00055867 2.87934)
(0.00170906 0.000487335 3.44137)
(0.00219197 0.000336182 3.71423)
(0.0022359 0.000135596 3.71065)
(0.00179973 -8.60303e-05 3.43121)
(0.00104858 -0.000282627 2.86461)
(0.000319686 -0.00037444 1.98836)
(-2.23563e-06 -0.000236066 0.778806)
(1.06685e-05 0.000246026 0.838972)
(0.0003558 0.000504657 2.15304)
(0.00107618 0.00057922 3.1097)
(0.00185837 0.000526803 3.72882)
(0.00238494 0.000391378 4.03084)
(0.00243034 0.000203997 4.0267)
(0.00195072 -5.89981e-06 3.71707)
(0.00112919 -0.000193947 3.09272)
(0.000337168 -0.00028871 2.13564)
(-6.13543e-06 -0.000187169 0.829619)
(8.44689e-06 0.000215043 0.875187)
(0.00036457 0.000453058 2.25743)
(0.00111926 0.00053386 3.27107)
(0.0019422 0.000501592 3.93073)
(0.00249605 0.000393451 4.25356)
(0.0025413 0.000237108 4.24891)
(0.00203267 5.8888e-05 3.91758)
(0.00116677 -0.000103594 3.25211)
(0.000338776 -0.000192968 2.23809)
(-1.06367e-05 -0.000131843 0.864837)
(6.17929e-06 0.000166405 0.899547)
(0.000365149 0.000357399 2.32771)
(0.00113798 0.000429253 3.37987)
(0.00198437 0.00041297 4.06707)
(0.00255423 0.000336397 4.40403)
(0.00259876 0.000220952 4.39897)
(0.00207201 8.69777e-05 4.05277)
(0.00118 -3.75466e-05 3.35933)
(0.000333358 -0.000111584 2.30682)
(-1.4647e-05 -8.24227e-05 0.888417)
(4.42362e-06 0.000105024 0.914553)
(0.000362854 0.000228384 2.37101)
(0.00114425 0.000277715 3.44696)
(0.00200294 0.00027132 4.15119)
(0.00258141 0.000226318 4.49689)
(0.00262525 0.000156134 4.49155)
(0.00208821 7.34843e-05 4.1361)
(0.00118218 -4.57643e-06 3.42532)
(0.000326907 -5.36683e-05 2.34907)
(-1.75543e-05 -4.34735e-05 0.902892)
(3.4832e-06 3.5875e-05 0.921704)
(0.000360951 7.84934e-05 2.39164)
(0.0011456 9.60286e-05 3.47894)
(0.00200947 9.45299e-05 4.1913)
(0.00259164 7.97588e-05 4.54118)
(0.00263509 5.6276e-05 4.53569)
(0.00209345 2.83912e-05 4.1758)
(0.00118141 1.81574e-06 3.45674)
(0.000322905 -1.53901e-05 2.36916)
(-1.90629e-05 -1.33658e-05 0.909774)
(3.48431e-06 -3.58938e-05 0.921704)
(0.000360955 -7.85163e-05 2.39164)
(0.00114561 -9.60591e-05 3.47894)
(0.00200948 -9.4554e-05 4.1913)
(0.00259165 -7.97709e-05 4.54118)
(0.0026351 -5.62772e-05 4.53569)
(0.00209345 -2.83859e-05 4.1758)
(0.00118141 -1.80813e-06 3.45674)
(0.000322905 1.53982e-05 2.36916)
(-1.90628e-05 1.33669e-05 0.909774)
(4.42737e-06 -0.000105047 0.914553)
(0.000362868 -0.000228415 2.37101)
(0.00114427 -0.000277753 3.44696)
(0.00200297 -0.00027135 4.15119)
(0.00258143 -0.000226333 4.49689)
(0.00262527 -0.000156137 4.49155)
(0.00208822 -7.34801e-05 4.1361)
(0.00118219 4.58321e-06 3.42532)
(0.000326906 5.36756e-05 2.34907)
(-1.7554e-05 4.34742e-05 0.902892)
(6.18705e-06 -0.000166439 0.899547)
(0.000365177 -0.00035745 2.3277)
(0.00113803 -0.00042931 3.37987)
(0.00198442 -0.000413015 4.06707)
(0.00255427 -0.000336423 4.40403)
(0.00259879 -0.000220963 4.39897)
(0.00207202 -8.69794e-05 4.05277)
(0.00118001 3.75486e-05 3.35933)
(0.000333356 0.000111587 2.30682)
(-1.46464e-05 8.24223e-05 0.888417)
(8.46109e-06 -0.0002151 0.875187)
(0.000364623 -0.000453149 2.25743)
(0.00111935 -0.000533956 3.27107)
(0.00194229 -0.000501668 3.93073)
(0.00249612 -0.000393501 4.25356)
(0.00254134 -0.000237138 4.24891)
(0.00203269 -5.89056e-05 3.91758)
(0.00116678 0.000103584 3.25211)
(0.000338775 0.000192961 2.23809)
(-1.06357e-05 0.00013184 0.864837)
(1.06926e-05 -0.000246131 0.838972)
(0.000355901 -0.00050482 2.15304)
(0.00107632 -0.000579381 3.1097)
(0.00185851 -0.000526932 3.72881)
(0.00238504 -0.000391471 4.03084)
(0.00243041 -0.000204061 4.0267)
(0.00195076 5.85442e-06 3.71707)
(0.0011292 0.000193914 3.09272)
(0.000337169 0.000288688 2.13564)
(-6.13381e-06 0.000187162 0.829619)
(1.19908e-05 -0.000254507 0.786998)
(0.000331699 -0.000503923 2.00354)
(0.000993014 -0.000558931 2.87934)
(0.00170927 -0.000487534 3.44137)
(0.00219212 -0.000336327 3.71423)
(0.002236 -0.000135701 3.71065)
(0.00179979 8.59529e-05 3.43121)
(0.00104861 0.00028257 2.86461)
(0.000319693 0.0003744 1.98836)
(-2.23351e-06 0.000236054 0.778806)
(1.10322e-05 -0.000234985 0.713153)
(0.000283698 -0.000444755 1.7922)
(0.000851942 -0.000472728 2.55579)
(0.00146883 -0.000391828 3.03975)
(0.00188605 -0.00024518 3.27305)
(0.00192523 -5.78522e-05 3.27006)
(0.00155012 0.000147572 3.03126)
(0.000903239 0.000330324 2.54342)
(0.000275409 0.000412779 1.77939)
(-7.22368e-07 0.000258626 0.706212)
(6.25276e-06 -0.000183405 0.607354)
(0.000205655 -0.000327723 1.49311)
(0.000640453 -0.00033033 2.10361)
(0.00111871 -0.000257812 2.48371)
(0.00144407 -0.000142381 2.66513)
(0.0014737 1.33461e-07 2.66274)
(0.00117909 0.000156462 2.47691)
(0.000675709 0.000298461 2.09367)
(0.00019502 0.000365233 1.48274)
(-3.97358e-06 0.000232149 0.601688)
(-2.15774e-06 -0.000105362 0.451586)
(0.000100631 -0.00017277 1.06545)
(0.000363867 -0.000162643 1.47183)
(0.000664592 -0.000117378 1.71883)
(0.000871483 -5.40064e-05 1.83521)
(0.000886467 2.15011e-05 1.83347)
(0.000691865 0.000105197 1.71387)
(0.000370856 0.000184686 1.46452)
(8.1391e-05 0.000226617 1.05771)
(-1.19076e-05 0.000150081 0.447268)
(-1.10364e-05 -2.15352e-05 0.211764)
(9.43245e-06 -2.71902e-05 0.449304)
(8.83829e-05 -2.14428e-05 0.596378)
(0.000189008 -1.37011e-05 0.683084)
(0.000259026 -4.84254e-06 0.723342)
(0.000259781 5.24731e-06 0.722564)
(0.00018597 1.66777e-05 0.680848)
(7.38622e-05 2.91803e-05 0.593042)
(-1.10031e-05 4.03116e-05 0.445676)
(-2.0164e-05 3.42719e-05 0.209458)
(-4.8881e-05 5.70185e-05 0.211696)
(-9.17441e-05 7.32303e-05 0.449112)
(1.26174e-05 5.9194e-05 0.596129)
(0.000197622 3.32048e-05 0.68288)
(0.000348223 1.65023e-06 0.723276)
(0.000364192 -3.40587e-05 0.722688)
(0.000224331 -7.28056e-05 0.68114)
(1.27625e-05 -0.000110914 0.593407)
(-0.000118086 -0.000135866 0.445973)
(-6.81417e-05 -0.000105023 0.209576)
(-4.19334e-05 0.000286961 0.451433)
(2.78223e-05 0.000476728 1.06498)
(0.000518755 0.000432872 1.47119)
(0.00116361 0.000264187 1.71828)
(0.00165424 2.64294e-05 1.83498)
(0.00172738 -0.000249766 1.8337)
(0.00131624 -0.000534511 1.7145)
(0.000618433 -0.000770937 1.46532)
(2.19063e-05 -0.000842406 1.05833)
(-6.18668e-05 -0.000505148 0.447469)
(-2.43686e-05 0.000515133 0.607165)
(0.000261111 0.0009117 1.49246)
(0.00117507 0.000870208 2.1027)
(0.00227585 0.000569488 2.48291)
(0.00308444 0.000114973 2.66476)
(0.00320787 -0.00042007 2.66299)
(0.00254138 -0.000959205 2.47769)
(0.00136836 -0.00137947 2.09466)
(0.000278282 -0.0014682 1.48346)
(-4.92172e-05 -0.000841293 0.601874)
(-1.41969e-05 0.000666383 0.712966)
(0.000450615 0.00123404 1.79147)
(0.00171394 0.00122911 2.55473)
(0.00318802 0.000852277 3.03879)
(0.0042505 0.000246147 3.27258)
(0.00440389 -0.000476289 3.2703)
(0.00351754 -0.00119417 3.0321)
(0.00195171 -0.00173069 2.54447)
(0.000466352 -0.00181247 1.78011)
(-4.665e-05 -0.00100954 0.706334)
(-1.38994e-05 0.000721242 0.786836)
(0.000568007 0.00138698 2.00281)
(0.00208079 0.00143316 2.87823)
(0.00382798 0.00104808 3.44034)
(0.00507379 0.000389064 3.71372)
(0.00523989 -0.000406956 3.71089)
(0.00418024 -0.00119171 3.43208)
(0.00232235 -0.00176296 2.86566)
(0.000562543 -0.00183428 1.98903)
(-5.65498e-05 -0.00100253 0.778859)
(-2.00406e-05 0.000692934 0.838846)
(0.000620839 0.00137466 2.15234)
(0.00229047 0.00146544 3.1086)
(0.00421835 0.00112284 3.72778)
(0.00558521 0.000498363 4.03034)
(0.00575326 -0.000266728 4.02696)
(0.00456842 -0.00101866 3.71797)
(0.0025133 -0.0015585 3.09379)
(0.000585672 -0.00162365 2.13627)
(-7.27746e-05 -0.000876905 0.829617)
(-2.90539e-05 0.000600073 0.8751)
(0.000629561 0.00122033 2.25678)
(0.0023853 0.00133426 3.27001)
(0.00442143 0.00106233 3.92974)
(0.00586166 0.000534703 4.2531)
(0.00602657 -0.00012103 4.24923)
(0.00475852 -0.000765766 3.91853)
(0.00258199 -0.00122655 3.2532)
(0.000565042 -0.00128744 2.2387)
(-9.0334e-05 -0.000690889 0.8648)
(-3.80705e-05 0.000460134 0.899495)
(0.000615755 0.000953283 2.32711)
(0.00241139 0.00106243 3.37887)
(0.00450586 0.000870934 4.06613)
(0.00598671 0.000477404 4.40363)
(0.00614717 -1.80923e-05 4.39935)
(0.0048283 -0.000506439 4.05379)
(0.00258389 -0.000855833 3.36046)
(0.000527244 -0.000908422 2.30743)
(-0.000105797 -0.000486306 0.888361)
(-4.50751e-05 0.000288352 0.914527)
(0.000596884 0.000604818 2.37046)
(0.00240707 0.000682771 3.446)
(0.0045292 0.000570739 4.1503)
(0.00603017 0.000329832 4.49655)
(0.00618693 2.3435e-05 4.49199)
(0.00484019 -0.000279365 4.13717)
(0.00256198 -0.000496683 3.42648)
(0.000491913 -0.000533149 2.34968)
(-0.000117034 -0.000285365 0.902827)
(-4.88541e-05 9.81281e-05 0.921691)
(0.000584594 0.000207102 2.39112)
(0.00239842 0.0002353 3.47801)
(0.00453099 0.000198622 4.19044)
(0.00603994 0.000117726 4.54086)
(0.00619467 1.42667e-05 4.53615)
(0.00483587 -8.81575e-05 4.1769)
(0.00254425 -0.000161839 3.45792)
(0.000471345 -0.000174955 2.36979)
(-0.000122894 -9.36902e-05 0.909707)
(-4.88531e-05 -9.81452e-05 0.921691)
(0.000584599 -0.000207114 2.39112)
(0.00239843 -0.000235319 3.47801)
(0.004531 -0.000198631 4.19044)
(0.00603995 -0.00011772 4.54086)
(0.00619467 -1.42485e-05 4.53615)
(0.00483588 8.8183e-05 4.1769)
(0.00254425 0.000161867 3.45792)
(0.000471344 0.000174984 2.36979)
(-0.000122894 9.36953e-05 0.909707)
(-4.50717e-05 -0.000288374 0.914527)
(0.000596899 -0.000604839 2.37046)
(0.0024071 -0.000682798 3.446)
(0.00452923 -0.000570754 4.1503)
(0.0060302 -0.000329831 4.49655)
(0.00618694 -2.34201e-05 4.49199)
(0.00484019 0.000279388 4.13717)
(0.00256198 0.000496708 3.42648)
(0.00049191 0.000533175 2.34968)
(-0.000117033 0.000285369 0.902827)
(-3.80638e-05 -0.000460168 0.899495)
(0.000615785 -0.000953327 2.32711)
(0.00241145 -0.00106248 3.37887)
(0.00450592 -0.00087097 4.06613)
(0.00598675 -0.000477419 4.40363)
(0.0061472 1.80936e-05 4.39935)
(0.00482831 0.00050645 4.05379)
(0.00258389 0.000855849 3.36046)
(0.000527239 0.00090844 2.30743)
(-0.000105796 0.000486308 0.888361)
(-2.90418e-05 -0.000600131 0.8751)
(0.000629614 -0.00122043 2.25678)
(0.00238539 -0.00133436 3.27001)
(0.00442152 -0.00106241 3.92974)
(0.00586173 -0.000534757 4.2531)
(0.00602661 0.000120998 4.24923)
(0.00475853 0.000765749 3.91853)
(0.00258199 0.00122654 3.2532)
(0.000565036 0.00128744 2.2387)
(-9.0333e-05 0.000690885 0.864799)
(-2.00199e-05 -0.000693042 0.838846)
(0.000620933 -0.00137484 2.15234)
(0.00229062 -0.00146563 3.1086)
(0.00421849 -0.001123 3.72778)
(0.00558532 -0.000498481 4.03034)
(0.00575332 0.000266642 4.02696)
(0.00456845 0.0010186 3.71797)
(0.00251331 0.00155845 3.09379)
(0.000585668 0.00162363 2.13627)
(-7.27734e-05 0.000876893 0.829617)
(-1.38625e-05 -0.000721445 0.786836)
(0.000568181 -0.0013873 2.00281)
(0.00208101 -0.00143347 2.87823)
(0.00382819 -0.00104833 3.44034)
(0.00507394 -0.000389256 3.71372)
(0.00523999 0.000406809 3.71089)
(0.00418029 0.0011916 3.43208)
(0.00232237 0.00176288 2.86566)
(0.000562545 0.00183422 1.98903)
(-5.65481e-05 0.00100251 0.778859)
(-1.41179e-05 -0.000666779 0.712966)
(0.000450945 -0.00123456 1.79147)
(0.0017143 -0.00122956 2.55473)
(0.00318831 -0.000852611 3.03879)
(0.0042507 -0.000246392 3.27258)
(0.00440403 0.000476105 3.2703)
(0.00351762 0.00119403 3.0321)
(0.00195175 0.00173058 2.54447)
(0.000466365 0.00181239 1.78011)
(-4.66481e-05 0.00100952 0.706334)
(-2.41723e-05 -0.000515909 0.607166)
(0.000261709 -0.000912511 1.49246)
(0.00117564 -0.000870785 2.1027)
(0.00227625 -0.000569857 2.48291)
(0.00308469 -0.000115214 2.66476)
(0.00320802 0.000419901 2.66299)
(0.00254148 0.000959083 2.47769)
(0.00136842 0.00137938 2.09466)
(0.000278304 0.00146814 1.48346)
(-4.92153e-05 0.000841275 0.601874)
(-4.13594e-05 -0.000288362 0.451434)
(2.88537e-05 -0.000477762 1.06498)
(0.000519542 -0.000433477 1.47119)
(0.00116407 -0.000264539 1.71828)
(0.0016545 -2.66425e-05 1.83499)
(0.00172753 0.000249624 1.8337)
(0.00131634 0.00053441 1.7145)
(0.0006185 0.000770866 1.46532)
(2.19343e-05 0.000842361 1.05833)
(-6.18654e-05 0.000505137 0.447469)
(-4.79416e-05 -5.79524e-05 0.211699)
(-9.03336e-05 -7.3792e-05 0.449113)
(1.33931e-05 -5.93679e-05 0.596129)
(0.000198001 -3.32585e-05 0.68288)
(0.000348401 -1.66738e-06 0.723276)
(0.000364281 3.40492e-05 0.722688)
(0.00022438 7.27982e-05 0.68114)
(1.27922e-05 0.000110909 0.593407)
(-0.000118072 0.000135862 0.445973)
(-6.81397e-05 0.000105021 0.209576)
(-8.09783e-05 0.000110995 0.211563)
(-9.94215e-05 0.000138828 0.448718)
(0.00017336 0.00010992 0.595611)
(0.00060258 6.00408e-05 0.682454)
(0.000960013 3.32056e-07 0.723145)
(0.00104032 -6.73671e-05 0.722967)
(0.000777161 -0.000142253 0.681802)
(0.000306203 -0.000218126 0.594254)
(-6.90354e-05 -0.000272831 0.44669)
(-0.000109276 -0.000214178 0.209883)
(-5.59466e-05 0.000543436 0.451119)
(0.000224228 0.000883938 1.06399)
(0.00132723 0.000790079 1.46985)
(0.00273201 0.000471899 1.71712)
(0.00383349 2.91205e-05 1.83452)
(0.00409692 -0.000486509 1.83422)
(0.00333171 -0.0010251 1.71592)
(0.00185144 -0.00148577 1.46715)
(0.000417796 -0.00164852 1.05981)
(-6.51465e-05 -0.00101155 0.44799)
(-1.59496e-05 0.000956341 0.60677)
(0.000725276 0.00166814 1.4911)
(0.00269279 0.0015728 2.10079)
(0.00503012 0.00100933 2.48119)
(0.00680219 0.000168348 2.66397)
(0.00721328 -0.000821991 2.66353)
(0.00597371 -0.0018284 2.47945)
(0.00353364 -0.00262942 2.09693)
(0.00104479 -0.00282413 1.4852)
(-2.4094e-05 -0.00164336 0.602371)
(8.32281e-06 0.00122304 0.712569)
(0.00112654 0.00223862 1.78993)
(0.00380118 0.00220564 2.55248)
(0.00689498 0.00150177 3.03672)
(0.00919597 0.000385163 3.27155)
(0.00969955 -0.0009437 3.27079)
(0.0080476 -0.00227066 3.03396)
(0.00481822 -0.00327626 2.54687)
(0.00149499 -0.00344901 1.78183)
(-8.96722e-06 -0.00194217 0.706696)
(1.31617e-05 0.00131321 0.786485)
(0.00138258 0.00249947 2.00123)
(0.00456581 0.00255665 2.87584)
(0.00821509 0.00183745 3.43809)
(0.0108989 0.000626804 3.71256)
(0.0114512 -0.000830553 3.71134)
(0.00947097 -0.00227009 3.43398)
(0.0056519 -0.00332652 2.86807)
(0.0017444 -0.00346815 1.99064)
(-2.06312e-05 -0.00191075 0.779069)
(5.26451e-06 0.00125394 0.838566)
(0.00151109 0.0024639 2.15082)
(0.00502185 0.00260107 3.1062)
(0.00904456 0.00195977 3.72549)
(0.0119852 0.000814399 4.02916)
(0.0125588 -0.000581559 4.02744)
(0.0103389 -0.00195281 3.71991)
(0.00611581 -0.00294055 3.0962)
(0.00183973 -0.00306063 2.13778)
(-4.58228e-05 -0.00166265 0.829703)
(-8.68571e-06 0.00108065 0.874896)
(0.00155142 0.00217768 2.25535)
(0.00525087 0.00235833 3.26767)
(0.0095043 0.00184724 3.92749)
(0.0126056 0.000880146 4.25197)
(0.0131858 -0.00031349 4.24978)
(0.0108046 -0.00148414 3.92054)
(0.0063264 -0.00232032 3.25563)
(0.00184102 -0.00242598 2.24015)
(-7.46305e-05 -0.00130719 0.8648)
(-2.33372e-05 0.000825592 0.899359)
(0.00154399 0.00169536 2.32578)
(0.00533928 0.00187177 3.37662)
(0.00972322 0.00151004 4.06397)
(0.0129178 0.000788756 4.40259)
(0.0134984 -0.000111861 4.4)
(0.0110173 -0.00099585 4.05589)
(0.00639084 -0.0016261 3.36293)
(0.00179986 -0.00171417 2.30887)
(-0.000100496 -0.000920064 0.888312)
(-3.49492e-05 0.000516079 0.914441)
(0.00152115 0.00107314 2.36921)
(0.00535808 0.0012002 3.44384)
(0.00980823 0.000987588 4.14822)
(0.0130519 0.000545938 4.49559)
(0.0136312 -1.04978e-05 4.49273)
(0.0110944 -0.000557559 4.13935)
(0.0063904 -0.000948035 3.42901)
(0.00175346 -0.00100805 2.35112)
(-0.000119449 -0.00054038 0.902754)
(-4.12705e-05 0.000175404 0.921632)
(0.00150446 0.000367029 2.38992)
(0.00535551 0.000413151 3.4759)
(0.00983248 0.000343341 4.18841)
(0.0130968 0.000195001 4.53996)
(0.0136751 7.18229e-06 4.53695)
(0.0111138 -0.000177693 4.17913)
(0.00637754 -0.000309827 3.46048)
(0.00172484 -0.000331267 2.37123)
(-0.000129369 -0.000177558 0.909624)
(-4.12696e-05 -0.000175424 0.921632)
(0.00150446 -0.000367049 2.38992)
(0.00535551 -0.000413179 3.4759)
(0.00983249 -0.000343361 4.18841)
(0.0130968 -0.000195006 4.53996)
(0.0136751 -7.17312e-06 4.53694)
(0.0111138 0.000177712 4.17913)
(0.00637754 0.000309853 3.46048)
(0.00172484 0.0003313 2.37123)
(-0.000129369 0.000177561 0.909624)
(-3.49463e-05 -0.000516103 0.914441)
(0.00152117 -0.00107317 2.36921)
(0.00535811 -0.00120024 3.44384)
(0.00980826 -0.000987615 4.14822)
(0.0130519 -0.000545949 4.49559)
(0.0136312 1.05021e-05 4.49273)
(0.0110944 0.000557574 4.13935)
(0.0063904 0.000948057 3.42901)
(0.00175346 0.00100808 2.35112)
(-0.000119448 0.000540383 0.902754)
(-2.33316e-05 -0.000825628 0.899359)
(0.00154401 -0.00169542 2.32578)
(0.00533933 -0.00187183 3.37662)
(0.00972327 -0.00151009 4.06397)
(0.0129178 -0.000788784 4.40259)
(0.0134985 0.000111851 4.4)
(0.0110173 0.000995853 4.05589)
(0.00639084 0.00162611 3.36293)
(0.00179986 0.00171418 2.30887)
(-0.000100496 0.000920063 0.888312)
(-8.67584e-06 -0.0010807 0.874896)
(0.00155147 -0.00217777 2.25535)
(0.00525095 -0.00235844 3.26767)
(0.00950439 -0.00184732 3.92749)
(0.0126057 -0.000880207 4.25197)
(0.0131859 0.000313451 4.24978)
(0.0108047 0.00148412 3.92054)
(0.00632641 0.00232031 3.25563)
(0.00184101 0.00242598 2.24015)
(-7.46296e-05 0.00130718 0.8648)
(5.28151e-06 -0.00125404 0.838566)
(0.00151117 -0.00246407 2.15082)
(0.00502197 -0.00260125 3.1062)
(0.00904469 -0.00195992 3.72549)
(0.0119853 -0.000814509 4.02916)
(0.0125589 0.000581479 4.02744)
(0.0103389 0.00195275 3.71991)
(0.00611582 0.00294051 3.0962)
(0.00183973 0.00306061 2.13778)
(-4.58218e-05 0.00166264 0.829703)
(1.31925e-05 -0.00131338 0.786485)
(0.00138272 -0.00249974 2.00123)
(0.00456601 -0.00255692 2.87584)
(0.00821527 -0.00183767 3.43809)
(0.010899 -0.000626967 3.71256)
(0.0114513 0.000830432 3.71134)
(0.00947102 0.00227 3.43398)
(0.00565192 0.00332646 2.86807)
(0.00174441 0.00346811 1.99064)
(-2.06304e-05 0.00191073 0.779069)
(8.38565e-06 -0.00122331 0.712569)
(0.00112678 -0.00223903 1.78993)
(0.00380148 -0.00220601 2.55248)
(0.00689524 -0.00150205 3.03672)
(0.00919616 -0.000385359 3.27155)
(0.00969967 0.000943557 3.27079)
(0.00804767 0.00227056 3.03396)
(0.00481825 0.00327618 2.54687)
(0.001495 0.00344895 1.78183)
(-8.96661e-06 0.00194215 0.706696)
(-1.58173e-05 -0.000956784 0.60677)
(0.000725687 -0.00166871 1.4911)
(0.00269325 -0.00157324 2.10079)
(0.00503047 -0.00100962 2.48119)
(0.00680242 -0.000168534 2.66397)
(0.00721342 0.000821864 2.66353)
(0.00597379 0.00182831 2.47945)
(0.00353368 0.00262936 2.09693)
(0.00104481 0.00282409 1.4852)
(-2.40938e-05 0.00164335 0.602371)
(-5.56885e-05 -0.000544023 0.451119)
(0.000224837 -0.000884528 1.06399)
(0.00132781 -0.000790469 1.46985)
(0.00273239 -0.000472128 1.71712)
(0.00383371 -2.92577e-05 1.83452)
(0.00409704 0.00048642 1.83422)
(0.00333179 0.00102504 1.71592)
(0.00185148 0.00148573 1.46715)
(0.000417811 0.00164849 1.05981)
(-6.51465e-05 0.00101155 0.44799)
(-8.07423e-05 -0.000111227 0.211564)
(-9.88225e-05 -0.000139077 0.448718)
(0.00017381 -0.000110036 0.595611)
(0.000602847 -6.0083e-05 0.682454)
(0.000960153 -3.45096e-07 0.723145)
(0.00104039 6.73618e-05 0.722967)
(0.000777197 0.000142249 0.681802)
(0.00030622 0.000218123 0.594254)
(-6.90292e-05 0.000272828 0.44669)
(-0.000109275 0.000214177 0.209883)
(-0.000104587 0.000193464 0.211236)
(6.16516e-05 0.000236546 0.447878)
(0.000766106 0.000182747 0.594549)
(0.00173847 9.96854e-05 0.681564)
(0.00255281 2.48924e-06 0.722803)
(0.00281973 -0.000108454 0.723412)
(0.00236281 -0.000235495 0.68303)
(0.0013529 -0.000371729 0.595946)
(0.00034457 -0.000487595 0.448238)
(-0.000122042 -0.000394651 0.210635)
(-2.3212e-05 0.000924554 0.450392)
(0.000908925 0.00146582 1.06195)
(0.00332177 0.00129602 1.46716)
(0.00625798 0.000786136 1.71477)
(0.00861264 8.84751e-05 1.83344)
(0.00938557 -0.000731003 1.835)
(0.00809772 -0.00161452 1.71853)
(0.00512596 -0.0024217 1.47078)
(0.00182493 -0.00279767 1.06298)
(5.19227e-05 -0.00180007 0.449276)
(6.46639e-05 0.00158309 0.605844)
(0.00192958 0.00271792 1.48829)
(0.00598935 0.00255443 2.09696)
(0.0106988 0.00167368 2.47773)
(0.0143735 0.000371092 2.66221)
(0.0155356 -0.00117583 2.6643)
(0.0134718 -0.00279075 2.48269)
(0.00871898 -0.0041531 2.10147)
(0.00330362 -0.00461602 1.48901)
(0.000175435 -0.00279154 0.603706)
(0.00011943 0.0019927 0.711593)
(0.00272431 0.00360961 1.78672)
(0.00810441 0.00355947 2.54797)
(0.0142266 0.00248143 3.03254)
(0.0189239 0.000775827 3.2693)
(0.0203403 -0.0012713 3.27146)
(0.017598 -0.00336452 3.03746)
(0.0113991 -0.00503729 2.55177)
(0.00434374 -0.00547454 1.78576)
(0.000234934 -0.00318939 0.707878)
(0.000138822 0.00211817 0.785548)
(0.00324584 0.00400199 1.99787)
(0.00957992 0.00410651 2.87099)
(0.0167407 0.00302465 3.43352)
(0.0221794 0.0011973 3.71004)
(0.0237483 -0.00102192 3.71197)
(0.0204614 -0.00326186 3.43761)
(0.0131796 -0.00498974 2.87312)
(0.00496636 -0.00537079 1.99453)
(0.000239562 -0.00305606 0.780065)
(0.00013534 0.00200898 0.837713)
(0.00353735 0.00392553 2.14747)
(0.0105031 0.00416253 3.10124)
(0.0183755 0.00321367 3.72078)
(0.0243216 0.0015023 4.02656)
(0.0259778 -0.00060332 4.02811)
(0.022289 -0.00271424 3.72368)
(0.014253 -0.00430956 3.10136)
(0.00528299 -0.00463977 2.14163)
(0.000216276 -0.00260318 0.830553)
(0.000120311 0.00172343 0.874142)
(0.00366884 0.00345721 2.25211)
(0.0110197 0.00376318 3.26276)
(0.0193485 0.00301832 3.9228)
(0.025624 0.00158537 4.24943)
(0.0273294 -0.000201639 4.25058)
(0.023366 -0.00198926 3.92449)
(0.014839 -0.00332768 3.26094)
(0.00540816 -0.00361101 2.244)
(0.00018319 -0.00201181 0.865562)
(0.000102437 0.00131265 0.898697)
(0.00370729 0.00268482 2.32267)
(0.0112736 0.00298025 3.37182)
(0.0198757 0.00245996 4.05938)
(0.026353 0.00139813 4.40018)
(0.028086 5.7272e-05 4.40098)
(0.0239493 -0.0012849 4.06004)
(0.0151239 -0.00228757 3.36839)
(0.00543224 -0.00251349 2.31276)
(0.000151501 -0.00139732 0.889029)
(8.76456e-05 0.00081899 0.91385)
(0.00370474 0.00169674 2.36621)
(0.0113793 0.00190814 3.43915)
(0.0201302 0.00160539 4.14374)
(0.0267207 0.000958102 4.49331)
(0.0284688 0.000132707 4.49385)
(0.0242335 -0.000694872 4.14366)
(0.0152432 -0.00131376 3.4346)
(0.00541744 -0.00146202 2.35507)
(0.00012768 -0.000813144 0.903454)
(7.94514e-05 0.000278106 0.921079)
(0.00369519 0.000579853 2.38698)
(0.0114133 0.000656353 3.47127)
(0.0202287 0.000557494 4.184)
(0.0268695 0.000340578 4.53775)
(0.0286242 6.2482e-05 4.53816)
(0.024345 -0.000216696 4.18353)
(0.0152825 -0.000425751 3.46615)
(0.00540132 -0.000477651 2.37522)
(0.000115078 -0.000265908 0.91032)
(7.94519e-05 -0.000278129 0.921079)
(0.0036952 -0.00057988 2.38698)
(0.0114133 -0.000656391 3.47127)
(0.0202287 -0.000557528 4.184)
(0.0268695 -0.000340598 4.53775)
(0.0286242 -6.24876e-05 4.53816)
(0.024345 0.000216704 4.18353)
(0.0152825 0.00042577 3.46615)
(0.00540132 0.000477683 2.37522)
(0.000115078 0.000265909 0.91032)
(8.76472e-05 -0.000819017 0.91385)
(0.00370475 -0.00169677 2.36621)
(0.0113793 -0.00190819 3.43915)
(0.0201303 -0.00160543 4.14374)
(0.0267208 -0.000958128 4.49331)
(0.0284688 -0.000132718 4.49385)
(0.0242335 0.000694874 4.14366)
(0.0152432 0.00131377 3.4346)
(0.00541744 0.00146204 2.35507)
(0.00012768 0.000813143 0.903454)
(0.00010244 -0.00131269 0.898697)
(0.00370732 -0.00268488 2.32267)
(0.0112736 -0.00298032 3.37182)
(0.0198757 -0.00246002 4.05938)
(0.026353 -0.00139817 4.40018)
(0.028086 -5.72954e-05 4.40098)
(0.0239493 0.00128489 4.06004)
(0.0151239 0.00228757 3.36839)
(0.00543224 0.00251351 2.31276)
(0.000151501 0.00139732 0.889029)
(0.000120317 -0.00172348 0.874142)
(0.00366888 -0.0034573 2.25211)
(0.0110198 -0.00376328 3.26276)
(0.0193486 -0.00301841 3.9228)
(0.0256241 -0.00158543 4.24943)
(0.0273294 0.000201596 4.25058)
(0.023366 0.00198923 3.92449)
(0.014839 0.00332767 3.26094)
(0.00540816 0.00361102 2.244)
(0.000183191 0.0020118 0.865562)
(0.00013535 -0.00200906 0.837713)
(0.00353742 -0.00392567 2.14747)
(0.0105032 -0.00416267 3.10124)
(0.0183756 -0.00321379 3.72078)
(0.0243217 -0.00150239 4.02656)
(0.0259779 0.000603253 4.02811)
(0.022289 0.0027142 3.72368)
(0.014253 0.00430953 3.10136)
(0.00528299 0.00463976 2.14163)
(0.000216276 0.00260317 0.830553)
(0.000138842 -0.00211829 0.785548)
(0.00324594 -0.0040022 1.99787)
(0.00958007 -0.00410671 2.87099)
(0.0167409 -0.00302481 3.43352)
(0.0221795 -0.00119742 3.71004)
(0.0237484 0.00102183 3.71197)
(0.0204615 0.0032618 3.43761)
(0.0131796 0.0049897 2.87312)
(0.00496636 0.00537077 1.99453)
(0.000239562 0.00305604 0.780065)
(0.000119471 -0.00199288 0.711593)
(0.00272449 -0.00360991 1.78672)
(0.00810465 -0.00355974 2.54797)
(0.0142268 -0.00248162 3.03254)
(0.018924 -0.00077596 3.2693)
(0.0203403 0.00127121 3.27146)
(0.0175981 0.00336445 3.03746)
(0.0113991 0.00503724 2.55177)
(0.00434375 0.00547451 1.78576)
(0.000234933 0.00318938 0.707878)
(6.47466e-05 -0.00158335 0.605845)
(0.00192986 -0.0027183 1.48829)
(0.0059897 -0.00255473 2.09696)
(0.0106991 -0.00167388 2.47773)
(0.0143736 -0.000371212 2.66222)
(0.0155357 0.00117576 2.6643)
(0.0134719 0.0027907 2.48269)
(0.00871899 0.00415306 2.10147)
(0.00330362 0.00461599 1.48901)
(0.000175433 0.00279153 0.603706)
(-2.30731e-05 -0.000924849 0.450392)
(0.000909337 -0.00146619 1.06195)
(0.00332219 -0.00129626 1.46716)
(0.00625828 -0.000786268 1.71477)
(0.00861282 -8.85457e-05 1.83344)
(0.00938566 0.000730964 1.835)
(0.00809776 0.00161449 1.71853)
(0.00512597 0.00242168 1.47078)
(0.00182493 0.00279766 1.06298)
(5.19214e-05 0.00180006 0.449276)
(-0.00010448 -0.00019357 0.211236)
(6.19602e-05 -0.000236681 0.447879)
(0.000766379 -0.00018282 0.594549)
(0.00173865 -9.97122e-05 0.681564)
(0.00255291 -2.49491e-06 0.722803)
(0.00281978 0.000108455 0.723412)
(0.00236283 0.000235496 0.683031)
(0.00135291 0.000371729 0.595946)
(0.000344569 0.000487595 0.448238)
(-0.000122043 0.00039465 0.210635)
(-0.000110008 0.00031753 0.210511)
(0.000498067 0.000380622 0.446199)
(0.00205165 0.000287445 0.59248)
(0.00405576 0.00015854 0.679784)
(0.00576968 1.12373e-05 0.72196)
(0.00649819 -0.000158759 0.723974)
(0.00582728 -0.000361948 0.685102)
(0.00387984 -0.000594505 0.599087)
(0.00156351 -0.000826796 0.451384)
(-3.69738e-05 -0.00068659 0.212357)
(8.7469e-05 0.00148436 0.44884)
(0.00236629 0.00229607 1.05796)
(0.00718154 0.00201565 1.46202)
(0.0128965 0.00126151 1.71017)
(0.0176267 0.000249211 1.831)
(0.0196075 -0.000953508 1.83585)
(0.017752 -0.0023044 1.72288)
(0.0122788 -0.00364194 1.47747)
(0.00534391 -0.00444423 1.06937)
(0.000474075 -0.00302788 0.452247)
(0.000262471 0.00247219 0.603855)
(0.00429121 0.00418152 1.48282)
(0.0120582 0.00393603 2.0897)
(0.0209637 0.00267684 2.47106)
(0.0281694 0.000830506 2.65843)
(0.0310855 -0.00138775 2.66501)
(0.0281143 -0.00378783 2.48812)
(0.0195575 -0.00596815 2.10992)
(0.00861626 -0.00697509 1.49683)
(0.000801189 -0.00443769 0.606996)
(0.000373454 0.00306139 0.709424)
(0.00575708 0.00549532 1.78041)
(0.0158478 0.00545293 2.53939)
(0.0272528 0.00395676 3.02451)
(0.0363465 0.00158598 3.26458)
(0.0398903 -0.00129485 3.27196)
(0.0359246 -0.00433769 3.04342)
(0.0248901 -0.00694597 2.56111)
(0.0108913 -0.0079364 1.79417)
(0.000980788 -0.00485108 0.71114)
(0.000423661 0.00322091 0.783354)
(0.00673982 0.00605088 1.99117)
(0.0185158 0.00626457 2.86169)
(0.0317603 0.00480507 3.42471)
(0.042225 0.00230846 3.7048)
(0.0461732 -0.000765423 3.71241)
(0.0413979 -0.00396452 3.44396)
(0.0285037 -0.00660667 2.88302)
(0.0123309 -0.00750376 2.00325)
(0.00104999 -0.00448191 0.783238)
(0.000435085 0.00303458 0.835581)
(0.00733133 0.00590759 2.14066)
(0.0202498 0.0063296 3.09165)
(0.0347758 0.00508485 3.71163)
(0.0461956 0.00278186 4.02114)
(0.0504023 -9.65362e-05 4.02867)
(0.0450227 -0.00307005 3.73044)
(0.0308152 -0.00547533 3.11175)
(0.0131794 -0.00626599 2.15061)
(0.00106123 -0.00370071 0.833678)
(0.000425866 0.00259198 0.872108)
(0.00764906 0.00518611 2.24535)
(0.021296 0.00570794 3.25312)
(0.0366703 0.00475727 3.9136)
(0.0487299 0.00285366 4.24407)
(0.0531028 0.000436389 4.2514)
(0.0473057 -0.00205581 3.93169)
(0.0322211 -0.00405424 3.27179)
(0.013647 -0.0047271 2.25326)
(0.00104664 -0.00278503 0.86869)
(0.000409264 0.0019687 0.896765)
(0.00779757 0.0040187 2.31602)
(0.0218802 0.00451176 3.36225)
(0.0377851 0.00386442 4.05025)
(0.0502531 0.00246828 4.39499)
(0.0547324 0.000668812 4.4021)
(0.0486681 -0.00118875 4.06765)
(0.0330315 -0.00267643 3.37967)
(0.0138865 -0.00320187 2.32229)