/*--------------------------------*- C++ -*----------------------------------*\
  =========                 |
  \\      /  F ield         | OpenFOAM: The Open Source CFD Toolbox
   \\    /   O peration     | Website:  https://openfoam.org
    \\  /    A nd           | Version:  6
     \\/     M anipulation  |
\*---------------------------------------------------------------------------*/
FoamFile
{
    version     2.0;
    format      ascii;
    class       volScalarField;
    location    "0.14";
    object      T;
}
// * * * * * * * * * * * * * * * * * * * * * * * * * * * * * * * * * * * * * //

dimensions      [0 0 0 1 0 0 0];

internalField   nonuniform List<scalar> 
7000
(
101.667
101.667
101.667
101.667
101.666
101.666
101.666
101.666
101.666
101.666
101.667
101.667
101.667
101.667
101.666
101.666
101.666
101.666
101.666
101.666
101.667
101.667
101.667
101.666
101.666
101.666
101.666
101.666
101.666
101.666
101.667
101.667
101.667
101.666
101.666
101.666
101.666
101.666
101.666
101.666
101.667
101.667
101.667
101.666
101.666
101.666
101.666
101.666
101.666
101.666
101.667
101.667
101.667
101.666
101.666
101.666
101.666
101.666
101.666
101.666
101.667
101.667
101.667
101.666
101.666
101.666
101.666
101.666
101.666
101.666
101.667
101.667
101.667
101.666
101.666
101.666
101.666
101.666
101.666
101.666
101.667
101.667
101.667
101.666
101.666
101.666
101.666
101.666
101.666
101.666
101.667
101.667
101.667
101.667
101.666
101.666
101.666
101.666
101.666
101.666
85.301
85.3008
85.3006
85.3004
85.3001
85.2998
85.2994
85.2991
85.2988
85.2987
85.3008
85.3006
85.3004
85.3002
85.3
85.2996
85.2993
85.2989
85.2987
85.2986
85.3007
85.3005
85.3003
85.3001
85.2999
85.2995
85.2992
85.2988
85.2986
85.2985
85.3007
85.3005
85.3003
85.3001
85.2998
85.2995
85.2991
85.2988
85.2985
85.2984
85.3006
85.3004
85.3002
85.3
85.2998
85.2994
85.2991
85.2988
85.2985
85.2984
85.3006
85.3004
85.3002
85.3
85.2998
85.2995
85.2991
85.2988
85.2985
85.2984
85.3006
85.3005
85.3003
85.3
85.2998
85.2995
85.2991
85.2988
85.2985
85.2985
85.3007
85.3005
85.3003
85.3001
85.2998
85.2995
85.2992
85.2989
85.2986
85.2985
85.3008
85.3006
85.3004
85.3002
85.2999
85.2996
85.2993
85.299
85.2987
85.2986
85.3008
85.3007
85.3005
85.3003
85.3
85.2997
85.2994
85.2991
85.2988
85.2987
69.8046
69.8043
69.8039
69.8035
69.803
69.8023
69.8014
69.8006
69.7999
69.7995
69.8044
69.8041
69.8037
69.8033
69.8027
69.802
69.8012
69.8004
69.7997
69.7993
69.8042
69.8039
69.8036
69.8031
69.8026
69.8019
69.8011
69.8002
69.7995
69.7992
69.8041
69.8038
69.8035
69.803
69.8025
69.8018
69.801
69.8001
69.7995
69.7991
69.8041
69.8038
69.8034
69.803
69.8024
69.8018
69.8009
69.8001
69.7994
69.7991
69.8041
69.8038
69.8034
69.803
69.8025
69.8018
69.8009
69.8001
69.7994
69.7991
69.8041
69.8038
69.8035
69.803
69.8025
69.8018
69.801
69.8002
69.7995
69.7992
69.8042
69.8039
69.8036
69.8031
69.8026
69.8019
69.8011
69.8003
69.7996
69.7993
69.8043
69.804
69.8037
69.8033
69.8027
69.802
69.8012
69.8004
69.7997
69.7994
69.8044
69.8042
69.8038
69.8034
69.8029
69.8022
69.8014
69.8006
69.7999
69.7996
55.6546
55.6542
55.6536
55.6528
55.6518
55.6503
55.6486
55.6466
55.6449
55.644
55.6543
55.6539
55.6533
55.6526
55.6515
55.6501
55.6483
55.6464
55.6447
55.6438
55.6541
55.6537
55.6532
55.6524
55.6513
55.6499
55.6481
55.6462
55.6446
55.6437
55.654
55.6536
55.653
55.6523
55.6512
55.6498
55.648
55.6461
55.6445
55.6436
55.654
55.6535
55.653
55.6522
55.6512
55.6497
55.648
55.6461
55.6444
55.6435
55.6539
55.6535
55.653
55.6522
55.6512
55.6498
55.648
55.6461
55.6444
55.6436
55.654
55.6536
55.653
55.6523
55.6512
55.6498
55.6481
55.6462
55.6445
55.6436
55.6541
55.6537
55.6531
55.6524
55.6514
55.6499
55.6482
55.6463
55.6447
55.6438
55.6542
55.6538
55.6533
55.6526
55.6515
55.6501
55.6484
55.6465
55.6448
55.644
55.6544
55.654
55.6535
55.6528
55.6518
55.6504
55.6486
55.6467
55.6451
55.6442
43.1929
43.1923
43.1915
43.1902
43.1882
43.1855
43.1818
43.1777
43.1738
43.1714
43.1926
43.1921
43.1912
43.1899
43.188
43.1852
43.1816
43.1774
43.1736
43.1713
43.1924
43.1919
43.191
43.1897
43.1878
43.185
43.1814
43.1772
43.1734
43.1711
43.1923
43.1917
43.1909
43.1896
43.1876
43.1849
43.1813
43.1771
43.1733
43.171
43.1922
43.1917
43.1908
43.1895
43.1876
43.1848
43.1812
43.1771
43.1733
43.171
43.1922
43.1917
43.1908
43.1895
43.1876
43.1848
43.1812
43.1771
43.1733
43.171
43.1923
43.1917
43.1909
43.1896
43.1877
43.1849
43.1813
43.1772
43.1734
43.1711
43.1924
43.1919
43.191
43.1897
43.1878
43.1851
43.1815
43.1773
43.1735
43.1712
43.1926
43.192
43.1912
43.1899
43.188
43.1853
43.1817
43.1776
43.1737
43.1715
43.1928
43.1923
43.1915
43.1902
43.1883
43.1855
43.1819
43.1778
43.174
43.1717
32.606
32.6053
32.604
32.6018
32.5984
32.5932
32.5861
32.5774
32.5688
32.5632
32.6058
32.605
32.6037
32.6015
32.5981
32.5929
32.5858
32.5771
32.5685
32.563
32.6056
32.6048
32.6035
32.6013
32.5979
32.5927
32.5856
32.5769
32.5684
32.5628
32.6054
32.6047
32.6034
32.6012
32.5978
32.5926
32.5855
32.5768
32.5683
32.5627
32.6054
32.6046
32.6033
32.6012
32.5977
32.5926
32.5855
32.5768
32.5682
32.5627
32.6054
32.6046
32.6033
32.6012
32.5978
32.5926
32.5855
32.5768
32.5683
32.5627
32.6055
32.6047
32.6034
32.6013
32.5978
32.5927
32.5856
32.5769
32.5684
32.5628
32.6056
32.6048
32.6036
32.6014
32.598
32.5928
32.5857
32.5771
32.5685
32.563
32.6058
32.605
32.6038
32.6016
32.5982
32.5931
32.5859
32.5773
32.5688
32.5632
32.606
32.6053
32.604
32.6019
32.5985
32.5933
32.5862
32.5776
32.569
32.5635
23.9278
23.9268
23.9248
23.9214
23.9156
23.9064
23.8929
23.8753
23.8565
23.8431
23.9275
23.9265
23.9246
23.9211
23.9153
23.9061
23.8926
23.8751
23.8563
23.843
23.9273
23.9263
23.9244
23.9209
23.9151
23.9059
23.8924
23.8749
23.8561
23.8428
23.9272
23.9262
23.9243
23.9208
23.915
23.9058
23.8923
23.8748
23.856
23.8428
23.9272
23.9262
23.9242
23.9208
23.915
23.9058
23.8923
23.8748
23.856
23.8427
23.9272
23.9262
23.9242
23.9208
23.915
23.9058
23.8923
23.8748
23.8561
23.8428
23.9272
23.9263
23.9243
23.9209
23.9151
23.9059
23.8924
23.8749
23.8561
23.8429
23.9274
23.9264
23.9245
23.921
23.9152
23.9061
23.8926
23.875
23.8563
23.843
23.9275
23.9266
23.9247
23.9212
23.9155
23.9063
23.8928
23.8753
23.8565
23.8432
23.9277
23.9268
23.9249
23.9215
23.9157
23.9065
23.8931
23.8755
23.8568
23.8435
17.0619
17.0606
17.0578
17.0526
17.0434
17.028
17.0038
16.9695
16.9289
16.8963
17.0617
17.0604
17.0576
17.0524
17.0432
17.0278
17.0036
16.9693
16.9287
16.8962
17.0616
17.0603
17.0575
17.0523
17.0431
17.0276
17.0034
16.9692
16.9286
16.8961
17.0615
17.0602
17.0574
17.0522
17.043
17.0275
17.0033
16.9691
16.9285
16.896
17.0614
17.0601
17.0573
17.0521
17.043
17.0275
17.0033
16.9691
16.9285
16.896
17.0614
17.0601
17.0574
17.0522
17.043
17.0275
17.0033
16.9691
16.9285
16.896
17.0615
17.0602
17.0574
17.0522
17.0431
17.0276
17.0034
16.9692
16.9286
16.8961
17.0616
17.0603
17.0576
17.0524
17.0432
17.0278
17.0035
16.9693
16.9287
16.8963
17.0618
17.0605
17.0577
17.0526
17.0434
17.028
17.0037
16.9695
16.9289
16.8965
17.062
17.0607
17.058
17.0528
17.0436
17.0282
17.004
16.9698
16.9292
16.8967
11.8177
11.816
11.8123
11.805
11.7915
11.7675
11.727
11.6635
11.5772
11.4938
11.8175
11.8158
11.8121
11.8049
11.7914
11.7674
11.7268
11.6634
11.5771
11.4937
11.8174
11.8157
11.812
11.8047
11.7912
11.7672
11.7267
11.6633
11.577
11.4936
11.8173
11.8156
11.8119
11.8047
11.7912
11.7672
11.7266
11.6632
11.5769
11.4936
11.8173
11.8156
11.8119
11.8046
11.7911
11.7672
11.7266
11.6632
11.5769
11.4936
11.8173
11.8156
11.8119
11.8046
11.7912
11.7672
11.7266
11.6632
11.5769
11.4936
11.8173
11.8157
11.812
11.8047
11.7912
11.7672
11.7267
11.6633
11.577
11.4937
11.8174
11.8158
11.8121
11.8048
11.7914
11.7674
11.7268
11.6634
11.5771
11.4938
11.8176
11.8159
11.8122
11.805
11.7915
11.7675
11.727
11.6636
11.5773
11.494
11.8177
11.8161
11.8125
11.8052
11.7918
11.7678
11.7272
11.6638
11.5775
11.4942
7.94906
7.94711
7.94253
7.93327
7.9154
7.88186
7.82068
7.71315
7.53736
7.30681
7.94892
7.94697
7.94239
7.93313
7.91526
7.88173
7.82054
7.71302
7.53725
7.30673
7.94881
7.94687
7.94229
7.93303
7.91516
7.88163
7.82045
7.71294
7.53717
7.30667
7.94875
7.9468
7.94223
7.93297
7.9151
7.88158
7.8204
7.71289
7.53713
7.30663
7.94873
7.94678
7.9422
7.93295
7.91508
7.88156
7.82039
7.71288
7.53712
7.30662
7.94874
7.94679
7.94222
7.93297
7.9151
7.88158
7.82041
7.7129
7.53715
7.30665
7.94879
7.94685
7.94227
7.93302
7.91516
7.88164
7.82047
7.71297
7.53721
7.30671
7.94888
7.94694
7.94237
7.93312
7.91526
7.88174
7.82057
7.71307
7.53731
7.3068
7.94899
7.94707
7.94251
7.93326
7.91541
7.88189
7.82072
7.71321
7.53745
7.30694
7.94913
7.94724
7.94269
7.93345
7.91559
7.88207
7.8209
7.71339
7.53762
7.30711
5.19186
5.18974
5.18464
5.17412
5.15331
5.11285
5.03463
4.88166
4.56967
3.86831
5.19175
5.18964
5.18454
5.17402
5.15321
5.11275
5.03453
4.88157
4.56959
3.86825
5.19168
5.18956
5.18446
5.17394
5.15313
5.11268
5.03446
4.88151
4.56954
3.86821
5.19163
5.18951
5.18442
5.1739
5.15309
5.11264
5.03443
4.88148
4.56951
3.86819
5.19161
5.1895
5.1844
5.17388
5.15308
5.11263
5.03442
4.88147
4.5695
3.86818
5.19162
5.18951
5.18441
5.1739
5.1531
5.11265
5.03444
4.88149
4.56952
3.8682
5.19167
5.18955
5.18446
5.17395
5.15314
5.1127
5.03448
4.88154
4.56957
3.86824
5.19174
5.18963
5.18454
5.17402
5.15322
5.11278
5.03456
4.88162
4.56964
3.8683
5.19183
5.18973
5.18464
5.17414
5.15334
5.11289
5.03468
4.88173
4.56974
3.86839
5.19194
5.18986
5.18479
5.17428
5.15348
5.11304
5.03482
4.88187
4.56988
3.86851
3.29259
3.2905
3.28541
3.27488
3.25405
3.21371
3.13665
2.99091
2.71813
2.22205
3.29251
3.29042
3.28533
3.2748
3.25397
3.21363
3.13658
2.99085
2.71807
2.22201
3.29246
3.29037
3.28528
3.27475
3.25392
3.21359
3.13653
2.9908
2.71804
2.22198
3.29242
3.29033
3.28525
3.27472
3.25389
3.21356
3.13651
2.99078
2.71802
2.22197
3.29241
3.29032
3.28524
3.27471
3.25389
3.21355
3.1365
2.99078
2.71801
2.22197
3.29242
3.29033
3.28525
3.27472
3.2539
3.21357
3.13652
2.99079
2.71803
2.22198
3.29245
3.29037
3.28528
3.27476
3.25394
3.2136
3.13656
2.99083
2.71806
2.22201
3.29251
3.29042
3.28534
3.27482
3.254
3.21366
3.13662
2.99089
2.71812
2.22205
3.29258
3.2905
3.28542
3.2749
3.25408
3.21375
3.1367
2.99097
2.71819
2.22212
3.29266
3.2906
3.28553
3.27502
3.25419
3.21386
3.13681
2.99107
2.71828
2.2222
2.02758
2.02571
2.02115
2.0118
1.99362
1.95929
1.89631
1.7845
1.5953
1.30082
2.02753
2.02565
2.0211
2.01175
1.99356
1.95924
1.89626
1.78446
1.59526
1.3008
2.02749
2.02562
2.02106
2.01171
1.99353
1.95921
1.89623
1.78443
1.59524
1.30078
2.02747
2.0256
2.02104
2.01169
1.99351
1.95919
1.89621
1.78442
1.59522
1.30077
2.02746
2.02559
2.02103
2.01169
1.9935
1.95919
1.89621
1.78442
1.59522
1.30077
2.02747
2.0256
2.02104
2.0117
1.99351
1.9592
1.89622
1.78443
1.59523
1.30078
2.02749
2.02562
2.02107
2.01172
1.99354
1.95922
1.89625
1.78445
1.59526
1.3008
2.02753
2.02566
2.02111
2.01177
1.99359
1.95927
1.89629
1.7845
1.5953
1.30083
2.02759
2.02572
2.02117
2.01183
1.99365
1.95933
1.89635
1.78455
1.59535
1.30087
2.02765
2.0258
2.02125
2.01191
1.99373
1.95941
1.89643
1.78463
1.59541
1.30093
1.21255
1.21101
1.2073
1.19983
1.18564
1.15976
1.11441
1.0388
0.921052
0.755828
1.21251
1.21098
1.20727
1.19979
1.18561
1.15972
1.11438
1.03877
0.921029
0.755809
1.21248
1.21095
1.20724
1.19977
1.18558
1.1597
1.11436
1.03875
0.921013
0.755796
1.21247
1.21094
1.20723
1.19976
1.18557
1.15969
1.11435
1.03874
0.921005
0.75579
1.21247
1.21093
1.20722
1.19975
1.18557
1.15969
1.11435
1.03874
0.921004
0.75579
1.21247
1.21094
1.20723
1.19976
1.18558
1.1597
1.11435
1.03875
0.921012
0.755796
1.21249
1.21096
1.20725
1.19978
1.18559
1.15972
1.11437
1.03877
0.921029
0.75581
1.21252
1.21099
1.20728
1.19981
1.18563
1.15975
1.1144
1.0388
0.921054
0.755832
1.21255
1.21103
1.20732
1.19985
1.18567
1.15979
1.11444
1.03884
0.921089
0.755862
1.2126
1.21108
1.20738
1.19991
1.18572
1.15984
1.1145
1.03889
0.921135
0.755901
0.704331
0.703173
0.700403
0.694931
0.684826
0.667029
0.637195
0.590084
0.521302
0.431265
0.704308
0.70315
0.70038
0.694909
0.684805
0.667009
0.637176
0.590067
0.521287
0.431252
0.704292
0.703134
0.700364
0.694893
0.68479
0.666995
0.637163
0.590056
0.521277
0.431244
0.704283
0.703125
0.700356
0.694885
0.684782
0.666987
0.637156
0.59005
0.521272
0.43124
0.70428
0.703123
0.700354
0.694883
0.68478
0.666986
0.637156
0.59005
0.521272
0.43124
0.704285
0.703128
0.700359
0.694889
0.684786
0.666992
0.637162
0.590055
0.521278
0.431245
0.704297
0.70314
0.700372
0.694902
0.684799
0.667005
0.637174
0.590067
0.521289
0.431255
0.704316
0.703159
0.700392
0.694923
0.68482
0.667026
0.637194
0.590086
0.521306
0.431269
0.704341
0.703186
0.70042
0.694951
0.684849
0.667054
0.637222
0.590112
0.521329
0.431289
0.704371
0.703222
0.700457
0.694989
0.684886
0.667091
0.637257
0.590145
0.521358
0.431314
0.397484
0.39667
0.394749
0.391033
0.384354
0.372978
0.354644
0.326978
0.288543
0.240605
0.397469
0.396656
0.394735
0.391019
0.384341
0.372965
0.354632
0.326968
0.288534
0.240597
0.397459
0.396646
0.394726
0.39101
0.384332
0.372957
0.354624
0.326961
0.288528
0.240592
0.397454
0.396641
0.39472
0.391005
0.384327
0.372952
0.35462
0.326957
0.288525
0.24059
0.397453
0.39664
0.394719
0.391004
0.384327
0.372952
0.35462
0.326957
0.288525
0.24059
0.397456
0.396643
0.394723
0.391008
0.384331
0.372956
0.354624
0.326961
0.288528
0.240593
0.397464
0.396651
0.394731
0.391016
0.384339
0.372964
0.354632
0.326969
0.288536
0.240599
0.397476
0.396664
0.394745
0.39103
0.384353
0.372977
0.354645
0.326981
0.288546
0.240609
0.397493
0.396682
0.394763
0.391048
0.384371
0.372996
0.354663
0.326997
0.288561
0.240621
0.397512
0.396704
0.394787
0.391073
0.384395
0.373019
0.354685
0.327018
0.28858
0.240638
0.217996
0.217461
0.216213
0.213846
0.209701
0.202851
0.192188
0.176694
0.155994
0.131084
0.217988
0.217452
0.216204
0.213838
0.209693
0.202844
0.192181
0.176688
0.155988
0.131079
0.217982
0.217447
0.216198
0.213832
0.209688
0.202839
0.192176
0.176684
0.155985
0.131076
0.217979
0.217443
0.216195
0.213829
0.209685
0.202836
0.192174
0.176682
0.155983
0.131075
0.217978
0.217443
0.216195
0.213829
0.209685
0.202836
0.192174
0.176682
0.155983
0.131075
0.21798
0.217445
0.216197
0.213831
0.209687
0.202839
0.192176
0.176684
0.155986
0.131077
0.217985
0.21745
0.216203
0.213837
0.209693
0.202844
0.192182
0.176689
0.15599
0.131081
0.217993
0.217458
0.216211
0.213845
0.209701
0.202852
0.19219
0.176697
0.155997
0.131087
0.218003
0.217469
0.216222
0.213857
0.209713
0.202864
0.1922
0.176707
0.156006
0.131094
0.218015
0.217484
0.216237
0.213872
0.209727
0.202878
0.192214
0.17672
0.156018
0.131105
0.116227
0.115894
0.115128
0.113704
0.111268
0.107352
0.101439
0.0931271
0.0823911
0.0698768
0.116222
0.115889
0.115123
0.113699
0.111263
0.107347
0.101435
0.0931235
0.0823879
0.0698741
0.116218
0.115886
0.11512
0.113696
0.11126
0.107345
0.101433
0.0931212
0.0823859
0.0698724
0.116217
0.115884
0.115118
0.113694
0.111258
0.107343
0.101431
0.0931201
0.082385
0.0698716
0.116216
0.115884
0.115118
0.113694
0.111258
0.107343
0.101432
0.0931202
0.0823852
0.0698718
0.116218
0.115885
0.11512
0.113695
0.11126
0.107345
0.101433
0.0931217
0.0823866
0.0698731
0.116221
0.115888
0.115123
0.113699
0.111263
0.107348
0.101436
0.0931247
0.0823892
0.0698754
0.116225
0.115893
0.115128
0.113704
0.111268
0.107353
0.101441
0.0931291
0.0823933
0.069879
0.116232
0.1159
0.115135
0.113711
0.111275
0.10736
0.101448
0.0931352
0.0823987
0.0698837
0.116239
0.115909
0.115144
0.11372
0.111284
0.107369
0.101456
0.0931429
0.0824057
0.0698898
0.0602617
0.0600657
0.0596194
0.0588042
0.0574412
0.0553059
0.0521746
0.047917
0.042637
0.0368127
0.0602589
0.0600629
0.0596167
0.0588016
0.0574387
0.0553035
0.0521723
0.047915
0.0426352
0.0368111
0.060257
0.060061
0.0596148
0.0587998
0.057437
0.0553019
0.0521709
0.0479137
0.0426341
0.0368101
0.060256
0.0600601
0.0596139
0.0587989
0.0574361
0.0553012
0.0521702
0.0479131
0.0426336
0.0368097
0.0602559
0.06006
0.0596139
0.0587989
0.0574362
0.0553012
0.0521703
0.0479133
0.0426337
0.0368098
0.0602568
0.0600609
0.0596148
0.0587999
0.0574371
0.0553022
0.0521713
0.0479142
0.0426345
0.0368106
0.0602586
0.0600627
0.0596167
0.0588018
0.0574391
0.0553041
0.0521731
0.0479159
0.0426361
0.036812
0.0602614
0.0600656
0.0596196
0.0588048
0.0574421
0.055307
0.0521759
0.0479185
0.0426385
0.0368141
0.060265
0.0600695
0.0596237
0.0588089
0.0574461
0.055311
0.0521796
0.047922
0.0426417
0.036817
0.0602694
0.0600745
0.0596289
0.0588141
0.0574513
0.055316
0.0521844
0.0479265
0.0426457
0.0368205
0.030396
0.0302859
0.0300379
0.0295927
0.028864
0.0277513
0.0261696
0.0241101
0.0217472
0.0196616
0.0303945
0.0302843
0.0300364
0.0295912
0.0288626
0.02775
0.0261684
0.024109
0.0217462
0.0196607
0.0303935
0.0302833
0.0300354
0.0295903
0.0288617
0.0277491
0.0261676
0.0241083
0.0217456
0.0196601
0.0303929
0.0302828
0.030035
0.0295898
0.0288613
0.0277487
0.0261673
0.024108
0.0217453
0.0196599
0.0303929
0.0302828
0.030035
0.0295899
0.0288614
0.0277488
0.0261674
0.024108
0.0217454
0.01966
0.0303934
0.0302834
0.0300355
0.0295904
0.0288619
0.0277493
0.0261679
0.0241086
0.0217459
0.0196605
0.0303945
0.0302844
0.0300366
0.0295915
0.028863
0.0277504
0.026169
0.0241096
0.0217468
0.0196613
0.030396
0.030286
0.0300383
0.0295932
0.0288647
0.0277521
0.0261705
0.024111
0.0217482
0.0196626
0.0303981
0.0302882
0.0300405
0.0295955
0.028867
0.0277543
0.0261727
0.024113
0.02175
0.0196642
0.0304006
0.0302911
0.0300435
0.0295985
0.0288699
0.0277571
0.0261753
0.0241155
0.0217523
0.0196663
1.99683
1.0793
0.627656
0.442234
0.450526
0.659703
1.15509
2.13383
3.99486
7.56645
1.9968
1.07927
0.627636
0.442214
0.450501
0.659666
1.15503
2.13373
3.99471
7.56621
1.99677
1.07925
0.627623
0.442201
0.450484
0.659641
1.15499
2.13367
3.99461
7.56606
1.99676
1.07925
0.627616
0.442194
0.450474
0.659626
1.15497
2.13363
3.99455
7.56597
1.99676
1.07925
0.627615
0.442192
0.450471
0.659619
1.15496
2.13362
3.99453
7.56593
1.99677
1.07925
0.62762
0.442195
0.450472
0.659621
1.15496
2.13362
3.99453
7.56594
1.99679
1.07927
0.627631
0.442203
0.450479
0.659629
1.15497
2.13364
3.99457
7.56601
1.99683
1.07929
0.627648
0.442215
0.450491
0.659643
1.15499
2.13368
3.99463
7.56611
1.99689
1.07933
0.62767
0.442231
0.450506
0.659661
1.15502
2.13372
3.99471
7.56625
1.99695
1.07937
0.627695
0.442249
0.450522
0.659681
1.15505
2.13377
3.99479
7.56639
1.42308
0.856716
0.530406
0.388692
0.402087
0.584022
1.00044
1.78501
3.15483
5.37912
1.42305
0.856695
0.530389
0.388675
0.402066
0.58399
1.00039
1.78493
3.15471
5.37894
1.42303
0.856681
0.530378
0.388664
0.402051
0.583968
1.00035
1.78488
3.15463
5.37882
1.42302
0.856674
0.530371
0.388657
0.402042
0.583954
1.00033
1.78485
3.15458
5.37875
1.42302
0.856674
0.530371
0.388655
0.402038
0.583948
1.00032
1.78483
3.15456
5.37872
1.42303
0.85668
0.530375
0.388658
0.40204
0.58395
1.00032
1.78483
3.15456
5.37873
1.42305
0.856695
0.530385
0.388665
0.402047
0.583957
1.00033
1.78485
3.1546
5.37878
1.42308
0.856717
0.5304
0.388677
0.402058
0.583971
1.00035
1.78489
3.15465
5.37887
1.42312
0.856747
0.530421
0.388693
0.402073
0.58399
1.00038
1.78493
3.15472
5.37899
1.42318
0.856785
0.530447
0.388713
0.402092
0.584014
1.00042
1.78499
3.15482
5.37914
0.916967
0.600881
0.398187
0.307123
0.324396
0.465206
0.772297
1.31868
2.19538
3.45403
0.916945
0.600864
0.398174
0.307109
0.324378
0.46518
0.772258
1.31862
2.1953
3.45391
0.916931
0.600854
0.398165
0.307099
0.324366
0.465162
0.77223
1.31858
2.19524
3.45383
0.916924
0.600848
0.39816
0.307094
0.324358
0.46515
0.772213
1.31855
2.1952
3.45378
0.916924
0.600848
0.398159
0.307093
0.324356
0.465146
0.772206
1.31854
2.19518
3.45376
0.916931
0.600853
0.398163
0.307095
0.324357
0.465147
0.772208
1.31855
2.19519
3.45377
0.916947
0.600865
0.398171
0.307101
0.324363
0.465154
0.772218
1.31856
2.19521
3.4538
0.916971
0.600882
0.398184
0.307111
0.324373
0.465166
0.772236
1.31859
2.19526
3.45387
0.917004
0.600906
0.398201
0.307125
0.324387
0.465183
0.772261
1.31863
2.19532
3.45396
0.917048
0.600938
0.398224
0.307143
0.324404
0.465206
0.772294
1.31868
2.1954
3.45408
0.561017
0.390828
0.274939
0.222905
0.240255
0.339585
0.545549
0.893109
1.41425
2.10431
0.561002
0.390816
0.274929
0.222895
0.240241
0.339566
0.54552
0.893066
1.41419
2.10423
0.560992
0.390809
0.274922
0.222887
0.240232
0.339552
0.545499
0.893037
1.41415
2.10418
0.560987
0.390805
0.274918
0.222883
0.240226
0.339544
0.545487
0.893018
1.41412
2.10414
0.560988
0.390805
0.274918
0.222882
0.240224
0.339541
0.545482
0.893011
1.41411
2.10413
0.560993
0.390809
0.274921
0.222884
0.240226
0.339542
0.545483
0.893013
1.41411
2.10414
0.561004
0.390817
0.274927
0.222889
0.24023
0.339548
0.545492
0.893026
1.41413
2.10416
0.561022
0.39083
0.274937
0.222897
0.240238
0.339558
0.545506
0.893048
1.41417
2.10421
0.561045
0.390848
0.274951
0.222909
0.24025
0.339572
0.545527
0.893079
1.41421
2.10428
0.561076
0.390871
0.274968
0.222923
0.240265
0.33959
0.545554
0.89312
1.41427
2.10437
0.330686
0.241009
0.178232
0.151007
0.165594
0.230681
0.359384
0.567016
0.862743
1.23437
0.330676
0.241001
0.178225
0.150999
0.165585
0.230667
0.359364
0.566987
0.862705
1.23432
0.33067
0.240996
0.17822
0.150994
0.165578
0.230657
0.35935
0.566967
0.862677
1.23428
0.330667
0.240993
0.178218
0.150991
0.165574
0.230651
0.359341
0.566955
0.86266
1.23426
0.330667
0.240993
0.178218
0.150991
0.165573
0.230649
0.359338
0.56695
0.862654
1.23425
0.330671
0.240996
0.17822
0.150992
0.165574
0.23065
0.359339
0.566952
0.862658
1.23426
0.330679
0.241002
0.178225
0.150996
0.165577
0.230655
0.359346
0.566962
0.862671
1.23428
0.33069
0.241011
0.178232
0.151002
0.165584
0.230662
0.359357
0.566978
0.862694
1.23431
0.330706
0.241024
0.178242
0.151011
0.165592
0.230673
0.359372
0.567001
0.862728
1.23436
0.330727
0.24104
0.178254
0.151022
0.165604
0.230688
0.359392
0.567031
0.862772
1.23442
0.188821
0.142498
0.109859
0.096633
0.10745
0.14763
0.223761
0.342088
0.504227
0.70105
0.188814
0.142493
0.109854
0.0966278
0.107443
0.147621
0.223748
0.342069
0.504203
0.701019
0.18881
0.14249
0.109851
0.0966243
0.107439
0.147615
0.223739
0.342057
0.504186
0.700997
0.188808
0.142488
0.10985
0.0966223
0.107436
0.147611
0.223733
0.342049
0.504175
0.700984
0.188809
0.142488
0.10985
0.0966219
0.107435
0.14761
0.223731
0.342046
0.504171
0.700979
0.188811
0.14249
0.109851
0.0966231
0.107436
0.147611
0.223732
0.342047
0.504174
0.700983
0.188816
0.142494
0.109854
0.0966258
0.107439
0.147614
0.223737
0.342054
0.504183
0.700996
0.188824
0.142501
0.109859
0.0966301
0.107443
0.147619
0.223744
0.342065
0.504199
0.701018
0.188834
0.142509
0.109866
0.0966362
0.10745
0.147627
0.223755
0.342081
0.504222
0.701048
0.188848
0.14252
0.109875
0.0966439
0.107458
0.147637
0.22377
0.342102
0.504251
0.701088
0.104817
0.0814188
0.0650443
0.0590708
0.0664094
0.09007
0.133211
0.198191
0.284581
0.386879
0.104813
0.0814156
0.0650412
0.0590674
0.0664052
0.0900642
0.133202
0.19818
0.284566
0.38686
0.104811
0.0814134
0.0650392
0.0590651
0.0664022
0.0900601
0.133197
0.198172
0.284556
0.386847
0.10481
0.0814124
0.0650381
0.0590639
0.0664005
0.0900576
0.133193
0.198167
0.28455
0.386839
0.10481
0.0814126
0.0650381
0.0590636
0.0664
0.0900567
0.133192
0.198166
0.284547
0.386837
0.104811
0.0814139
0.0650391
0.0590644
0.0664007
0.0900574
0.133193
0.198167
0.284549
0.386839
0.104815
0.0814165
0.0650413
0.0590663
0.0664025
0.0900597
0.133196
0.198171
0.284555
0.386848
0.10482
0.0814205
0.0650446
0.0590693
0.0664056
0.0900635
0.133201
0.198179
0.284566
0.386861
0.104826
0.0814259
0.0650491
0.0590733
0.0664099
0.0900689
0.133208
0.198189
0.28458
0.386881
0.104835
0.0814328
0.0650548
0.0590786
0.0664155
0.0900759
0.133218
0.198203
0.284599
0.386906
0.0569897
0.0455272
0.0376015
0.035143
0.0398677
0.053403
0.0771997
0.112012
0.157002
0.20894
0.0569874
0.0455252
0.0375995
0.0351408
0.039865
0.0533993
0.0771946
0.112006
0.156993
0.208929
0.056986
0.0455239
0.0375982
0.0351394
0.0398631
0.0533968
0.0771911
0.112001
0.156987
0.208921
0.0569853
0.0455233
0.0375976
0.0351386
0.039862
0.0533953
0.077189
0.111998
0.156983
0.208917
0.0569855
0.0455234
0.0375976
0.0351385
0.0398618
0.0533948
0.0771883
0.111997
0.156982
0.208915
0.0569866
0.0455243
0.0375983
0.035139
0.0398622
0.0533953
0.0771889
0.111998
0.156983
0.208917
0.0569886
0.045526
0.0375997
0.0351403
0.0398635
0.0533968
0.077191
0.112001
0.156987
0.208922
0.0569916
0.0455285
0.0376018
0.0351422
0.0398656
0.0533994
0.0771944
0.112006
0.156994
0.208931
0.0569956
0.0455319
0.0376047
0.0351449
0.0398685
0.0534029
0.0771992
0.112012
0.157003
0.208943
0.0570008
0.0455361
0.0376084
0.0351483
0.0398721
0.0534075
0.0772055
0.112021
0.157015
0.208959
0.031249
0.0259559
0.0222479
0.0213948
0.0244696
0.0323739
0.0457485
0.0646608
0.0881077
0.113607
0.0312476
0.0259546
0.0222466
0.0213934
0.0244678
0.0323715
0.0457453
0.0646566
0.0881024
0.1136
0.0312467
0.0259539
0.0222458
0.0213925
0.0244666
0.0323699
0.0457431
0.0646537
0.0880987
0.113596
0.0312463
0.0259535
0.0222454
0.021392
0.0244659
0.032369
0.0457418
0.064652
0.0880966
0.113593
0.0312465
0.0259536
0.0222455
0.0213919
0.0244658
0.0323687
0.0457414
0.0646515
0.0880959
0.113593
0.0312471
0.0259542
0.0222459
0.0213923
0.0244661
0.0323691
0.0457419
0.0646521
0.0880969
0.113594
0.0312484
0.0259552
0.0222469
0.0213931
0.024467
0.0323701
0.0457433
0.064654
0.0880994
0.113597
0.0312502
0.0259568
0.0222483
0.0213945
0.0244684
0.0323718
0.0457456
0.0646572
0.0881036
0.113602
0.0312527
0.025959
0.0222501
0.0213962
0.0244704
0.0323742
0.0457488
0.0646615
0.0881094
0.11361
0.0312559
0.0259616
0.0222525
0.0213985
0.0244728
0.0323773
0.0457528
0.0646671
0.0881168
0.113619
0.0195002
0.0172881
0.0154187
0.0152009
0.0174991
0.0229222
0.0317814
0.0438345
0.0577689
0.0702087
0.0194994
0.0172873
0.0154179
0.0152
0.0174979
0.0229206
0.0317794
0.0438319
0.0577657
0.070205
0.0194988
0.0172868
0.0154174
0.0151993
0.0174971
0.0229195
0.0317778
0.04383
0.0577633
0.0702022
0.0194986
0.0172865
0.0154171
0.015199
0.0174966
0.0229188
0.0317769
0.0438288
0.0577618
0.0702006
0.0194987
0.0172866
0.0154171
0.0151989
0.0174965
0.0229186
0.0317767
0.0438284
0.0577615
0.0702002
0.0194992
0.017287
0.0154175
0.0151992
0.0174968
0.022919
0.0317771
0.043829
0.0577622
0.0702011
0.0195
0.0172878
0.0154182
0.0151999
0.0174975
0.0229198
0.0317782
0.0438304
0.057764
0.0702034
0.0195013
0.017289
0.0154193
0.0152009
0.0174985
0.0229211
0.0317799
0.0438327
0.0577671
0.070207
0.019503
0.0172905
0.0154206
0.0152023
0.0175
0.0229229
0.0317823
0.043836
0.0577712
0.0702121
0.0195051
0.0172924
0.0154224
0.0152039
0.0175019
0.0229252
0.0317853
0.04384
0.0577765
0.0702185
14.7479
17.4387
18.635
19.2212
19.5208
19.6757
19.7554
19.7957
19.8152
19.8232
14.7476
17.4383
18.6346
19.2207
19.5203
19.6752
19.7549
19.7952
19.8147
19.8228
14.7473
17.438
18.6343
19.2204
19.52
19.6749
19.7546
19.7949
19.8145
19.8226
14.7472
17.4378
18.6341
19.2202
19.5198
19.6747
19.7544
19.7947
19.8143
19.8225
14.7471
17.4377
18.634
19.2202
19.5198
19.6747
19.7544
19.7947
19.8143
19.8224
14.7471
17.4378
18.6341
19.2202
19.5198
19.6747
19.7544
19.7948
19.8144
19.8225
14.7472
17.4379
18.6342
19.2204
19.52
19.6749
19.7546
19.795
19.8146
19.8227
14.7474
17.4381
18.6345
19.2207
19.5203
19.6752
19.7549
19.7953
19.8149
19.823
14.7477
17.4385
18.6348
19.221
19.5207
19.6756
19.7553
19.7957
19.8153
19.8234
14.7479
17.4388
18.6352
19.2215
19.5211
19.6761
19.7558
19.7961
19.8158
19.8239
8.46015
10.3677
11.415
11.974
12.2692
12.4237
12.5035
12.5438
12.5633
12.5713
8.45992
10.3675
11.4147
11.9737
12.2689
12.4234
12.5032
12.5435
12.563
12.5711
8.45975
10.3673
11.4145
11.9734
12.2687
12.4232
12.503
12.5433
12.5628
12.5709
8.45965
10.3671
11.4144
11.9733
12.2686
12.4231
12.5028
12.5432
12.5627
12.5708
8.45962
10.3671
11.4144
11.9733
12.2685
12.423
12.5028
12.5432
12.5627
12.5708
8.45963
10.3671
11.4144
11.9733
12.2686
12.4231
12.5029
12.5432
12.5628
12.5709
8.45971
10.3672
11.4145
11.9734
12.2687
12.4232
12.503
12.5434
12.5629
12.571
8.45984
10.3674
11.4147
11.9736
12.2689
12.4234
12.5032
12.5436
12.5631
12.5712
8.46001
10.3676
11.415
11.9739
12.2692
12.4237
12.5035
12.5439
12.5635
12.5715
8.46024
10.3679
11.4153
11.9743
12.2696
12.4241
12.5039
12.5443
12.5639
12.5719
4.94507
6.08131
6.80909
7.23832
7.47983
7.61134
7.68099
7.71679
7.73427
7.74144
4.94492
6.08113
6.8089
7.23812
7.47962
7.61113
7.68078
7.71659
7.73408
7.7413
4.94481
6.081
6.80876
7.23797
7.47947
7.61098
7.68064
7.71645
7.73395
7.74119
4.94475
6.08093
6.80868
7.23789
7.47939
7.61089
7.68055
7.71637
7.73388
7.74112
4.94472
6.0809
6.80865
7.23786
7.47936
7.61087
7.68053
7.71635
7.73387
7.74112
4.94474
6.08092
6.80867
7.23789
7.47939
7.61091
7.68057
7.7164
7.73391
7.74116
4.94479
6.08098
6.80875
7.23798
7.47949
7.61101
7.68067
7.7165
7.73402
7.74127
4.94488
6.0811
6.80888
7.23812
7.47964
7.61117
7.68084
7.71667
7.73419
7.74144
4.94501
6.08126
6.80907
7.23832
7.47986
7.61139
7.68107
7.7169
7.73442
7.74168
4.94518
6.08147
6.80931
7.23859
7.48014
7.61168
7.68136
7.7172
7.73472
7.74198
2.86811
3.50854
3.96255
4.25324
4.42727
4.5265
4.58085
4.60949
4.62371
4.6296
2.86801
3.50842
3.96243
4.25311
4.42714
4.52636
4.58072
4.60936
4.62359
4.62951
2.86794
3.50834
3.96234
4.25302
4.42704
4.52626
4.58062
4.60927
4.6235
4.62943
2.8679
3.50829
3.96228
4.25296
4.42699
4.52621
4.58057
4.60922
4.62346
4.62939
2.86788
3.50828
3.96227
4.25294
4.42697
4.52619
4.58056
4.60921
4.62345
4.62939
2.8679
3.50829
3.96228
4.25296
4.427
4.52622
4.58059
4.60924
4.62348
4.62942
2.86793
3.50834
3.96234
4.25303
4.42706
4.52629
4.58066
4.60931
4.62356
4.6295
2.868
3.50842
3.96243
4.25313
4.42717
4.5264
4.58077
4.60943
4.62368
4.62962
2.86809
3.50853
3.96256
4.25327
4.42732
4.52656
4.58093
4.60959
4.62384
4.62979
2.86821
3.50868
3.96273
4.25345
4.42752
4.52676
4.58114
4.60981
4.62406
4.63
1.63313
1.98409
2.25011
2.43154
2.54616
2.61443
2.65316
2.67413
2.68476
2.68921
1.63307
1.98402
2.25003
2.43146
2.54608
2.61434
2.65307
2.67405
2.68468
2.68915
1.63302
1.98397
2.24998
2.4314
2.54601
2.61428
2.65302
2.67399
2.68463
2.68911
1.633
1.98394
2.24994
2.43137
2.54598
2.61425
2.65298
2.67396
2.6846
2.68908
1.63299
1.98393
2.24993
2.43136
2.54597
2.61424
2.65298
2.67395
2.6846
2.68908
1.633
1.98394
2.24995
2.43137
2.54599
2.61426
2.653
2.67398
2.68462
2.6891
1.63302