/*--------------------------------*- C++ -*----------------------------------*\
  =========                 |
  \\      /  F ield         | OpenFOAM: The Open Source CFD Toolbox
   \\    /   O peration     | Website:  https://openfoam.org
    \\  /    A nd           | Version:  6
     \\/     M anipulation  |
\*---------------------------------------------------------------------------*/
FoamFile
{
    version     2.0;
    format      ascii;
    class       volScalarField;
    location    "0.355";
    object      T;
}
// * * * * * * * * * * * * * * * * * * * * * * * * * * * * * * * * * * * * * //

dimensions      [0 0 0 1 0 0 0];

internalField   nonuniform List<scalar> 
7000
(
104.766
104.764
104.762
104.758
104.754
104.749
104.744
104.74
104.736
104.734
104.766
104.764
104.762
104.758
104.754
104.749
104.744
104.74
104.736
104.734
104.766
104.764
104.762
104.758
104.754
104.749
104.744
104.74
104.736
104.734
104.765
104.764
104.762
104.758
104.754
104.749
104.744
104.74
104.736
104.734
104.765
104.764
104.762
104.758
104.754
104.749
104.744
104.74
104.736
104.734
104.765
104.764
104.762
104.758
104.754
104.749
104.744
104.74
104.736
104.734
104.765
104.764
104.762
104.758
104.754
104.749
104.744
104.74
104.736
104.734
104.765
104.764
104.762
104.758
104.754
104.749
104.744
104.74
104.736
104.734
104.766
104.764
104.762
104.758
104.754
104.749
104.744
104.74
104.736
104.734
104.766
104.764
104.762
104.758
104.754
104.749
104.744
104.74
104.736
104.734
94.3697
94.3658
94.3582
94.3473
94.3337
94.3183
94.3026
94.2882
94.2773
94.2713
94.3697
94.3658
94.3582
94.3473
94.3336
94.3182
94.3025
94.2882
94.2772
94.2712
94.3696
94.3657
94.3582
94.3472
94.3336
94.3182
94.3025
94.2882
94.2772
94.2712
94.3696
94.3657
94.3581
94.3472
94.3336
94.3182
94.3025
94.2882
94.2772
94.2712
94.3696
94.3657
94.3581
94.3472
94.3336
94.3182
94.3025
94.2882
94.2772
94.2712
94.3696
94.3657
94.3581
94.3472
94.3336
94.3182
94.3025
94.2882
94.2772
94.2712
94.3696
94.3657
94.3581
94.3472
94.3336
94.3182
94.3025
94.2882
94.2772
94.2712
94.3696
94.3657
94.3581
94.3472
94.3336
94.3182
94.3025
94.2882
94.2772
94.2712
94.3696
94.3657
94.3582
94.3472
94.3336
94.3182
94.3025
94.2882
94.2772
94.2712
94.3696
94.3658
94.3582
94.3473
94.3336
94.3183
94.3025
94.2882
94.2772
94.2713
84.1901
84.1832
84.1697
84.1501
84.1253
84.0972
84.0681
84.0413
84.0205
84.0091
84.1901
84.1832
84.1696
84.15
84.1253
84.0971
84.068
84.0412
84.0204
84.009
84.19
84.1831
84.1696
84.15
84.1252
84.0971
84.068
84.0412
84.0204
84.009
84.19
84.1831
84.1696
84.1499
84.1252
84.0971
84.068
84.0412
84.0204
84.009
84.19
84.1831
84.1696
84.1499
84.1252
84.0971
84.0679
84.0412
84.0204
84.009
84.19
84.1831
84.1696
84.1499
84.1252
84.097
84.0679
84.0412
84.0204
84.009
84.19
84.1831
84.1696
84.1499
84.1252
84.0971
84.068
84.0412
84.0204
84.009
84.19
84.1831
84.1696
84.15
84.1252
84.0971
84.068
84.0412
84.0204
84.009
84.19
84.1831
84.1696
84.15
84.1253
84.0971
84.068
84.0412
84.0204
84.009
84.1901
84.1832
84.1696
84.15
84.1253
84.0972
84.0681
84.0413
84.0205
84.0091
74.3613
74.3507
74.3299
74.2994
74.2605
74.2156
74.1683
74.124
74.089
74.0696
74.3612
74.3506
74.3298
74.2993
74.2604
74.2155
74.1682
74.1239
74.089
74.0695
74.3611
74.3505
74.3297
74.2992
74.2604
74.2154
74.1682
74.1239
74.0889
74.0695
74.3611
74.3505
74.3297
74.2992
74.2603
74.2154
74.1681
74.1238
74.0889
74.0695
74.3611
74.3505
74.3297
74.2992
74.2603
74.2154
74.1681
74.1238
74.0889
74.0694
74.3611
74.3505
74.3297
74.2992
74.2603
74.2154
74.1681
74.1238
74.0889
74.0694
74.3611
74.3505
74.3297
74.2992
74.2603
74.2154
74.1681
74.1239
74.0889
74.0695
74.3611
74.3505
74.3297
74.2992
74.2603
74.2154
74.1682
74.1239
74.0889
74.0695
74.3611
74.3506
74.3297
74.2993
74.2604
74.2155
74.1682
74.1239
74.089
74.0695
74.3612
74.3506
74.3298
74.2993
74.2605
74.2155
74.1683
74.124
74.089
74.0696
65.0034
64.9883
64.9584
64.9141
64.8566
64.7889
64.716
64.6458
64.5889
64.5567
65.0033
64.9882
64.9583
64.914
64.8566
64.7888
64.7159
64.6457
64.5889
64.5566
65.0032
64.9881
64.9582
64.9139
64.8565
64.7888
64.7158
64.6456
64.5888
64.5566
65.0032
64.9881
64.9582
64.9139
64.8564
64.7887
64.7158
64.6456
64.5888
64.5565
65.0031
64.9881
64.9581
64.9138
64.8564
64.7887
64.7158
64.6456
64.5888
64.5565
65.0031
64.9881
64.9581
64.9138
64.8564
64.7887
64.7158
64.6456
64.5888
64.5565
65.0031
64.9881
64.9582
64.9139
64.8564
64.7887
64.7158
64.6456
64.5888
64.5565
65.0032
64.9881
64.9582
64.9139
64.8565
64.7888
64.7158
64.6457
64.5888
64.5566
65.0032
64.9882
64.9582
64.9139
64.8565
64.7888
64.7159
64.6457
64.5889
64.5566
65.0033
64.9882
64.9583
64.914
64.8566
64.7889
64.716
64.6458
64.589
64.5567
56.2186
56.1981
56.157
56.0953
56.0137
55.9149
55.8052
55.6957
55.6036
55.5495
56.2185
56.198
56.1569
56.0952
56.0136
55.9148
55.8051
55.6956
55.6035
55.5494
56.2185
56.198
56.1569
56.0951
56.0135
55.9148
55.805
55.6955
55.6034
55.5494
56.2184
56.1979
56.1568
56.0951
56.0135
55.9147
55.805
55.6955
55.6034
55.5493
56.2184
56.1979
56.1568
56.0951
56.0135
55.9147
55.8049
55.6955
55.6034
55.5493
56.2184
56.1979
56.1568
56.0951
56.0135
55.9147
55.8049
55.6955
55.6034
55.5493
56.2184
56.1979
56.1568
56.0951
56.0135
55.9147
55.805
55.6955
55.6034
55.5493
56.2184
56.1979
56.1568
56.0951
56.0135
55.9148
55.805
55.6955
55.6035
55.5494
56.2185
56.198
56.1569
56.0952
56.0136
55.9148
55.8051
55.6956
55.6035
55.5495
56.2186
56.1981
56.157
56.0953
56.0137
55.9149
55.8052
55.6957
55.6036
55.5495
48.0881
48.0613
48.0069
47.924
47.8118
47.6716
47.5095
47.3398
47.1887
47.095
48.088
48.0612
48.0068
47.9239
47.8117
47.6715
47.5094
47.3397
47.1887
47.095
48.0879
48.0611
48.0068
47.9238
47.8116
47.6715
47.5094
47.3396
47.1886
47.0949
48.0879
48.061
48.0067
47.9238
47.8116
47.6714
47.5093
47.3396
47.1886
47.0949
48.0878
48.061
48.0067
47.9237
47.8115
47.6714
47.5093
47.3395
47.1885
47.0949
48.0878
48.061
48.0067
47.9237
47.8115
47.6714
47.5093
47.3395
47.1885
47.0949
48.0879
48.061
48.0067
47.9238
47.8116
47.6714
47.5093
47.3396
47.1886
47.0949
48.0879
48.0611
48.0067
47.9238
47.8116
47.6715
47.5094
47.3396
47.1886
47.0949
48.088
48.0611
48.0068
47.9239
47.8117
47.6716
47.5095
47.3397
47.1887
47.095
48.088
48.0612
48.0069
47.924
47.8118
47.6716
47.5096
47.3398
47.1888
47.0951
40.6699
40.6362
40.5672
40.4599
40.311
40.1182
39.8839
39.6222
39.3696
39.1974
40.6698
40.6361
40.5671
40.4598
40.3109
40.1181
39.8838
39.6221
39.3695
39.1973
40.6698
40.636
40.567
40.4598
40.3109
40.118
39.8838
39.622
39.3694
39.1973
40.6697
40.636
40.5669
40.4597
40.3108
40.118
39.8837
39.622
39.3694
39.1972
40.6697
40.6359
40.5669
40.4597
40.3108
40.118
39.8837
39.6219
39.3694
39.1972
40.6697
40.6359
40.5669
40.4597
40.3108
40.118
39.8837
39.6219
39.3694
39.1972
40.6697
40.6359
40.5669
40.4597
40.3108
40.118
39.8837
39.622
39.3694
39.1973
40.6697
40.636
40.567
40.4598
40.3109
40.118
39.8838
39.622
39.3694
39.1973
40.6698
40.6361
40.5671
40.4598
40.3109
40.1181
39.8839
39.6221
39.3695
39.1974
40.6699
40.6362
40.5672
40.4599
40.311
40.1182
39.884
39.6222
39.3696
39.1975
33.9991
33.9585
33.8746
33.742
33.5528
33.2981
32.9706
32.5734
32.1422
31.7965
33.999
33.9584
33.8745
33.7419
33.5527
33.298
32.9705
32.5733
32.1421
31.7964
33.9989
33.9583
33.8744
33.7418
33.5527
33.298
32.9705
32.5732
32.1421
31.7963
33.9989
33.9582
33.8743
33.7417
33.5526
33.2979
32.9704
32.5732
32.142
31.7963
33.9988
33.9582
33.8743
33.7417
33.5526
33.2979
32.9704
32.5732
32.142
31.7963
33.9988
33.9582
33.8743
33.7417
33.5526
33.2979
32.9704
32.5732
32.142
31.7963
33.9989
33.9582
33.8743
33.7417
33.5526
33.2979
32.9704
32.5732
32.142
31.7963
33.9989
33.9583
33.8744
33.7418
33.5527
33.298
32.9705
32.5733
32.1421
31.7964
33.999
33.9584
33.8745
33.7419
33.5527
33.2981
32.9706
32.5733
32.1422
31.7965
33.999
33.9585
33.8746
33.742
33.5529
33.2982
32.9707
32.5734
32.1423
31.7966
28.0878
28.0413
27.9443
27.7887
27.5616
27.2443
26.8117
26.2344
25.4974
24.7124
28.0877
28.0412
27.9442
27.7886
27.5615
27.2442
26.8116
26.2343
25.4973
24.7124
28.0877
28.0411
27.9441
27.7886
27.5615
27.2442
26.8116
26.2342
25.4972
24.7123
28.0876
28.041
27.9441
27.7885
27.5614
27.2441
26.8115
26.2342
25.4972
24.7123
28.0876
28.041
27.9441
27.7885
27.5614
27.2441
26.8115
26.2341
25.4972
24.7123
28.0876
28.041
27.9441
27.7885
27.5614
27.2441
26.8115
26.2342
25.4972
24.7123
28.0876
28.041
27.9441
27.7885
27.5614
27.2441
26.8116
26.2342
25.4972
24.7123
28.0876
28.0411
27.9441
27.7886
27.5615
27.2442
26.8116
26.2342
25.4973
24.7124
28.0877
28.0412
27.9442
27.7887
27.5616
27.2443
26.8117
26.2343
25.4973
24.7124
28.0878
28.0413
27.9443
27.7888
27.5617
27.2444
26.8118
26.2344
25.4974
24.7125
22.9272
22.8766
22.7707
22.5992
22.345
21.9809
21.4623
20.7086
19.5432
17.4774
22.9271
22.8765
22.7706
22.5991
22.3449
21.9808
21.4622
20.7085
19.5431
17.4773
22.927
22.8764
22.7705
22.599
22.3448
21.9807
21.4622
20.7084
19.5431
17.4773
22.927
22.8764
22.7705
22.599
22.3448
21.9807
21.4621
20.7084
19.543
17.4772
22.927
22.8764
22.7705
22.599
22.3448
21.9807
21.4621
20.7084
19.543
17.4772
22.927
22.8764
22.7705
22.599
22.3448
21.9807
21.4621
20.7084
19.543
17.4772
22.927
22.8764
22.7705
22.599
22.3448
21.9807
21.4622
20.7084
19.543
17.4772
22.927
22.8764
22.7705
22.5991
22.3449
21.9807
21.4622
20.7085
19.5431
17.4773
22.9271
22.8765
22.7706
22.5991
22.3449
21.9808
21.4623
20.7085
19.5432
17.4774
22.9272
22.8766
22.7707
22.5992
22.345
21.9809
21.4624
20.7086
19.5432
17.4774
18.4893
18.4373
18.3284
18.1517
17.8892
17.5126
16.9774
16.2107
15.0914
13.4331
18.4892
18.4372
18.3283
18.1516
17.8891
17.5125
16.9773
16.2106
15.0913
13.4331
18.4891
18.4371
18.3282
18.1515
17.8891
17.5125
16.9772
16.2106
15.0913
13.433
18.4891
18.4371
18.3282
18.1515
17.889
17.5125
16.9772
16.2105
15.0912
13.433
18.489
18.4371
18.3281
18.1515
17.889
17.5124
16.9772
16.2105
15.0912
13.433
18.489
18.4371
18.3281
18.1515
17.889
17.5124
16.9772
16.2105
15.0912
13.433
18.4891
18.4371
18.3282
18.1515
17.889
17.5125
16.9772
16.2106
15.0912
13.433
18.4891
18.4371
18.3282
18.1515
17.8891
17.5125
16.9773
16.2106
15.0913
13.433
18.4892
18.4372
18.3283
18.1516
17.8892
17.5126
16.9773
16.2107
15.0914
13.4331
18.4892
18.4373
18.3284
18.1517
17.8892
17.5127
16.9774
16.2108
15.0914
13.4332
14.7301
14.6796
14.574
14.4036
14.1526
13.7978
13.3067
12.6355
11.7347
10.5796
14.73
14.6795
14.5739
14.4035
14.1525
13.7978
13.3066
12.6354
11.7346
10.5795
14.73
14.6794
14.5738
14.4034
14.1525
13.7977
13.3065
12.6354
11.7346
10.5795
14.7299
14.6794
14.5738
14.4034
14.1524
13.7977
13.3065
12.6353
11.7346
10.5795
14.7299
14.6794
14.5738
14.4034
14.1524
13.7977
13.3065
12.6353
11.7345
10.5794
14.7299
14.6794
14.5738
14.4034
14.1524
13.7977
13.3065
12.6353
11.7346
10.5794
14.7299
14.6794
14.5738
14.4034
14.1524
13.7977
13.3065
12.6354
11.7346
10.5795
14.73
14.6795
14.5739
14.4035
14.1525
13.7977
13.3066
12.6354
11.7346
10.5795
14.73
14.6795
14.5739
14.4035
14.1525
13.7978
13.3066
12.6355
11.7347
10.5796
14.7301
14.6796
14.574
14.4036
14.1526
13.7979
13.3067
12.6355
11.7348
10.5796
11.5934
11.5468
11.45
11.2951
11.0705
10.7604
10.3458
9.80804
9.13927
8.36701
11.5934
11.5468
11.4499
11.2951
11.0705
10.7603
10.3457
9.80797
9.13921
8.36695
11.5933
11.5467
11.4499
11.295
11.0704
10.7603
10.3457
9.80793
9.13917
8.3669
11.5933
11.5467
11.4498
11.295
11.0704
10.7603
10.3456
9.8079
9.13914
8.36687
11.5933
11.5467
11.4498
11.295
11.0704
10.7602
10.3456
9.80789
9.13913
8.36686
11.5933
11.5467
11.4498
11.295
11.0704
10.7603
10.3456
9.8079
9.13913
8.36687
11.5933
11.5467
11.4498
11.295
11.0704
10.7603
10.3457
9.80792
9.13916
8.36689
11.5933
11.5467
11.4499
11.295
11.0704
10.7603
10.3457
9.80796
9.1392
8.36693
11.5934
11.5468
11.4499
11.2951
11.0705
10.7604
10.3458
9.80802
9.13925
8.36698
11.5934
11.5469
11.45
11.2952
11.0706
10.7605
10.3458
9.80809
9.13933
8.36705
9.01481
8.97386
8.88931
8.75581
8.56577
8.31027
7.98112
7.57519
7.10272
6.60083
9.01475
8.9738
8.88925
8.75575
8.56571
8.31021
7.98106
7.57513
7.10267
6.60078
9.01471
8.97376
8.88921
8.75571
8.56567
8.31017
7.98102
7.57509
7.10263
6.60074
9.01468
8.97373
8.88918
8.75568
8.56564
8.31015
7.981
7.57507
7.10261
6.60071
9.01467
8.97372
8.88917
8.75567
8.56563
8.31014
7.98099
7.57506
7.1026
6.6007
9.01467
8.97372
8.88917
8.75568
8.56564
8.31015
7.981
7.57507
7.1026
6.60071
9.01469
8.97374
8.88919
8.7557
8.56566
8.31017
7.98102
7.57509
7.10262
6.60073
9.01472
8.97378
8.88923
8.75573
8.5657
8.3102
7.98105
7.57512
7.10266
6.60076
9.01477
8.97383
8.88928
8.75579
8.56575
8.31026
7.98111
7.57518
7.10271
6.60081
9.01482
8.97389
8.88935
8.75586
8.56582
8.31033
7.98118
7.57524
7.10278
6.60088
6.92572
6.89126
6.82069
6.7108
6.55754
6.35726
6.10885
5.81731
5.49896
5.18744
6.92566
6.89121
6.82064
6.71075
6.55749
6.35721
6.1088
5.81727
5.49892
5.18739
6.92563
6.89117
6.8206
6.71071
6.55745
6.35717
6.10877
5.81723
5.49888
5.18735
6.9256
6.89115
6.82058
6.71069
6.55743
6.35715
6.10874
5.81721
5.49886
5.18733
6.92559
6.89114
6.82057
6.71068
6.55742
6.35715
6.10874
5.81721
5.49885
5.18732
6.9256
6.89115
6.82058
6.71069
6.55743
6.35715
6.10874
5.81721
5.49886
5.18733
6.92561
6.89116
6.82059
6.7107
6.55745
6.35717
6.10876
5.81723
5.49888
5.18735
6.92564
6.89119
6.82063
6.71074
6.55748
6.3572
6.10879
5.81726
5.49891
5.18738
6.92568
6.89124
6.82067
6.71078
6.55753
6.35725
6.10884
5.81731
5.49895
5.18742
6.92573
6.89129
6.82073
6.71084
6.55759
6.35731
6.1089
5.81736
5.49901
5.18748
5.25731
5.22945
5.17288
5.0861
4.9677
4.81764
4.63906
4.44095
4.241
4.06736
5.25726
5.22941
5.17284
5.08605
4.96766
4.81759
4.63902
4.44091
4.24095
4.06731
5.25723
5.22938
5.17281
5.08603
4.96763
4.81757
4.63899
4.44089
4.24093
4.06728
5.25721
5.22936
5.17279
5.08601
4.96761
4.81755
4.63897
4.44087
4.24091
4.06727
5.25721
5.22935
5.17278
5.086
4.96761
4.81754
4.63897
4.44086
4.2409
4.06726
5.25721
5.22935
5.17279
5.086
4.96761
4.81755
4.63897
4.44087
4.24091
4.06726
5.25722
5.22937
5.1728
5.08602
4.96763
4.81756
4.63899
4.44088
4.24092
4.06728
5.25725
5.22939
5.17283
5.08605
4.96766
4.81759
4.63902
4.44091
4.24095
4.06731
5.25728
5.22943
5.17287
5.08609
4.9677
4.81763
4.63906
4.44095
4.24099
4.06735
5.25732
5.22948
5.17292
5.08614
4.96775
4.81768
4.63911
4.441
4.24104
4.0674
3.94347
3.92175
3.87805
3.81206
3.72417
3.61657
3.49489
3.37027
3.26134
3.19405
3.94344
3.92172
3.87801
3.81202
3.72413
3.61653
3.49486
3.37024
3.2613
3.19402
3.94341
3.92169
3.87799
3.812
3.72411
3.61651
3.49483
3.37022
3.26128
3.19399
3.9434
3.92167
3.87797
3.81198
3.72409
3.6165
3.49482
3.3702
3.26126
3.19398
3.94339
3.92167
3.87796
3.81198
3.72409
3.61649
3.49481
3.3702
3.26126
3.19397
3.94339
3.92167
3.87797
3.81198
3.72409
3.6165
3.49482
3.3702
3.26126
3.19398
3.94341
3.92168
3.87798
3.81199
3.72411
3.61651
3.49483
3.37021
3.26128
3.19399
3.94343
3.92171
3.878
3.81202
3.72413
3.61653
3.49486
3.37024
3.2613
3.19401
3.94345
3.92174
3.87804
3.81205
3.72416
3.61657
3.49489
3.37027
3.26134
3.19405
3.94349
3.92178
3.87808
3.8121
3.72421
3.61661
3.49493
3.37031
3.26138
3.19409
2.92303
2.90664
2.87398
2.82549
2.76259
2.68865
2.6105
2.54065
2.50032
2.52213
2.923
2.90661
2.87395
2.82547
2.76256
2.68862
2.61047
2.54063
2.50029
2.5221
2.92298
2.90659
2.87393
2.82545
2.76254
2.6886
2.61045
2.54061
2.50027
2.52208
2.92297
2.90658
2.87392
2.82543
2.76253
2.68859
2.61044
2.54059
2.50025
2.52207
2.92296
2.90657
2.87392
2.82543
2.76253
2.68858
2.61043
2.54059
2.50025
2.52206
2.92297
2.90658
2.87392
2.82543
2.76253
2.68859
2.61044
2.54059
2.50025
2.52207
2.92298
2.90659
2.87393
2.82545
2.76255
2.6886
2.61045
2.54061
2.50027
2.52208
2.92299
2.90661
2.87395
2.82547
2.76257
2.68862
2.61047
2.54063
2.50029
2.5221
2.92302
2.90663
2.87398
2.82549
2.76259
2.68865
2.6105
2.54065
2.50031
2.52213
2.92305
2.90667
2.87401
2.82553
2.76263
2.68868
2.61053
2.54069
2.50035
2.52217
2.14114
2.12913
2.10543
2.07084
2.02715
1.97797
1.92996
1.89523
1.89662
1.9851
2.14112
2.12911
2.10541
2.07082
2.02713
1.97794
1.92994
1.89521
1.8966
1.98508
2.1411
2.12909
2.10539
2.0708
2.02711
1.97793
1.92993
1.89519
1.89659
1.98506
2.14109
2.12908
2.10538
2.07079
2.02711
1.97792
1.92992
1.89518
1.89658
1.98505
2.14109
2.12908
2.10538
2.07079
2.0271
1.97792
1.92991
1.89518
1.89657
1.98505
2.14109
2.12908
2.10538
2.07079
2.02711
1.97792
1.92992
1.89518
1.89658
1.98505
2.1411
2.12909
2.10539
2.0708
2.02712
1.97793
1.92993
1.89519
1.89659
1.98506
2.14111
2.12911
2.10541
2.07082
2.02713
1.97795
1.92994
1.89521
1.8966
1.98508
2.14113
2.12913
2.10543
2.07084
2.02715
1.97797
1.92997
1.89523
1.89663
1.98511
2.14116
2.12916
2.10546
2.07087
2.02718
1.978
1.93
1.89526
1.89666
1.98514
12.805
10.3654
9.3259
9.39433
10.5189
12.8016
16.4938
22.0526
30.2998
42.8463
12.8049
10.3654
9.32581
9.39424
10.5188
12.8015
16.4936
22.0525
30.2996
42.846
12.8049
10.3653
9.32575
9.39417
10.5187
12.8014
16.4935
22.0523
30.2994
42.8458
12.8049
10.3653
9.32571
9.39412
10.5187
12.8013
16.4934
22.0522
30.2993
42.8457
12.8048
10.3653
9.32569
9.3941
10.5186
12.8013
16.4934
22.0522
30.2993
42.8456
12.8048
10.3653
9.32569
9.3941
10.5186
12.8013
16.4934
22.0522
30.2993
42.8456
12.8049
10.3653
9.32571
9.39412
10.5187
12.8013
16.4934
22.0522
30.2993
42.8457
12.8049
10.3653
9.32574
9.39415
10.5187
12.8013
16.4935
22.0523
30.2994
42.8458
12.805
10.3654
9.32579
9.39421
10.5188
12.8014
16.4936
22.0524
30.2995
42.8459
12.805
10.3654
9.32586
9.39427
10.5188
12.8015
16.4936
22.0525
30.2996
42.8461
11.1263
9.5154
8.78782
8.95274
10.0464
12.1772
15.5428
20.4448
27.2854
36.4363
11.1262
9.51533
8.78774
8.95265
10.0463
12.1771
15.5427
20.4446
27.2852
36.4361
11.1262
9.51527
8.78768
8.95258
10.0462
12.177
15.5426
20.4445
27.2851
36.4359
11.1261
9.51523
8.78764
8.95253
10.0462
12.177
15.5425
20.4444
27.285
36.4358
11.1261
9.51522
8.78762
8.95251
10.0462
12.1769
15.5425
20.4444
27.2849
36.4358
11.1261
9.51522
8.78762
8.95251
10.0462
12.1769
15.5424
20.4444
27.2849
36.4358
11.1261
9.51524
8.78764
8.95253
10.0462
12.1769
15.5425
20.4444
27.285
36.4358
11.1262
9.51528
8.78768
8.95257
10.0462
12.177
15.5425
20.4445
27.285
36.4359
11.1262
9.51533
8.78773
8.95263
10.0463
12.1771
15.5426
20.4446
27.2852
36.436
11.1263
9.51541
8.78781
8.95271
10.0464
12.1772
15.5427
20.4447
27.2853
36.4362
9.28129
8.31428
7.91163
8.18131
9.20491
11.082
13.9433
17.9401
23.1871
29.6005
9.28122
8.31421
7.91155
8.18123
9.20482
11.0818
13.9432
17.9399
23.187
29.6003
9.28117
8.31416
7.9115
8.18116
9.20474
11.0818
13.9431
17.9398
23.1868
29.6001
9.28113
8.31412
7.91146
8.18112
9.2047
11.0817
13.9431
17.9398
23.1867
29.6
9.28112
8.31411
7.91144
8.1811
9.20467
11.0817
13.943
17.9397
23.1867
29.6
9.28112
8.31411
7.91144
8.1811
9.20467
11.0817
13.943
17.9397
23.1867
29.6
9.28115
8.31413
7.91146
8.18112
9.20469
11.0817
13.943
17.9397
23.1867
29.6
9.28119
8.31417
7.9115
8.18116
9.20473
11.0817
13.9431
17.9398
23.1868
29.6001
9.28124
8.31423
7.91156
8.18122
9.2048
11.0818
13.9432
17.9399
23.1869
29.6002
9.28132
8.3143
7.91163
8.1813
9.20489
11.0819
13.9433
17.94
23.1871
29.6004
7.59884
7.05061
6.88916
7.22579
8.14534
9.72665
12.0461
15.16
19.0568
23.5669
7.59878
7.05054
6.88909
7.22572
8.14525
9.72655
12.046
15.1598
19.0566
23.5667
7.59873
7.05049
6.88904
7.22566
8.14518
9.72647
12.0459
15.1597
19.0565
23.5666
7.5987
7.05046
6.889
7.22562
8.14514
9.72642
12.0458
15.1597
19.0564
23.5665
7.59869
7.05045
6.88899
7.2256
8.14512
9.7264
12.0458
15.1596
19.0564
23.5665
7.59869
7.05045
6.88899
7.2256
8.14512
9.7264
12.0458
15.1596
19.0564
23.5665
7.59871
7.05047
6.88901
7.22562
8.14514
9.72642
12.0458
15.1597
19.0564
23.5665
7.59875
7.05051
6.88905
7.22566
8.14518
9.72647
12.0459
15.1597
19.0565
23.5666
7.5988
7.05056
6.8891
7.22572
8.14525
9.72654
12.0459
15.1598
19.0566
23.5667
7.59887
7.05063
6.88918
7.2258
8.14533
9.72663
12.046
15.1599
19.0568
23.5669
6.14835
5.86369
5.85763
6.21845
7.01574
8.30535
10.1267
12.4883
15.3392
18.5315
6.14829
5.86363
5.85757
6.21838
7.01566
8.30526
10.1266
12.4881
15.3391
18.5314
6.14825
5.86358
5.85752
6.21833
7.0156
8.30519
10.1265
12.4881
15.339
18.5312
6.14823
5.86355
5.85749
6.21829
7.01556
8.30514
10.1265
12.488
15.3389
18.5312
6.14822
5.86354
5.85748
6.21828
7.01554
8.30512
10.1264
12.488
15.3389
18.5311
6.14822
5.86355
5.85748
6.21828
7.01554
8.30512
10.1264
12.488
15.3389
18.5311
6.14824
5.86356
5.8575
6.2183
7.01556
8.30515
10.1265
12.488
15.3389
18.5312
6.14827
5.8636
5.85753
6.21834
7.0156
8.30519
10.1265
12.4881
15.339
18.5313
6.14832
5.86365
5.85758
6.21839
7.01566
8.30526
10.1266
12.4881
15.3391
18.5314
6.14839
5.86371
5.85765
6.21846
7.01574
8.30535
10.1267
12.4883
15.3392
18.5315
4.93735
4.81962
4.90657
5.26169
5.93596
6.96558
8.36722
10.1283
12.1935
14.4532
4.9373
4.81957
4.90651
5.26163
5.93588
6.9655
8.36713
10.1282
12.1934
14.453
4.93727
4.81953
4.90647
5.26158
5.93583
6.96544
8.36706
10.1281
12.1933
14.4529
4.93724
4.81951
4.90644
5.26155
5.93579
6.9654
8.36702
10.1281
12.1932
14.4529
4.93723
4.8195
4.90643
5.26154
5.93578
6.96538
8.36699
10.1281
12.1932
14.4528
4.93724
4.8195
4.90643
5.26154
5.93578
6.96538
8.367
10.1281
12.1932
14.4528
4.93726
4.81952
4.90645
5.26156
5.9358
6.9654
8.36702
10.1281
12.1933
14.4529
4.93729
4.81955
4.90648
5.26159
5.93584
6.96544
8.36707
10.1281
12.1933
14.453
4.93733
4.81959
4.90653
5.26164
5.93589
6.96551
8.36714
10.1282
12.1934
14.4531
4.93739
4.81965
4.90659
5.26171
5.93597
6.96559
8.36723
10.1283
12.1935
14.4532
3.95697
3.94999
4.09225
4.42787
4.99234
5.80743
6.87601
8.17632
9.65707
11.2388
3.95693
3.94994
4.0922
4.42781
4.99228
5.80735
6.87593
8.17622
9.65696
11.2387
3.9569
3.94991
4.09216
4.42777
4.99223
5.8073
6.87587
8.17616
9.65689
11.2386
3.95688
3.94989
4.09214
4.42774
4.9922
5.80727
6.87583
8.17611
9.65684
11.2386
3.95687
3.94988
4.09213
4.42773
4.99219
5.80725
6.87582
8.17609
9.65682
11.2386
3.95687
3.94988
4.09213
4.42774
4.99219
5.80725
6.87582
8.1761
9.65683
11.2386
3.95689
3.9499
4.09215
4.42775
4.99221
5.80727
6.87584
8.17613
9.65686
11.2386
3.95692
3.94993
4.09218
4.42779
4.99225
5.80731
6.87589
8.17617
9.65691
11.2387
3.95696
3.94997
4.09222
4.42783
4.9923
5.80737
6.87595
8.17625
9.65699
11.2387
3.95701
3.95002
4.09228
4.42789
4.99236
5.80745
6.87604
8.17634
9.6571
11.2389
3.19457
3.2706
3.44998
3.76538
4.24269
4.8943
5.71425
6.67443
7.7237
8.79581
3.19453
3.27056
3.44993
3.76533
4.24263
4.89423
5.71418
6.67435
7.72361
8.79572
3.19451
3.27053
3.4499
3.76529
4.24259
4.89419
5.71413
6.67429
7.72355
8.79565
3.19449
3.27051
3.44988
3.76527
4.24257
4.89416
5.71409
6.67426
7.72351
8.79561
3.19448
3.2705
3.44987
3.76526
4.24255
4.89414
5.71408
6.67424
7.72349
8.79559
3.19449
3.2705
3.44987
3.76526
4.24256
4.89415
5.71408
6.67425
7.72349
8.79559
3.1945
3.27052
3.44989
3.76528
4.24258
4.89417
5.7141
6.67427
7.72352
8.79562
3.19453
3.27054
3.44992
3.76531
4.24261
4.8942
5.71415
6.67432
7.72357
8.79568
3.19456
3.27058
3.44995
3.76535
4.24266
4.89426
5.7142
6.67438
7.72365
8.79576
3.19461
3.27063
3.45001
3.76541
4.24272
4.89432
5.71428
6.67447
7.72374
8.79587
2.64126
2.79324
3.00357
3.30597
3.72401
4.26534
4.91785
5.64579
6.38724
7.05958
2.64123
2.7932
3.00353
3.30592
3.72396
4.26528
4.91779
5.64572
6.38716
7.0595
2.6412
2.79317
3.0035
3.30589
3.72392
4.26524
4.91774
5.64567
6.38711
7.05944
2.64119
2.79316
3.00348
3.30587
3.7239
4.26521
4.91771
5.64564
6.38708
7.05941
2.64119
2.79315
3.00347
3.30586
3.72389
4.2652
4.9177
5.64563
6.38706
7.05939
2.64119
2.79316
3.00348
3.30587
3.72389
4.26521
4.9177
5.64563
6.38707
7.0594
2.6412
2.79317
3.00349
3.30588
3.72391
4.26523
4.91773
5.64566
6.38709
7.05943
2.64122
2.79319
3.00352
3.30591
3.72394
4.26526
4.91776
5.6457
6.38714
7.05948
2.64126
2.79323
3.00355
3.30595
3.72398
4.26531
4.91782
5.64576
6.38721
7.05955
2.6413
2.79327
3.0036
3.306
3.72404
4.26537
4.91789
5.64584
6.38729
7.05964
2.30966
2.53692
2.77233
3.07042
3.45898
3.94459
4.51143
5.116
5.67616
6.04547
2.30964
2.53689
2.77229
3.07039
3.45894
3.94455
4.51138
5.11595
5.67611
6.04541
2.30962
2.53687
2.77227
3.07036
3.45891
3.94451
4.51134
5.11591
5.67606
6.04536
2.3096
2.53685
2.77225
3.07034
3.45889
3.94449
4.51132
5.11588
5.67603
6.04533
2.3096
2.53685
2.77225
3.07033
3.45888
3.94448
4.51131
5.11587
5.67602
6.04532
2.3096
2.53685
2.77225
3.07033
3.45888
3.94448
4.51131
5.11587
5.67603
6.04532
2.30961
2.53686
2.77226
3.07035
3.4589
3.9445
4.51133
5.1159
5.67605
6.04535
2.30963
2.53689
2.77229
3.07038
3.45893
3.94453
4.51137
5.11594
5.6761
6.04539
2.30966
2.53692
2.77232
3.07042
3.45897
3.94458
4.51142
5.11599
5.67616
6.04546
2.3097
2.53696
2.77237
3.07046
3.45903
3.94464
4.51149
5.11607
5.67624
6.04554
63.3432
72.5199
77.7192
81.0695
83.3555
84.9451
86.0441
86.7791
87.23
87.4443
63.3429
72.5196
77.7188
81.0691
83.3551
84.9447
86.0437
86.7787
87.2296
87.444
63.3427
72.5194
77.7186
81.0689
83.3549
84.9445
86.0435
86.7785
87.2294
87.4438
63.3426
72.5192
77.7184
81.0687
83.3547
84.9443
86.0433
86.7783
87.2292
87.4437
63.3425
72.5191
77.7183
81.0686
83.3546
84.9442
86.0432
86.7783
87.2292
87.4436
63.3425
72.5191
77.7184
81.0687
83.3547
84.9443
86.0433
86.7783
87.2292
87.4436
63.3426
72.5192
77.7184
81.0687
83.3548
84.9444
86.0434
86.7784
87.2293
87.4438
63.3427
72.5194
77.7186
81.0689
83.3549
84.9446
86.0436
86.7786
87.2295
87.444
63.3429
72.5196
77.7188
81.0692
83.3552
84.9448
86.0439
86.7789
87.2298
87.4443
63.3431
72.5198
77.7191
81.0695
83.3555
84.9451
86.0442
86.7792
87.2301
87.4446
47.4533
55.182
60.3326
63.8173
66.219
67.8868
69.0354
69.8007
70.2688
70.4909
47.453
55.1817
60.3323
63.817
66.2186
67.8865
69.0351
69.8003
70.2685
70.4907
47.4528
55.1815
60.3321
63.8167
66.2184
67.8862
69.0348
69.8001
70.2682
70.4905
47.4527
55.1814
60.3319
63.8166
66.2183
67.8861
69.0347
69.8
70.2681
70.4904
47.4526
55.1813
60.3319
63.8165
66.2182
67.886
69.0346
69.7999
70.2681
70.4903
47.4526
55.1813
60.3319
63.8165
66.2182
67.886
69.0346
69.8
70.2681
70.4904
47.4527
55.1814
60.3319
63.8166
66.2183
67.8861
69.0348
69.8001
70.2682
70.4905
47.4528
55.1815
60.3321
63.8168
66.2185
67.8863
69.0349
69.8003
70.2684
70.4907
47.453
55.1817
60.3323
63.817
66.2187
67.8866
69.0352
69.8005
70.2687
70.491
47.4532
55.182
60.3326
63.8173
66.219
67.8869
69.0355
69.8009
70.269
70.4913
36.5213
42.2706
46.5975
49.7418
51.9959
53.595
54.7091
55.4563
55.9149
56.133
36.5211
42.2703
46.5973
49.7415
51.9956
53.5947
54.7088
55.456
55.9146
56.1328
36.521
42.2701
46.5971
49.7413
51.9954
53.5945
54.7086
55.4558
55.9145
56.1326
36.5208
42.27
46.597
49.7412
51.9952
53.5943
54.7085
55.4557
55.9143
56.1325
36.5208
42.27
46.5969
49.7411
51.9952
53.5943
54.7085
55.4556
55.9143
56.1325
36.5208
42.27
46.5969
49.7412
51.9952
53.5943
54.7085
55.4557
55.9143
56.1325
36.5208
42.27
46.597
49.7412
51.9953
53.5944
54.7086
55.4558
55.9144
56.1326
36.521
42.2702
46.5971
49.7414
51.9954
53.5946
54.7088
55.456
55.9146
56.1328
36.5211
42.2703
46.5973
49.7416
51.9957
53.5948
54.709
55.4562
55.9149
56.133
36.5213
42.2706
46.5976
49.7419
51.996
53.5951
54.7093
55.4565
55.9152
56.1334
28.2494
32.4263
35.8204
38.4383
40.3953
41.8237
42.8379
43.5264
43.9524
44.1557
28.2492
32.4261
35.8202
38.438
40.3951
41.8235
42.8376
43.5262
43.9521
44.1556
28.249
32.4259
35.82
38.4378
40.3949
41.8233
42.8375
43.526
43.952
44.1554
28.2489
32.4258
35.8199
38.4377
40.3948
41.8232
42.8374
43.5259
43.9519
44.1553
28.2489
32.4258
35.8198
38.4377
40.3948
41.8231
42.8373
43.5259
43.9518
44.1553
28.2489
32.4258
35.8199
38.4377
40.3948
41.8231
42.8373
43.5259
43.9519
44.1553
28.2489
32.4259
35.8199
38.4378
40.3949
41.8232
42.8374
43.526
43.952
44.1554
28.249
32.426
35.82
38.4379
40.395
41.8234
42.8376
43.5262
43.9521
44.1556
28.2492
32.4261
35.8202
38.4381
40.3952
41.8236
42.8378
43.5264
43.9524
44.1558
28.2494
32.4264
35.8205
38.4384
40.3955
41.8239
42.8381
43.5267
43.9527
44.1561
21.7982
24.8135
27.3843
29.4585
31.0674
32.2754
33.1513
33.7549
34.1319
34.313
21.798
24.8133
27.3841
29.4583
31.0672
32.2752
33.1511
33.7546
34.1317
34.3128
21.7979
24.8132
27.384
29.4582
31.0671
32.2751
33.1509
33.7545
34.1316
34.3127
21.7978
24.8131
27.3839
29.4581
31.067
32.275
33.1508
33.7544
34.1315
34.3126
21.7978
24.8131
27.3839
29.4581
31.0669
32.2749
33.1508
33.7544
34.1315
34.3126
21.7978
24.8131
27.3839
29.4581
31.067
32.275
33.1508
33.7544
34.1315
34.3127
21.7978
24.8131
27.3839
29.4581
31.067
32.275
33.1509
33.7545
34.1316
34.3127
21.7979
24.8132
27.384
29.4583
31.0672
32.2752
33.1511
33.7546
34.1318
34.3129
21.7981
24.8134
27.3842
29.4584
31.0673
32.2754
33.1513
33.7548
34.132
34.3131
21.7982
24.8136
27.3844
29.4587
31.0676
32.2756
33.1515
33.7551
34.1322
34.3134
16.7478
18.9058
20.805
22.3907
23.6596
24.6376
25.3615
25.8681
26.1881
26.3427
16.7477
18.9056
20.8049
22.3906
23.6595
24.6374
25.3613
25.8679
26.1879
26.3425
16.7476
18.9055
20.8048
22.3905
23.6593
24.6373
25.3611
25.8678
26.1878
26.3424
16.7475
18.9054
20.8047
22.3904
23.6593
24.6372
25.3611
25.8677
26.1877
26.3424
16.7475
18.9054
20.8047
22.3903
23.6592
24.6372
25.361
25.8677
26.1877
26.3424
16.7475
18.9054
20.8047
22.3904
23.6593
24.6372
25.3611
25.8677
26.1877
26.3424
16.7475
18.9055
20.8047
22.3904
23.6593
24.6372
25.3611
25.8678
26.1878
26.3425
16.7476
18.9055
20.8048
22.3905
23.6594
24.6374
25.3613
25.8679
26.1879
26.3426
16.7477
18.9057
20.805
22.3907
23.6596
24.6375
25.3614
25.8681
26.1881
26.3428
16.7479
18.9058
20.8051
22.3909
23.6598
24.6377
25.3617
25.8683
26.1883
26.343
12.8279
14.3405
15.7057
16.8792
17.8448
18.6074
19.1833
19.5927
19.8541
19.9812
12.8277
14.3404
15.7056
16.8791
17.8447
18.6072
19.1831
19.5925
19.8539
19.9811
12.8277
14.3403
15.7055
16.879
17.8445
18.6071
19.183
19.5924
19.8538
19.981
12.8276
14.3402
15.7055
16.8789
17.8445
18.607
19.1829
19.5923
19.8538
19.981
12.8276
14.3402
15.7054
16.8789
17.8445
18.607
19.1829
19.5923
19.8538
19.981
12.8276
14.3402
15.7054
16.8789
17.8445
18.607
19.1829
19.5923
19.8538
19.981
12.8276
14.3402
15.7055
16.8789
17.8445
18.6071
19.183
19.5924
19.8538
19.9811
12.8277
14.3403
15.7056
16.879
17.8446
18.6072
19.1831
19.5925
19.854
19.9812
12.8278
14.3404
15.7057
16.8792
17.8448
18.6073
19.1833
19.5927
19.8541
19.9813
12.8279
14.3406
15.7058
16.8793
17.8449
18.6075
19.1835
19.5929
19.8543
19.9815
9.83604
10.8445
11.7856
12.6223
13.3315
13.9057
14.3483
14.6679
14.8743
14.9754
9.83594
10.8444
11.7855
12.6222
13.3314
13.9056
14.3482
14.6678