/*--------------------------------*- C++ -*----------------------------------*\
  =========                 |
  \\      /  F ield         | OpenFOAM: The Open Source CFD Toolbox
   \\    /   O peration     | Website:  https://openfoam.org
    \\  /    A nd           | Version:  6
     \\/     M anipulation  |
\*---------------------------------------------------------------------------*/
FoamFile
{
    version     2.0;
    format      ascii;
    class       volScalarField;
    location    "0.265";
    object      T;
}
// * * * * * * * * * * * * * * * * * * * * * * * * * * * * * * * * * * * * * //

dimensions      [0 0 0 1 0 0 0];

internalField   nonuniform List<scalar> 
7000
(
103.953
103.952
103.951
103.95
103.948
103.946
103.943
103.941
103.94
103.939
103.953
103.952
103.951
103.95
103.948
103.946
103.943
103.941
103.939
103.939
103.953
103.952
103.951
103.95
103.948
103.946
103.943
103.941
103.939
103.939
103.953
103.952
103.951
103.95
103.948
103.946
103.943
103.941
103.939
103.939
103.953
103.952
103.951
103.95
103.948
103.946
103.943
103.941
103.939
103.939
103.953
103.952
103.951
103.95
103.948
103.946
103.943
103.941
103.939
103.939
103.953
103.952
103.951
103.95
103.948
103.946
103.943
103.941
103.939
103.939
103.953
103.952
103.951
103.95
103.948
103.946
103.943
103.941
103.939
103.939
103.953
103.952
103.951
103.95
103.948
103.946
103.943
103.941
103.939
103.939
103.953
103.952
103.951
103.95
103.948
103.946
103.943
103.941
103.939
103.939
91.9727
91.971
91.9678
91.963
91.9569
91.9498
91.9423
91.9353
91.9299
91.9268
91.9727
91.971
91.9677
91.963
91.9568
91.9497
91.9423
91.9353
91.9298
91.9268
91.9726
91.9709
91.9677
91.9629
91.9568
91.9497
91.9422
91.9352
91.9298
91.9268
91.9726
91.9709
91.9677
91.9629
91.9568
91.9497
91.9422
91.9352
91.9297
91.9267
91.9726
91.9709
91.9676
91.9629
91.9568
91.9497
91.9422
91.9352
91.9297
91.9267
91.9726
91.9709
91.9676
91.9629
91.9568
91.9497
91.9422
91.9352
91.9297
91.9267
91.9726
91.9709
91.9677
91.9629
91.9568
91.9497
91.9422
91.9352
91.9297
91.9267
91.9726
91.9709
91.9677
91.9629
91.9568
91.9497
91.9422
91.9352
91.9298
91.9268
91.9726
91.9709
91.9677
91.9629
91.9568
91.9497
91.9422
91.9353
91.9298
91.9268
91.9726
91.971
91.9677
91.963
91.9569
91.9498
91.9423
91.9353
91.9298
91.9268
80.329
80.3259
80.3199
80.3111
80.2996
80.2861
80.2717
80.2581
80.2472
80.2412
80.3289
80.3258
80.3198
80.311
80.2995
80.286
80.2716
80.258
80.2471
80.2411
80.3288
80.3258
80.3198
80.3109
80.2995
80.286
80.2716
80.2579
80.2471
80.2411
80.3288
80.3257
80.3197
80.3109
80.2994
80.2859
80.2715
80.2579
80.247
80.241
80.3287
80.3257
80.3197
80.3109
80.2994
80.2859
80.2715
80.2579
80.247
80.241
80.3287
80.3257
80.3197
80.3109
80.2994
80.2859
80.2715
80.2579
80.247
80.241
80.3287
80.3257
80.3197
80.3109
80.2994
80.2859
80.2715
80.2579
80.2471
80.241
80.3288
80.3257
80.3198
80.3109
80.2994
80.286
80.2716
80.2579
80.2471
80.2411
80.3288
80.3258
80.3198
80.311
80.2995
80.286
80.2716
80.258
80.2471
80.2411
80.3288
80.3258
80.3199
80.311
80.2996
80.2861
80.2717
80.258
80.2472
80.2412
69.2248
69.22
69.2104
69.1961
69.1773
69.1547
69.1301
69.1062
69.0869
69.0759
69.2247
69.2199
69.2103
69.196
69.1772
69.1546
69.13
69.1061
69.0868
69.0759
69.2246
69.2198
69.2102
69.1959
69.1771
69.1545
69.1299
69.106
69.0867
69.0758
69.2245
69.2197
69.2102
69.1959
69.177
69.1544
69.1298
69.106
69.0867
69.0758
69.2245
69.2197
69.2101
69.1958
69.177
69.1544
69.1298
69.106
69.0866
69.0757
69.2245
69.2197
69.2101
69.1958
69.177
69.1544
69.1298
69.106
69.0866
69.0757
69.2245
69.2197
69.2102
69.1959
69.177
69.1544
69.1298
69.106
69.0867
69.0758
69.2245
69.2197
69.2102
69.1959
69.1771
69.1545
69.1299
69.106
69.0867
69.0758
69.2246
69.2198
69.2103
69.196
69.1771
69.1546
69.13
69.1061
69.0868
69.0759
69.2247
69.2199
69.2104
69.1961
69.1772
69.1547
69.13
69.1062
69.0869
69.076
58.834
58.8269
58.8127
58.7909
58.7617
58.7259
58.6856
58.6454
58.6119
58.5924
58.8339
58.8268
58.8125
58.7908
58.7616
58.7257
58.6855
58.6453
58.6118
58.5923
58.8338
58.8267
58.8124
58.7907
58.7615
58.7256
58.6854
58.6452
58.6117
58.5923
58.8337
58.8266
58.8124
58.7906
58.7614
58.7256
58.6853
58.6452
58.6116
58.5922
58.8337
58.8266
58.8123
58.7906
58.7614
58.7255
58.6853
58.6451
58.6116
58.5922
58.8337
58.8266
58.8123
58.7906
58.7614
58.7255
58.6853
58.6451
58.6116
58.5922
58.8337
58.8266
58.8124
58.7906
58.7614
58.7256
58.6854
58.6452
58.6116
58.5922
58.8337
58.8267
58.8124
58.7907
58.7615
58.7256
58.6854
58.6452
58.6117
58.5923
58.8338
58.8267
58.8125
58.7908
58.7616
58.7257
58.6855
58.6453
58.6118
58.5924
58.8339
58.8268
58.8126
58.7909
58.7617
58.7258
58.6856
58.6454
58.6119
58.5925
49.2933
49.2833
49.2629
49.2313
49.1877
49.1326
49.0685
49.0018
48.9437
48.9087
49.2932
49.2831
49.2628
49.2311
49.1876
49.1325
49.0683
49.0016
48.9435
48.9086
49.2931
49.283
49.2627
49.231
49.1875
49.1324
49.0682
49.0016
48.9434
48.9085
49.293
49.283
49.2626
49.231
49.1874
49.1323
49.0682
49.0015
48.9434
48.9084
49.2929
49.2829
49.2626
49.2309
49.1874
49.1323
49.0682
49.0015
48.9434
48.9084
49.2929
49.2829
49.2625
49.2309
49.1874
49.1323
49.0682
49.0015
48.9434
48.9084
49.293
49.283
49.2626
49.231
49.1874
49.1323
49.0682
49.0015
48.9434
48.9085
49.293
49.283
49.2626
49.231
49.1875
49.1324
49.0683
49.0016
48.9435
48.9085
49.2931
49.2831
49.2627
49.2311
49.1876
49.1325
49.0684
49.0017
48.9436
48.9086
49.2932
49.2832
49.2629
49.2313
49.1877
49.1326
49.0685
49.0018
48.9437
48.9088
40.6974
40.6839
40.6559
40.6117
40.5491
40.4669
40.3669
40.2572
40.1555
40.0906
40.6973
40.6838
40.6558
40.6116
40.5489
40.4667
40.3668
40.257
40.1554
40.0905
40.6972
40.6836
40.6557
40.6115
40.5488
40.4666
40.3667
40.2569
40.1553
40.0904
40.6971
40.6836
40.6556
40.6114
40.5488
40.4666
40.3666
40.2569
40.1553
40.0903
40.6971
40.6835
40.6556
40.6114
40.5487
40.4665
40.3666
40.2568
40.1552
40.0903
40.6971
40.6835
40.6556
40.6114
40.5487
40.4665
40.3666
40.2569
40.1553
40.0903
40.6971
40.6836
40.6556
40.6114
40.5488
40.4666
40.3666
40.2569
40.1553
40.0904
40.6972
40.6836
40.6557
40.6115
40.5488
40.4667
40.3667
40.257
40.1554
40.0904
40.6973
40.6837
40.6558
40.6116
40.549
40.4668
40.3668
40.2571
40.1555
40.0906
40.6974
40.6839
40.6559
40.6117
40.5491
40.4669
40.3669
40.2572
40.1556
40.0907
33.0983
33.0808
33.0441
32.9849
32.8984
32.7802
32.6285
32.45
32.2697
32.1423
33.0982
33.0807
33.044
32.9848
32.8983
32.7801
32.6284
32.4499
32.2696
32.1422
33.0981
33.0806
33.0439
32.9847
32.8982
32.78
32.6283
32.4498
32.2695
32.1422
33.098
33.0805
33.0438
32.9846
32.8981
32.78
32.6282
32.4497
32.2694
32.1421
33.098
33.0805
33.0438
32.9846
32.8981
32.7799
32.6282
32.4497
32.2694
32.1421
33.098
33.0805
33.0438
32.9846
32.8981
32.7799
32.6282
32.4497
32.2694
32.1421
33.098
33.0805
33.0438
32.9846
32.8982
32.78
32.6283
32.4498
32.2695
32.1422
33.0981
33.0806
33.0439
32.9847
32.8982
32.7801
32.6284
32.4498
32.2696
32.1422
33.0982
33.0807
33.044
32.9848
32.8983
32.7802
32.6285
32.45
32.2697
32.1423
33.0983
33.0808
33.0442
32.9849
32.8985
32.7803
32.6286
32.4501
32.2698
32.1425
26.5069
26.4853
26.4397
26.3643
26.2509
26.089
25.868
25.5843
25.2603
24.9895
26.5068
26.4852
26.4395
26.3642
26.2508
26.0889
25.8679
25.5842
25.2602
24.9894
26.5067
26.4851
26.4394
26.3641
26.2507
26.0888
25.8678
25.5841
25.2601
24.9893
26.5066
26.485
26.4394
26.364
26.2506
26.0887
25.8677
25.584
25.2601
24.9893
26.5066
26.485
26.4393
26.364
26.2506
26.0887
25.8677
25.584
25.26
24.9893
26.5066
26.485
26.4393
26.364
26.2506
26.0887
25.8677
25.584
25.26
24.9893
26.5066
26.485
26.4394
26.364
26.2507
26.0888
25.8678
25.5841
25.2601
24.9893
26.5067
26.4851
26.4394
26.3641
26.2507
26.0888
25.8679
25.5841
25.2602
24.9894
26.5067
26.4852
26.4395
26.3642
26.2508
26.089
25.868
25.5842
25.2603
24.9895
26.5069
26.4853
26.4397
26.3643
26.251
26.0891
25.8681
25.5844
25.2604
24.9897
20.8977
20.8726
20.8189
20.7288
20.5896
20.3824
20.0813
19.6537
19.0766
18.433
20.8975
20.8725
20.8188
20.7287
20.5894
20.3823
20.0812
19.6536
19.0765
18.4329
20.8975
20.8724
20.8187
20.7286
20.5894
20.3822
20.0811
19.6535
19.0764
18.4329
20.8974
20.8723
20.8187
20.7285
20.5893
20.3822
20.081
19.6534
19.0764
18.4328
20.8974
20.8723
20.8186
20.7285
20.5893
20.3821
20.081
19.6534
19.0764
18.4328
20.8974
20.8723
20.8186
20.7285
20.5893
20.3821
20.081
19.6534
19.0764
18.4328
20.8974
20.8723
20.8187
20.7286
20.5893
20.3822
20.0811
19.6535
19.0764
18.4329
20.8975
20.8724
20.8187
20.7286
20.5894
20.3823
20.0811
19.6536
19.0765
18.433
20.8976
20.8725
20.8188
20.7287
20.5895
20.3824
20.0812
19.6537
19.0766
18.433
20.8977
20.8726
20.819
20.7289
20.5896
20.3825
20.0814
19.6538
19.0767
18.4332
16.2151
16.1877
16.1286
16.0284
15.8708
15.6298
15.2626
14.6921
13.7539
12.0041
16.215
16.1876
16.1285
16.0283
15.8707
15.6297
15.2625
14.692
13.7538
12.004
16.2149
16.1875
16.1284
16.0282
15.8706
15.6296
15.2624
14.6919
13.7538
12.004
16.2148
16.1874
16.1284
16.0281
15.8706
15.6296
15.2624
14.6919
13.7537
12.0039
16.2148
16.1874
16.1284
16.0281
15.8705
15.6296
15.2624
14.6919
13.7537
12.0039
16.2148
16.1874
16.1284
16.0281
15.8705
15.6296
15.2624
14.6919
13.7537
12.0039
16.2148
16.1875
16.1284
16.0282
15.8706
15.6296
15.2624
14.6919
13.7538
12.004
16.2149
16.1875
16.1285
16.0282
15.8707
15.6297
15.2625
14.692
13.7538
12.004
16.215
16.1876
16.1286
16.0283
15.8707
15.6298
15.2626
14.6921
13.7539
12.0041
16.2151
16.1877
16.1287
16.0285
15.8709
15.6299
15.2627
14.6922
13.754
12.0042
12.3807
12.3527
12.2921
12.189
12.0266
11.7779
11.4001
10.8232
9.93107
8.54514
12.3806
12.3526
12.292
12.1889
12.0265
11.7778
11.4
10.8231
9.931
8.54508
12.3805
12.3525
12.2919
12.1888
12.0264
11.7778
11.4
10.8231
9.93095
8.54503
12.3805
12.3524
12.2918
12.1888
12.0264
11.7777
11.3999
10.8231
9.93092
8.545
12.3805
12.3524
12.2918
12.1888
12.0264
11.7777
11.3999
10.823
9.93091
8.54499
12.3805
12.3524
12.2918
12.1888
12.0264
11.7777
11.3999
10.8231
9.93092
8.545
12.3805
12.3525
12.2919
12.1888
12.0264
11.7778
11.4
10.8231
9.93095
8.54503
12.3806
12.3525
12.2919
12.1889
12.0265
11.7778
11.4
10.8231
9.93101
8.54508
12.3806
12.3526
12.292
12.189
12.0266
11.7779
11.4001
10.8232
9.93108
8.54515
12.3807
12.3527
12.2921
12.1891
12.0267
11.778
11.4002
10.8233
9.93118
8.54524
9.30095
9.274
9.21594
9.11774
8.96448
8.73357
8.39241
7.89624
7.19129
6.2405
9.30087
9.27392
9.21586
9.11766
8.9644
8.7335
8.39234
7.89617
7.19123
6.24044
9.30081
9.27386
9.2158
9.1176
8.96434
8.73345
8.39229
7.89612
7.19119
6.2404
9.30077
9.27382
9.21577
9.11757
8.96431
8.73342
8.39226
7.8961
7.19116
6.24037
9.30076
9.27381
9.21575
9.11756
8.9643
8.7334
8.39225
7.89609
7.19115
6.24037
9.30076
9.27381
9.21576
9.11756
8.96431
8.73341
8.39226
7.8961
7.19116
6.24038
9.30079
9.27384
9.21579
9.1176
8.96434
8.73345
8.39229
7.89613
7.19119
6.2404
9.30084
9.27389
9.21584
9.11765
8.96439
8.7335
8.39234
7.89618
7.19124
6.24045
9.3009
9.27396
9.21591
9.11772
8.96447
8.73357
8.39241
7.89625
7.1913
6.24051
9.30097
9.27405
9.21601
9.11782
8.96456
8.73367
8.39251
7.89634
7.19139
6.24058
6.8745
6.85011
6.79787
6.71045
6.57621
6.37885
6.09745
5.70884
5.19571
4.56742
6.87443
6.85004
6.7978
6.71038
6.57615
6.37879
6.09739
5.70879
5.19566
4.56738
6.87438
6.84999
6.79776
6.71033
6.5761
6.37874
6.09735
5.70875
5.19562
4.56734
6.87435
6.84996
6.79773
6.7103
6.57608
6.37872
6.09733
5.70873
5.1956
4.56732
6.87433
6.84995
6.79772
6.71029
6.57607
6.37871
6.09732
5.70872
5.1956
4.56732
6.87434
6.84995
6.79772
6.7103
6.57608
6.37872
6.09733
5.70873
5.19561
4.56732
6.87436
6.84998
6.79775
6.71033
6.5761
6.37875
6.09735
5.70875
5.19563
4.56735
6.8744
6.85002
6.79779
6.71037
6.57615
6.37879
6.0974
5.7088
5.19567
4.56738
6.87446
6.85008
6.79786
6.71044
6.57621
6.37885
6.09746
5.70885
5.19572
4.56743
6.87452
6.85016
6.79794
6.71052
6.5763
6.37894
6.09754
5.70893
5.1958
4.5675
4.99896
4.97806
4.93364
4.86025
4.74972
4.5915
4.37387
4.08712
3.73023
3.32233
4.99891
4.978
4.93358
4.86019
4.74967
4.59145
4.37383
4.08708
3.73019
3.32229
4.99886
4.97797
4.93354
4.86015
4.74963
4.59142
4.37379
4.08705
3.73016
3.32226
4.99884
4.97794
4.93352
4.86013
4.74961
4.5914
4.37377
4.08703
3.73014
3.32224
4.99883
4.97793
4.93351
4.86012
4.7496
4.59139
4.37377
4.08702
3.73014
3.32224
4.99884
4.97794
4.93352
4.86013
4.74961
4.5914
4.37378
4.08703
3.73015
3.32224
4.99886
4.97796
4.93354
4.86015
4.74964
4.59142
4.3738
4.08705
3.73017
3.32226
4.99889
4.97799
4.93358
4.86019
4.74967
4.59146
4.37383
4.08709
3.7302
3.32229
4.99894
4.97804
4.93363
4.86025
4.74973
4.59151
4.37389
4.08714
3.73025
3.32234
4.99899
4.97811
4.9337
4.86032
4.7498
4.59158
4.37395
4.0872
3.73031
3.32239
3.57645
3.5594
3.52344
3.46489
3.37845
3.25797
3.09777
2.89531
2.65543
2.39583
3.57641
3.55935
3.5234
3.46484
3.37841
3.25793
3.09774
2.89527
2.6554
2.3958
3.57638
3.55932
3.52337
3.46481
3.37838
3.25791
3.09771
2.89525
2.65537
2.39577
3.57636
3.5593
3.52335
3.4648
3.37837
3.25789
3.09769
2.89524
2.65536
2.39576
3.57635
3.5593
3.52335
3.46479
3.37836
3.25789
3.09769
2.89523
2.65536
2.39576
3.57636
3.5593
3.52335
3.4648
3.37837
3.25789
3.0977
2.89524
2.65536
2.39576
3.57637
3.55932
3.52337
3.46482
3.37839
3.25791
3.09772
2.89526
2.65538
2.39578
3.5764
3.55935
3.5234
3.46485
3.37842
3.25794
3.09775
2.89529
2.65541
2.3958
3.57644
3.55939
3.52344
3.46489
3.37846
3.25798
3.09779
2.89533
2.65545
2.39584
3.57648
3.55944
3.5235
3.46495
3.37852
3.25804
3.09784
2.89538
2.65549
2.39588
2.51754
2.50422
2.47638
2.43169
2.36704
2.27924
2.16623
2.02893
1.87371
1.7146
2.51751
2.50419
2.47635
2.43166
2.36701
2.27921
2.1662
2.02891
1.87368
1.71457
2.51748
2.50416
2.47633
2.43163
2.36698
2.27919
2.16618
2.02889
1.87366
1.71455
2.51747
2.50415
2.47631
2.43162
2.36697
2.27917
2.16617
2.02888
1.87365
1.71454
2.51746
2.50414
2.47631
2.43162
2.36697
2.27917
2.16616
2.02887
1.87365
1.71454
2.51747
2.50415
2.47631
2.43162
2.36697
2.27918
2.16617
2.02888
1.87366
1.71454
2.51748
2.50416
2.47633
2.43164
2.36699
2.27919
2.16619
2.02889
1.87367
1.71456
2.5175
2.50418
2.47635
2.43166
2.36701
2.27922
2.16621
2.02892
1.87369
1.71458
2.51753
2.50422
2.47639
2.4317
2.36705
2.27925
2.16624
2.02895
1.87372
1.71461
2.51757
2.50426
2.47643
2.43174
2.36709
2.27929
2.16628
2.02899
1.87376
1.71464
1.74371
1.73372
1.71301
1.68023
1.63377
1.57232
1.49588
1.40704
1.31245
1.22358
1.74369
1.73369
1.71298
1.68021
1.63374
1.5723
1.49586
1.40702
1.31243
1.22356
1.74367
1.73367
1.71296
1.68019
1.63373
1.57228
1.49584
1.407
1.31241
1.22355
1.74366
1.73366
1.71295
1.68018
1.63372
1.57227
1.49584
1.40699
1.31241
1.22354
1.74365
1.73366
1.71295
1.68018
1.63372
1.57227
1.49583
1.40699
1.3124
1.22354
1.74366
1.73366
1.71295
1.68018
1.63372
1.57228
1.49584
1.407
1.31241
1.22354
1.74367
1.73367
1.71297
1.68019
1.63373
1.57229
1.49585
1.40701
1.31242
1.22355
1.74369
1.73369
1.71298
1.68021
1.63375
1.57231
1.49587
1.40703
1.31244
1.22357
1.74371
1.73372
1.71301
1.68024
1.63378
1.57233
1.49589
1.40705
1.31246
1.22359
1.74374
1.73375
1.71305
1.68027
1.63381
1.57237
1.49593
1.40708
1.31249
1.22362
1.18843
1.1812
1.16634
1.14317
1.111
1.06964
1.02019
0.966144
0.914754
0.878258
1.18841
1.18118
1.16632
1.14315
1.11098
1.06962
1.02018
0.966128
0.914738
0.878242
1.1884
1.18117
1.16631
1.14314
1.11097
1.06961
1.02017
0.966117
0.914728
0.878231
1.18839
1.18116
1.1663
1.14313
1.11096
1.0696
1.02016
0.966111
0.914722
0.878225
1.18839
1.18116
1.1663
1.14313
1.11096
1.0696
1.02016
0.96611
0.914721
0.878223
1.18839
1.18116
1.16631
1.14313
1.11096
1.0696
1.02016
0.966114
0.914724
0.878227
1.1884
1.18117
1.16631
1.14314
1.11097
1.06961
1.02017
0.966123
0.914733
0.878236
1.18842
1.18118
1.16633
1.14316
1.11099
1.06963
1.02019
0.966137
0.914747
0.878249
1.18843
1.1812
1.16635
1.14318
1.11101
1.06965
1.02021
0.966156
0.914765
0.878267
1.18846
1.18123
1.16638
1.14321
1.11103
1.06967
1.02023
0.96618
0.914788
0.87829
0.797086
0.792023
0.781716
0.76587
0.744329
0.71746
0.686779
0.655963
0.632885
0.635291
0.797072
0.792009
0.781702
0.765857
0.744316
0.717448
0.686767
0.655951
0.632873
0.635279
0.797062
0.791999
0.781693
0.765848
0.744307
0.717439
0.686759
0.655943
0.632865
0.635271
0.797056
0.791994
0.781687
0.765843
0.744302
0.717435
0.686754
0.655939
0.632861
0.635266
0.797055
0.791992
0.781686
0.765841
0.744301
0.717434
0.686754
0.655939
0.63286
0.635265
0.797057
0.791995
0.781689
0.765844
0.744304
0.717437
0.686757
0.655942
0.632863
0.635268
0.797064
0.792002
0.781696
0.765851
0.744311
0.717444
0.686764
0.655948
0.63287
0.635275
0.797074
0.792012
0.781707
0.765863
0.744322
0.717455
0.686774
0.655959
0.632881
0.635286
0.797088
0.792027
0.781722
0.765878
0.744338
0.71747
0.686789
0.655973
0.632895
0.6353
0.797104
0.792046
0.781742
0.765898
0.744358
0.717489
0.686808
0.655992
0.632913
0.635318
7.91765
5.73007
4.6596
4.4158
4.92925
6.27439
8.66648
12.5127
18.5539
28.2399
7.91759
5.73
4.65954
4.41573
4.92916
6.27429
8.66635
12.5125
18.5537
28.2396
7.91754
5.72996
4.65949
4.41568
4.9291
6.27421
8.66625
12.5124
18.5536
28.2394
7.91751
5.72993
4.65946
4.41564
4.92906
6.27416
8.66619
12.5123
18.5535
28.2393
7.9175
5.72992
4.65945
4.41563
4.92904
6.27414
8.66616
12.5123
18.5534
28.2392
7.91751
5.72992
4.65945
4.41563
4.92904
6.27414
8.66616
12.5123
18.5534
28.2392
7.91754
5.72995
4.65947
4.41565
4.92906
6.27416
8.66618
12.5123
18.5535
28.2393
7.91758
5.72998
4.6595
4.41568
4.92909
6.27419
8.66623
12.5124
18.5536
28.2394
7.91764
5.73003
4.65955
4.41572
4.92914
6.27425
8.6663
12.5125
18.5537
28.2395
7.91771
5.73009
4.6596
4.41577
4.92919
6.27431
8.66637
12.5126
18.5538
28.2397
6.54604
5.08413
4.28773
4.13505
4.63593
5.87207
8.01365
11.3347
16.2149
23.0318
6.54598
5.08407
4.28767
4.13498
4.63585
5.87198
8.01352
11.3346
16.2147
23.0316
6.54594
5.08403
4.28763
4.13493
4.63579
5.87191
8.01343
11.3345
16.2145
23.0314
6.54591
5.08401
4.2876
4.1349
4.63575
5.87186
8.01338
11.3344
16.2144
23.0313
6.5459
5.084
4.28759
4.13489
4.63573
5.87184
8.01335
11.3344
16.2144
23.0313
6.54591
5.084
4.28759
4.13489
4.63573
5.87183
8.01335
11.3344
16.2144
23.0313
6.54593
5.08402
4.28761
4.13491
4.63575
5.87185
8.01337
11.3344
16.2144
23.0313
6.54598
5.08406
4.28765
4.13494
4.63578
5.87189
8.01342
11.3345
16.2145
23.0314
6.54603
5.08411
4.28769
4.13498
4.63583
5.87195
8.01349
11.3346
16.2146
23.0316
6.54611
5.08418
4.28775
4.13505
4.6359
5.87203
8.01358
11.3347
16.2148
23.0318
5.11935
4.2162
3.70595
3.65776
4.12417
5.18171
6.94467
9.55791
13.1514
17.7023
5.11929
4.21615
3.7059
3.6577
4.1241
5.18162
6.94456
9.55777
13.1512
17.7021
5.11926
4.21611
3.70586
3.65766
4.12405
5.18156
6.94448
9.55767
13.1511
17.702
5.11923
4.21609
3.70583
3.65763
4.12401
5.18152
6.94443
9.55761
13.151
17.7019
5.11923
4.21608
3.70582
3.65761
4.124
5.1815
6.9444
9.55758
13.151
17.7018
5.11923
4.21609
3.70583
3.65762
4.124
5.1815
6.9444
9.55758
13.151
17.7018
5.11926
4.21611
3.70584
3.65763
4.12401
5.18152
6.94443
9.55761
13.151
17.7019
5.11929
4.21614
3.70588
3.65766
4.12405
5.18156
6.94447
9.55767
13.1511
17.702
5.11935
4.21619
3.70592
3.65771
4.1241
5.18161
6.94454
9.55776
13.1512
17.7021
5.11942
4.21625
3.70598
3.65777
4.12417
5.18169
6.94464
9.55787
13.1514
17.7023
3.89869
3.35528
3.05942
3.08761
3.49869
4.35391
5.72197
7.66591
10.2033
13.2283
3.89864
3.35523
3.05937
3.08755
3.49863
4.35384
5.72188
7.66579
10.2031
13.2282
3.89861
3.3552
3.05933
3.08751
3.49858
4.35378
5.72181
7.66571
10.203
13.2281
3.89859
3.35518
3.05931
3.08749
3.49855
4.35374
5.72176
7.66565
10.203
13.228
3.89858
3.35517
3.0593
3.08747
3.49854
4.35373
5.72174
7.66563
10.2029
13.228
3.89859
3.35517
3.05931
3.08748
3.49854
4.35373
5.72174
7.66563
10.203
13.228
3.89861
3.35519
3.05933
3.08749
3.49856
4.35375
5.72176
7.66566
10.203
13.228
3.89864
3.35522
3.05935
3.08752
3.49859
4.35378
5.72181
7.66571
10.2031
13.2281
3.89869
3.35527
3.0594
3.08757
3.49863
4.35384
5.72187
7.66579
10.2032
13.2282
3.89875
3.35532
3.05945
3.08762
3.4987
4.35391
5.72196
7.6659
10.2033
13.2284
2.9159
2.596
2.44076
2.51087
2.85534
3.51791
4.53658
5.93232
7.68493
9.69897
2.91586
2.59596
2.44072
2.51082
2.85528
3.51785
4.5365
5.93222
7.68482
9.69884
2.91584
2.59593
2.44069
2.51079
2.85524
3.5178
4.53644
5.93215
7.68474
9.69875
2.91582
2.59591
2.44067
2.51077
2.85522
3.51777
4.5364
5.93211
7.68469
9.69868
2.91581
2.59591
2.44066
2.51076
2.8552
3.51775
4.53639
5.93209
7.68466
9.69866
2.91582
2.59591
2.44066
2.51076
2.85521
3.51776
4.53639
5.93209
7.68467
9.69866
2.91584
2.59593
2.44068
2.51078
2.85522
3.51777
4.53641
5.93212
7.6847
9.6987
2.91587
2.59595
2.44071
2.5108
2.85525
3.51781
4.53645
5.93217
7.68476
9.69877
2.91591
2.59599
2.44074
2.51084
2.85529
3.51786
4.53651
5.93224
7.68485
9.69888
2.91596
2.59604
2.44079
2.51089
2.85535
3.51792
4.53659
5.93233
7.68496
9.69902
2.15104
1.96939
1.90016
1.98638
2.26386
2.76149
3.49856
4.47716
5.66988
7.00752
2.151
1.96936
1.90013
1.98634
2.26382
2.76143
3.4985
4.47708
5.66979
7.00741
2.15098
1.96933
1.9001
1.98631
2.26378
2.7614
3.49845
4.47703
5.66972
7.00734
2.15097
1.96932
1.90009
1.98629
2.26376
2.76137
3.49842
4.47699
5.66968
7.00729
2.15096
1.96932
1.90008
1.98629
2.26375
2.76136
3.4984
4.47698
5.66966
7.00727
2.15097
1.96932
1.90009
1.98629
2.26376
2.76136
3.49841
4.47698
5.66966
7.00728
2.15098
1.96933
1.9001
1.9863
2.26377
2.76138
3.49843
4.477
5.66969
7.00731
2.15101
1.96936
1.90012
1.98633
2.26379
2.76141
3.49846
4.47704
5.66974
7.00737
2.15104
1.96939
1.90015
1.98636
2.26383
2.76145
3.49851
4.47711
5.66982
7.00746
2.15109
1.96943
1.9002
1.9864
2.26388
2.76151
3.49858
4.47719
5.66991
7.00757
1.57377
1.47883
1.4606
1.54836
1.76679
2.13394
2.65824
3.3338
4.13504
5.0142
1.57374
1.4788
1.46057
1.54832
1.76675
2.1339
2.65818
3.33374
4.13497
5.01412
1.57373
1.47878
1.46055
1.5483
1.76673
2.13386
2.65814
3.33369
4.13492
5.01406
1.57371
1.47877
1.46054
1.54829
1.76671
2.13384
2.65812
3.33366
4.13488
5.01402
1.57371
1.47877
1.46053
1.54828
1.7667
2.13383
2.65811
3.33365
4.13487
5.014
1.57372
1.47877
1.46054
1.54828
1.7667
2.13384
2.65811
3.33366
4.13487
5.01401
1.57373
1.47879
1.46055
1.54829
1.76672
2.13385
2.65813
3.33368
4.1349
5.01404
1.57375
1.47881
1.46057
1.54831
1.76674
2.13388
2.65816
3.33371
4.13494
5.01409
1.57378
1.47883
1.4606
1.54834
1.76677
2.13391
2.6582
3.33376
4.135
5.01416
1.57381
1.47887
1.46063
1.54838
1.76681
2.13396
2.65826
3.33383
4.13508
5.01425
1.1548
1.11708
1.12975
1.21355
1.3858
1.65751
2.03071
2.49547
3.02759
3.59058
1.15478
1.11705
1.12973
1.21353
1.38577
1.65747
2.03067
2.49542
3.02753
3.59052
1.15476
1.11704
1.12971
1.21351
1.38575
1.65744
2.03064
2.49538
3.02749
3.59047
1.15476
1.11703
1.1297
1.2135
1.38573
1.65743
2.03062
2.49536
3.02746
3.59045
1.15475
1.11703
1.1297
1.21349
1.38573
1.65742
2.03061
2.49535
3.02745
3.59044
1.15476
1.11703
1.1297
1.21349
1.38573
1.65742
2.03062
2.49535
3.02746
3.59044
1.15477
1.11704
1.12971
1.2135
1.38574
1.65744
2.03063
2.49537
3.02748
3.59047
1.15478
1.11706
1.12973
1.21352
1.38576
1.65746
2.03066
2.4954
3.02751
3.59051
1.15481
1.11708
1.12975
1.21355
1.38579
1.65749
2.03069
2.49544
3.02756
3.59056
1.15484
1.11711
1.12978
1.21358
1.38582
1.65753
2.03074
2.4955
3.02763
3.59064
0.870876
0.875536
0.90855
0.988585
1.12977
1.33929
1.6153
1.94425
2.29863
2.63803
0.870859
0.875517
0.90853
0.988562
1.12974
1.33926
1.61526
1.94421
2.29859
2.63798
0.870847
0.875505
0.908516
0.988546
1.12972
1.33924
1.61524
1.94418
2.29855
2.63794
0.87084
0.875497
0.908507
0.988536
1.12971
1.33923
1.61522
1.94416
2.29853
2.63792
0.870839
0.875495
0.908504
0.988532
1.12971
1.33922
1.61521
1.94416
2.29853
2.63791
0.870842
0.875498
0.908507
0.988535
1.12971
1.33923
1.61522
1.94416
2.29853
2.63792
0.870851
0.875507
0.908516
0.988544
1.12972
1.33924
1.61523
1.94418
2.29855
2.63794
0.870864
0.875521
0.908531
0.98856
1.12974
1.33926
1.61525
1.9442
2.29858
2.63797
0.870883
0.87554
0.908551
0.988581
1.12976
1.33928
1.61528
1.94424
2.29862
2.63802
0.870906
0.875564
0.908576
0.988609
1.12979
1.33932
1.61532
1.94429
2.29867
2.63808
0.712409
0.751091
0.797055
0.875637
1.00143
1.18028
1.40821
1.66839
1.92534
2.11231
0.712397
0.751077
0.79704
0.87562
1.00141
1.18026
1.40818
1.66836
1.92531
2.11228
0.712387
0.751066
0.797028
0.875606
1.0014
1.18024
1.40816
1.66834
1.92529
2.11225
0.712382
0.75106
0.79702
0.875598
1.00139
1.18023
1.40815
1.66833
1.92527
2.11223
0.712381
0.751058
0.797018
0.875595
1.00138
1.18022
1.40814
1.66832
1.92526
2.11223
0.712384
0.751062
0.797021
0.875598
1.00139
1.18023
1.40815
1.66832
1.92527
2.11223
0.712391
0.751069
0.797029
0.875606
1.0014
1.18024
1.40816
1.66834
1.92528
2.11225
0.712403
0.751082
0.797043
0.875621
1.00141
1.18025
1.40818
1.66836
1.92531
2.11228
0.712419
0.751099
0.797061
0.875641
1.00143
1.18028
1.40821
1.6684
1.92535
2.11232
0.712439
0.751121
0.797084
0.875666
1.00146
1.18031
1.40824
1.66844
1.9254
2.11237
44.827
51.9547
55.7737
58.087
59.5677
60.5339
61.1623
61.5601
61.7936
61.9015
44.8267
51.9542
55.7733
58.0865
59.5672
60.5334
61.1618
61.5597
61.7932
61.9012
44.8264
51.954
55.773
58.0862
59.5669
60.5331
61.1615
61.5594
61.7929
61.9009
44.8263
51.9538
55.7728
58.086
59.5667
60.5329
61.1613
61.5592
61.7927
61.9008
44.8262
51.9537
55.7727
58.0859
59.5667
60.5328
61.1613
61.5591
61.7927
61.9007
44.8262
51.9537
55.7727
58.0859
59.5667
60.5329
61.1613
61.5592
61.7927
61.9008
44.8263
51.9538
55.7729
58.0861
59.5668
60.533
61.1614
61.5593
61.7929
61.9009
44.8264
51.954
55.7731
58.0863
59.5671
60.5333
61.1617
61.5596
61.7932
61.9012
44.8266
51.9543
55.7734
58.0866
59.5674
60.5336
61.1621
61.5599
61.7935
61.9016
44.8269
51.9546
55.7737
58.087
59.5678
60.534
61.1625
61.5604
61.794
61.902
31.4918
37.2655
40.9482
43.3102
44.845
45.8478
46.4984
46.909
47.1494
47.2603
31.4915
37.2651
40.9479
43.3099
44.8446
45.8474
46.498
46.9086
47.149
47.26
31.4913
37.2649
40.9477
43.3096
44.8444
45.8471
46.4977
46.9084
47.1488
47.2598
31.4911
37.2648
40.9475
43.3095
44.8442
45.847
46.4976
46.9082
47.1486
47.2597
31.4911
37.2647
40.9474
43.3094
44.8441
45.8469
46.4975
46.9082
47.1486
47.2596
31.4911
37.2647
40.9474
43.3094
44.8442
45.8469
46.4976
46.9082
47.1486
47.2597
31.4911
37.2648
40.9475
43.3095
44.8443
45.8471
46.4977
46.9083
47.1488
47.2598
31.4913
37.2649
40.9477
43.3097
44.8445
45.8473
46.4979
46.9086
47.149
47.2601
31.4915
37.2652
40.948
43.31
44.8448
45.8476
46.4982
46.9089
47.1493
47.2604
31.4917
37.2655
40.9483
43.3103
44.8452
45.848
46.4986
46.9093
47.1498
47.2608
22.7094
26.7931
29.759
31.8167
33.2153
34.1527
34.77
35.163
35.3941
35.5011
22.7092
26.7929
29.7588
31.8164
33.215
34.1524
34.7697
35.1627
35.3939
35.5009
22.709
26.7927
29.7586
31.8162
33.2147
34.1522
34.7695
35.1625
35.3937
35.5007
22.7089
26.7926
29.7584
31.816
33.2146
34.1521
34.7694
35.1623
35.3935
35.5006
22.7088
26.7925
29.7584
31.816
33.2145
34.152
34.7693
35.1623
35.3935
35.5005
22.7088
26.7925
29.7584
31.816
33.2146
34.1521
34.7694
35.1623
35.3936
35.5006
22.7089
26.7926
29.7585
31.8161
33.2147
34.1522
34.7695
35.1625
35.3937
35.5007
22.709
26.7927
29.7586
31.8163
33.2149
34.1524
34.7697
35.1627
35.3939
35.5009
22.7092
26.7929
29.7589
31.8165
33.2151
34.1526
34.77
35.1629
35.3942
35.5012
22.7094
26.7932
29.7592
31.8168
33.2155
34.153
34.7703
35.1633
35.3946
35.5016
16.4106
19.2129
21.4237
23.061
24.2275
25.0353
25.5792
25.9308
26.1396
26.2367
16.4104
19.2127
21.4235
23.0608
24.2272
25.035
25.579
25.9305
26.1394
26.2366
16.4102
19.2125
21.4234
23.0606
24.2271
25.0349
25.5788
25.9304
26.1392
26.2364
16.4101
19.2124
21.4233
23.0605
24.2269
25.0348
25.5787
25.9302
26.1391
26.2363
16.4101
19.2124
21.4232
23.0605
24.2269
25.0347
25.5787
25.9302
26.1391
26.2363
16.4101
19.2124
21.4232
23.0605
24.2269
25.0347
25.5787
25.9303
26.1391
26.2364
16.4102
19.2125
21.4233
23.0606
24.227
25.0348
25.5788
25.9304
26.1392
26.2365
16.4103
19.2126
21.4234
23.0607
24.2272
25.035
25.579
25.9305
26.1394
26.2367
16.4104
19.2128
21.4236
23.0609
24.2274
25.0352
25.5792
25.9308
26.1397
26.2369
16.4106
19.213
21.4239
23.0612
24.2277
25.0355
25.5795
25.9311
26.14
26.2372
11.781
13.6843
15.2669
16.4985
17.4127
18.0665
18.5176
18.8143
18.9928
19.0763
11.7808
13.6841
15.2668
16.4983
17.4125
18.0663
18.5174
18.8141
18.9926
19.0762
11.7807
13.684
15.2666
16.4982
17.4124
18.0662
18.5173
18.814
18.9924
19.0761
11.7806
13.6839
15.2666
16.4981
17.4123
18.0661
18.5172
18.8139
18.9924
19.076
11.7806
13.6839
15.2665
16.4981
17.4123
18.0661
18.5171
18.8139
18.9924
19.076
11.7806
13.6839
15.2665
16.4981
17.4123
18.0661
18.5172
18.8139
18.9924
19.076
11.7807
13.684
15.2666
16.4982
17.4124
18.0662
18.5173
18.814
18.9925
19.0761
11.7808
13.6841
15.2667
16.4983
17.4125
18.0663
18.5174
18.8142
18.9926
19.0763
11.7809
13.6842
15.2669
16.4985
17.4127
18.0665
18.5176
18.8144
18.9929
19.0765
11.781
13.6844
15.2671
16.4987
17.4129
18.0668
18.5179
18.8146
18.9931
19.0768
8.37886
9.65877
10.7608
11.651
12.3348
12.8383
13.194
13.4323
13.5775
13.646
8.37874
9.65864
10.7606
11.6508
12.3346
12.8382
13.1939
13.4322
13.5773
13.6459
8.37866
9.65855
10.7605
11.6507
12.3345
12.8381
13.1938
13.4321
13.5772
13.6458
8.3786
9.65849
10.7605
11.6506
12.3345
12.838
13.1937
13.432
13.5772
13.6458
8.37858
9.65847
10.7604
11.6506
12.3344
12.838
13.1937
13.432
13.5772
13.6458
8.37859
9.65848
10.7605
11.6506
12.3345
12.838
13.1937
13.432
13.5772
13.6458
8.37863
9.65853
10.7605
11.6507
12.3345
12.8381
13.1938
13.4321
13.5773
13.6459
8.3787
9.65861
10.7606
11.6508
12.3346
12.8382
13.1939
13.4322
13.5774
13.646
8.3788
9.65872
10.7607
11.6509
12.3348
12.8383
13.1941
13.4324
13.5776
13.6462
8.37894
9.65888
10.7609
11.6511
12.335
12.8385
13.1943
13.4326
13.5778
13.6464
5.90762
6.75266
7.49952
8.12139
8.61341
8.9854
9.25409
9.43731
9.55036
9.60416
5.90753
6.75256
7.49941
8.12127
8.61329
8.98528
9.25397
9.43718
9.55025
9.60407
5.90746
6.75249
7.49933
8.12119
8.61321
8.9852
9.25388
9.4371
9.55017
9.60401
5.90742
6.75245
7.49929
8.12115
8.61316
8.98515
9.25384
9.43706
9.55013
9.60397
5.90741
6.75243
7.49927
8.12113
8.61314
8.98513
9.25382
9.43705
9.55012
9.60396
5.90742
6.75244
7.49928
8.12114
8.61316
8.98515
9.25385
9.43707
9.55015
9.60399
5.90745
6.75248
7.49932
8.12119
8.61321
8.98521
9.25391
9.43713
9.55021
9.60406
5.90751
6.75254
7.4994
8.12127
8.6133
8.9853
9.254
9.43723
9.55031
9.60416
5.90759
6.75264
7.4995
8.12138
8.61342
8.98543
9.25413
9.43737
9.55045
9.6043
5.9077