/*--------------------------------*- C++ -*----------------------------------*\
  =========                 |
  \\      /  F ield         | OpenFOAM: The Open Source CFD Toolbox
   \\    /   O peration     | Website:  https://openfoam.org
    \\  /    A nd           | Version:  6
     \\/     M anipulation  |
\*---------------------------------------------------------------------------*/
FoamFile
{
    version     2.0;
    format      ascii;
    class       volScalarField;
    location    "900";
    object      p;
}
// * * * * * * * * * * * * * * * * * * * * * * * * * * * * * * * * * * * * * //

dimensions      [0 2 -2 0 0 0 0];

internalField   nonuniform List<scalar> 
7000
(
0.0419683
0.0397626
0.0392699
0.0390812
0.0390207
0.0390939
0.0392942
0.0396021
0.040188
0.0425145
0.0397136
0.0375064
0.0370146
0.0368254
0.0367642
0.0368369
0.0370369
0.0373443
0.0379292
0.0402584
0.0391747
0.0369682
0.0364754
0.0362851
0.0362225
0.0362936
0.0364921
0.0367982
0.0373822
0.0397095
0.0389214
0.0367141
0.03622
0.0360278
0.0359628
0.0360313
0.036227
0.0365305
0.0371123
0.0394373
0.0387811
0.0365723
0.0360765
0.0358818
0.0358135
0.0358781
0.0360699
0.0363697
0.0369482
0.0392695
0.0387664
0.0365561
0.0360581
0.0358603
0.035788
0.035848
0.036035
0.0363301
0.0369043
0.0392204
0.0388791
0.036667
0.0361668
0.0359657
0.0358892
0.0359444
0.0361261
0.0364162
0.0369855
0.0392953
0.0391091
0.0368952
0.036393
0.0361887
0.0361083
0.0361588
0.0363357
0.0366209
0.0371854
0.039489
0.0396322
0.0374158
0.036912
0.0367052
0.0366215
0.0366682
0.0368408
0.0371216
0.0376814
0.0399815
0.0418796
0.0396636
0.039157
0.0389475
0.0388603
0.0389027
0.0390704
0.039346
0.0399029
0.0421977
0.0390051
0.0376304
0.0376787
0.037496
0.0374364
0.0375133
0.0377211
0.0380327
0.0380726
0.0395815
0.0375842
0.0362102
0.0362617
0.0360787
0.0360195
0.0360971
0.0363061
0.0366195
0.0366571
0.0381703
0.0375858
0.0362147
0.036264
0.0360797
0.0360187
0.0360945
0.0363018
0.0366136
0.0366507
0.0381608
0.037335
0.0359632
0.036011
0.035825
0.0357618
0.035835
0.0360397
0.0363489
0.0363835
0.0378937
0.0371921
0.0358198
0.0358654
0.0356769
0.0356105
0.0356799
0.0358808
0.0361862
0.0362168
0.037725
0.037177
0.035804
0.0358472
0.0356555
0.0355851
0.0356498
0.0358456
0.0361459
0.036171
0.0376752
0.0372919
0.0359181
0.0359587
0.0357637
0.0356889
0.0357485
0.0359388
0.0362333
0.0362522
0.037751
0.0375187
0.0361446
0.0361827
0.0359843
0.0359053
0.03596
0.0361449
0.0364338
0.0364464
0.0379386
0.0374942
0.0361158
0.0361526
0.0359511
0.0358683
0.0359184
0.0360983
0.0363815
0.0363872
0.0378786
0.0389198
0.0375423
0.0375746
0.0373721
0.0372872
0.0373344
0.0375102
0.0377882
0.0377938
0.0392829
0.036511
0.0357377
0.0361104
0.0359498
0.0359542
0.0360416
0.0362065
0.0365178
0.0362384
0.0371783
0.0356868
0.0349187
0.0352969
0.0351359
0.035142
0.0352313
0.0353986
0.0357147
0.035432
0.036377
0.0360104
0.0352475
0.0356223
0.0354602
0.0354643
0.0355517
0.0357173
0.0360319
0.0357498
0.0366911
0.0357747
0.0350106
0.0353841
0.0352206
0.0352226
0.0353076
0.0354708
0.0357832
0.0354983
0.0364424
0.0356867
0.0349229
0.035294
0.035128
0.0351266
0.0352075
0.0353666
0.0356748
0.0353852
0.0363271
0.035671
0.0349069
0.0352751
0.0351058
0.0351
0.0351755
0.0353286
0.0356308
0.0353338
0.0362709
0.0357298
0.034965
0.0353302
0.0351573
0.0351466
0.0352162
0.0353624
0.0356574
0.0353517
0.0362818
0.035942
0.0351781
0.0355402
0.0353636
0.0353483
0.0354121
0.0355519
0.0358399
0.035526
0.0364466
0.0355901
0.0348196
0.0351809
0.0350004
0.0349804
0.0350386
0.0351718
0.0354531
0.0351288
0.0360468
0.0364257
0.0356531
0.0360075
0.0358271
0.0358046
0.0358593
0.0359881
0.036262
0.0359361
0.0368592
0.0351927
0.0346551
0.035053
0.0348895
0.0349769
0.0350831
0.035201
0.0355536
0.035268
0.0360222
0.0345969
0.0340687
0.0344731
0.0343092
0.0344002
0.0345101
0.0346322
0.034994
0.034708
0.0354712
0.034939
0.0344168
0.0348166
0.0346519
0.0347408
0.0348487
0.0349693
0.0353299
0.0350465
0.0358079
0.034688
0.0341641
0.0345629
0.0343969
0.0344835
0.0345888
0.0347071
0.035066
0.0347792
0.0355469
0.0346669
0.0341443
0.03454
0.0343711
0.0344536
0.0345537
0.0346664
0.0350201
0.034726
0.0354905
0.0346493
0.0341267
0.0345187
0.0343458
0.0344225
0.0345154
0.0346197
0.0349642
0.0346584
0.0354149
0.0346378
0.0341137
0.034502
0.0343245
0.0343948
0.0344793
0.0345735
0.0349066
0.0345866
0.0353314
0.0348648
0.0343427
0.0347266
0.0345447
0.0346088
0.0346855
0.03477
0.0350921
0.0347586
0.0354868
0.0344881
0.0339583
0.0343413
0.0341539
0.0342116
0.03428
0.0343547
0.0346661
0.0343159
0.0350411
0.0351002
0.0345657
0.0349406
0.0347537
0.0348071
0.0348705
0.0349388
0.0352379
0.0348872
0.0356131
0.0342564
0.0338355
0.0341847
0.0340198
0.0341728
0.0343063
0.0344111
0.0348188
0.0346166
0.0353227
0.0337679
0.0333598
0.0337155
0.0335508
0.0337101
0.0338501
0.0339624
0.034387
0.034191
0.0349207
0.0340507
0.0336484
0.0339983
0.0338329
0.0339895
0.0341275
0.034239
0.0346639
0.0344739
0.0352099
0.0337807
0.0333765
0.0337253
0.0335583
0.0337123
0.0338474
0.0339564
0.0343807
0.0341879
0.0349357
0.0338015
0.0333998
0.0337443
0.0335735
0.0337218
0.0338497
0.0339506
0.0343672
0.034164
0.034906
0.0337808
0.0333789
0.0337185
0.0335424
0.0336825
0.0337997
0.0338874
0.0342896
0.0340671
0.0347924
0.0337208
0.0333165
0.033651
0.0334686
0.0335992
0.0337038
0.0337755
0.0341593
0.0339105
0.0346154
0.0339646
0.033563
0.0338913
0.0337031
0.033825
0.033918
0.0339746
0.0343399
0.0340676
0.0347453
0.0336396
0.0332296
0.0335566
0.0333605
0.0334733
0.033554
0.0335949
0.0339439
0.0336449
0.0343035
0.0341481
0.0337318
0.0340499
0.0338542
0.0339598
0.034032
0.0340626
0.0343929
0.034078
0.0347447
0.0332229
0.0329198
0.033251
0.0331115
0.0333168
0.0334863
0.0336078
0.0340636
0.0339284
0.0346144
0.0328412
0.0325552
0.032893
0.032755
0.03297
0.0331507
0.0332866
0.033772
0.0336595
0.0343983
0.0330925
0.0328119
0.0331428
0.0330044
0.0332162
0.0333951
0.0335323
0.0340223
0.0339239
0.0346855
0.0328257
0.0325435
0.032873
0.0327325
0.0329413
0.0331171
0.0332519
0.0337446
0.0336445
0.0344306
0.0328683
0.0325892
0.0329129
0.0327674
0.0329681
0.0331337
0.0332566
0.0337376
0.0336203
0.0343967
0.0328431
0.0325639
0.0328809
0.0327278
0.0329168
0.0330665
0.0331687
0.0336256
0.0334719
0.0342182
0.0327522
0.0324694
0.0327794
0.0326173
0.0327923
0.0329228
0.0329995
0.0334235
0.0332247
0.0339293
0.0329885
0.0327085
0.03301
0.0328399
0.0330019
0.0331145
0.0331668
0.0335588
0.0333181
0.0339713
0.0326851
0.0323961
0.0326948
0.0325134
0.0326619
0.0327558
0.0327833
0.0331464
0.0328606
0.0334871
0.0330893
0.0327915
0.0330801
0.0328977
0.0330348
0.0331147
0.0331242
0.033455
0.0331529
0.0337573
0.032112
0.0319198
0.0322482
0.0321518
0.0324046
0.032618
0.0327776
0.033282
0.0332155
0.0339204
0.0318291
0.0316586
0.0319938
0.0319014
0.0321684
0.0324003
0.0325866
0.0331432
0.0331306
0.0339581
0.0320614
0.0318958
0.0322232
0.0321303
0.0323938
0.0326251
0.0328167
0.0333872
0.0334056
0.0343011
0.0318114
0.0316448
0.0319703
0.0318747
0.0321347
0.0323629
0.0325536
0.0331317
0.0331585
0.0341089
0.0318643
0.0317016
0.032019
0.0319167
0.0321655
0.0323793
0.0325523
0.0331125
0.0331151
0.0340471
0.0318333
0.0316702
0.0319784
0.0318656
0.0320975
0.0322876
0.032428
0.0329485
0.0328875
0.0337512
0.0317192
0.0315515
0.03185
0.0317242
0.0319355
0.0320966
0.032196
0.0326636
0.0325203
0.0332935
0.0319319
0.0317665
0.0320536
0.0319166
0.0321088
0.0322427
0.0323041
0.0327211
0.0324991
0.0331842
0.0316359
0.0314604
0.0317423
0.0315898
0.0317627
0.0318691
0.0318926
0.0322661
0.0319759
0.0325811
0.0319427
0.031756
0.0320264
0.0318703
0.032026
0.0321096
0.0321028
0.0324307
0.0320784
0.0326399
0.0310206
0.0309117
0.0312285
0.0311765
0.0314709
0.031733
0.0319476
0.0325202
0.0325528
0.0333392
0.0308095
0.0307272
0.0310511
0.0310067
0.0313216
0.0316135
0.0318749
0.0325392
0.0326937
0.0337524
0.0310131
0.0309352
0.0312505
0.0312059
0.0315178
0.0318122
0.0320871
0.0327862
0.0330144
0.0342641
0.0307799
0.0307023
0.031015
0.0309675
0.0312762
0.0315689
0.0318467
0.0325669
0.0328293
0.0342127
0.0308344
0.0307612
0.0310636
0.0310075
0.0313013
0.0315744
0.0318261
0.0325234
0.032738
0.034091
0.0307969
0.030723
0.0310133
0.0309432
0.0312133
0.0314517
0.0316542
0.0322815
0.0323743
0.0335649
0.0306664
0.0305869
0.0308642
0.030776
0.0310168
0.031212
0.0313505
0.031888
0.0318226
0.0328041
0.0308543
0.0307761
0.0310384
0.0309347
0.0311478
0.0313026
0.0313826
0.0318316
0.0316344
0.0324061
0.0305733
0.0304842
0.030738
0.0306134
0.0307987
0.030913
0.0309365
0.031315
0.031003
0.0316247
0.030809
0.0307057
0.0309457
0.0308129
0.0309725
0.0310513
0.0310252
0.0313241
0.0309382
0.0313866
0.029952
0.0299023
0.0302001
0.030189
0.0305172
0.0308285
0.0311079
0.0317635
0.0319108
0.0328168
0.0297901
0.0297715
0.0300766
0.0300781
0.0304345
0.0307909
0.0311464
0.031955
0.0323356
0.0338216
0.0299579
0.0299427
0.0302387
0.0302404
0.0305952
0.0309595
0.0313424
0.0322178
0.0327602
0.0347689
0.0297386
0.0297255
0.0300181
0.0300171
0.0303696
0.0307355
0.0311287
0.0320457
0.032677
0.035029
0.0297869
0.0297785
0.0300582
0.0300463
0.0303795
0.0307188
0.0310765
0.0319555
0.032525
0.0348304
0.0297418
0.0297326
0.0299966
0.0299661
0.0302667
0.0305564
0.0308362
0.0316022
0.0319565
0.0338453
0.0296006
0.0295845
0.0298313
0.0297765
0.0300358
0.0302618
0.0304428
0.0310658
0.0311255
0.0324812
0.0297644
0.0297485
0.0299761
0.0298999
0.0301201
0.0302866
0.0303772
0.0308697
0.0306818
0.0315461
0.0295051
0.0294768
0.0296919
0.0295883
0.0297702
0.02988
0.0298895
0.0302831
0.0299225
0.0303945
0.0296907
0.0296463
0.0298451
0.0297275
0.0298733
0.02993
0.0298626
0.0301502
0.0296296
0.0297556
0.0288629
0.0288562
0.0291336
0.0291582
0.0295075
0.0298588
0.0301925
0.0309206
0.0312434
0.0321886
0.0287377
0.0287668
0.0290518
0.0290944
0.0294809
0.0298954
0.0303424
0.0313048
0.0320754
0.0342669
0.0288715
0.0289033
0.0291791
0.0292229
0.0296106
0.0300419
0.0305375
0.0316249
0.0327825
0.0364036
0.0286668
0.0287029
0.028975
0.0290175
0.0294058
0.0298459
0.0303646
0.0315376
0.0329134
0.0372949
0.0287046
0.028746
0.0290029
0.0290328
0.0293979
0.029805
0.030277
0.0314008
0.0327091
0.0369605
0.0286522
0.0286928
0.0289305
0.0289375
0.0292602
0.0295982
0.0299534
0.0309077
0.0317741
0.0349833
0.0285043
0.0285371
0.028753
0.0287286
0.0289958
0.0292431
0.0294546
0.0301634
0.0304345
0.0322003
0.0286441
0.0286754
0.0288675
0.0288149
0.0290283
0.0291913
0.0292686
0.0297598
0.0295469
0.0301362
0.0284038
0.0284218
0.0285966
0.0285091
0.0286713
0.0287564
0.0287196
0.0290622
0.0285209
0.0282244
0.0285516
0.02855
0.0287048
0.0285951
0.028707
0.0287158
0.0285679
0.0287437
0.0280201
0.0272955
0.027733
0.0277582
0.028016
0.0280691
0.028424
0.0287959
0.0291562
0.0298815
0.030297
0.0311388
0.0276374
0.0277023
0.027968
0.0280447
0.0284446
0.0288962
0.0294037
0.0304281
0.0314339
0.034512
0.0277418
0.0278088
0.0280655
0.0281447
0.0285495
0.0290295
0.0296155
0.0308295
0.0324118
0.0381452
0.0275527
0.0276267
0.0278796
0.0279598
0.0283699
0.028869
0.0295031
0.0308375
0.0327035
0.0395087
0.0275778
0.0276577
0.0278931
0.0279596
0.0283432
0.0288045
0.0293795
0.0306638
0.0324625
0.0391313
0.0275182
0.0275974
0.02781
0.027849
0.0281793
0.0285486
0.0289589
0.0299903
0.0311465
0.0357558
0.0273654
0.0274359
0.0276216
0.0276211
0.0278792
0.0281242
0.0283169
0.0289801
0.0291191
0.0310428
0.0274797
0.0275467
0.0277036
0.0276669
0.0278538
0.0279793
0.0279723
0.028297
0.0276409
0.027797
0.0272548
0.0273067
0.0274412
0.027362
0.0274832
0.0275057
0.0273398
0.0274351
0.0262994
0.0249272
0.027369
0.0273992
0.0275101
0.0274004
0.0274575
0.0273825
0.0270718
0.0269762
0.0258792
0.024632
0.0265539
0.0265998
0.0268359
0.0269057
0.0272436
0.0275983
0.0279345
0.0285382
0.0285506
0.0285988
0.0264815
0.0265703
0.026814
0.0269109
0.0272962
0.0277331
0.028213
0.0290848
0.0294204
0.0314872
0.0265604
0.0266509
0.026886
0.0269868
0.0273797
0.0278513
0.0284203
0.029458
0.0300536
0.0343426
0.0263874
0.0264882
0.0267199
0.0268257
0.0272301
0.0277329
0.0283653
0.0295071
0.0301691
0.0352674
0.0263997
0.0265072
0.0267205
0.0268136
0.0271931
0.0276626
0.0282342
0.0293399
0.0300516
0.0348611
0.0263344
0.026442
0.0266301
0.0266934
0.0270149
0.0273808
0.0277561
0.0286006
0.0288326
0.0312477
0.0261791
0.0262774
0.0264343
0.0264524
0.0266889
0.0269028
0.0270046
0.0274419
0.0266104
0.0261069
0.0262698
0.0263629
0.0264864
0.0264613
0.0266109
0.0266728
0.0265233
0.0265838
0.0249728
0.0236211
0.0260578
0.0261352
0.0262321
0.0261583
0.0262296
0.0261665
0.025824
0.0256335
0.0238097
0.0220183
0.0261454
0.0261972
0.0262664
0.0261542
0.026149
0.0259734
0.0254803
0.0251436
0.0237503
0.0234526
0.0253294
0.0253876
0.0256006
0.0256778
0.0259834
0.0262873
0.0265417
0.0269991
0.0264794
0.024955
0.0252744
0.0253773
0.0255964
0.0257015
0.0260501
0.0264243
0.0267843
0.0274449
0.0271164
0.0279212
0.0253311
0.0254351
0.0256462
0.0257561
0.026113
0.0265196
0.0269579
0.0277458
0.0273493
0.0296829
0.0251738
0.0252914
0.0255001
0.0256195
0.0259945
0.0264405
0.0269445
0.0278035
0.0272099
0.0295061
0.0251738
0.0252993
0.0254898
0.0255999
0.0259567
0.0263878
0.0268579
0.0277133
0.0274665
0.0296752
0.0251046
0.0252314
0.0253959
0.0254777
0.0257798
0.0261213
0.0264107
0.0270793
0.0268887
0.0274227
0.024949
0.0250666
0.0251968
0.0252305
0.025443
0.0256236
0.0256139
0.0259385
0.0248478
0.0225758
0.025018
0.0251291
0.0252224
0.0252081
0.025324
0.0253323
0.0250387
0.0250277
0.022983
0.0196946
0.0248194
0.0249137
0.0249777
0.0249112
0.024942
0.0248137
0.0243126
0.0240472
0.0217628
0.0183795
0.0248826
0.0249493
0.0249836
0.0248739
0.0248225
0.0245766
0.0239431
0.0235283
0.0216635
0.0199256
0.024052
0.024117
0.0243072
0.0243878
0.02466
0.0249101
0.025067
0.0254946
0.0249911
0.0226406
0.0240091
0.0241188
0.0243126
0.0244194
0.0247257
0.0250306
0.0252614
0.0258528
0.0255007
0.0256779
0.0240469
0.0241569
0.0243435
0.024456
0.0247711
0.0251082
0.0254149
0.0261243
0.0254282
0.0260513
0.0239051
0.0240317
0.0242172
0.024344
0.0246839
0.0250726
0.0254558
0.0262261
0.0252658
0.0253452
0.0238943
0.0240303
0.0241994
0.0243232
0.0246584
0.0250702
0.0254946
0.0263499
0.0261855
0.0273875
0.0238238
0.0239633
0.024108
0.0242099
0.0245058
0.0248733
0.0252035
0.0260083
0.026518
0.0280085
0.0236709
0.0238021
0.0239121
0.0239678
0.0241804
0.0244028
0.0244349
0.0249658
0.0248358
0.0242215
0.0237231
0.0238469
0.0239187
0.0239252
0.0240394
0.0240807
0.0237827
0.0239555
0.0226768
0.0200673
0.0235386
0.0236471
0.0236894
0.0236443
0.0236722
0.0235679
0.0230222
0.0228453
0.0209475
0.0170187
0.0235841
0.023662
0.0236746
0.0235845
0.0235287
0.0233002
0.0226088
0.0222225
0.0204831
0.0173636
0.0227224
0.0227927
0.0229636
0.0230512
0.023306
0.0235453
0.0236547
0.0241269
0.0241223
0.0218952
0.0226875
0.0228005
0.0229712
0.0230818
0.02336
0.0236387
0.0238028
0.0243981
0.0244121
0.0243028
0.0227102
0.0228224
0.022987
0.0231042
0.023393
0.0237059
0.0239462
0.0246747
0.024149
0.023527
0.0225835
0.0227146
0.0228794
0.023015
0.0233339
0.02371
0.0240515
0.0248825
0.0242712
0.0235984
0.0225643
0.022706
0.0228574
0.0229984
0.023329
0.0237741
0.0242756
0.0253349
0.02606
0.0288856
0.0224958
0.0226435
0.0227747
0.022905
0.0232195
0.0236846
0.0242332
0.0254216
0.0273354
0.033419
0.0223488
0.0224901
0.0225891
0.0226802
0.0229264
0.0232858
0.0235717
0.0245602
0.0260823
0.0308323
0.0223875
0.0225216
0.0225841
0.0226284
0.0227823
0.0229695
0.0228805
0.0234745
0.0237484
0.0249648
0.0222193
0.0223396
0.0223748
0.0223711
0.0224426
0.0224787
0.0220817
0.0221786
0.02133
0.0187776
0.0222482
0.0223371
0.022345
0.0222965
0.0222853
0.0221871
0.0216103
0.0213859
0.0202607
0.0170537
0.0213339
0.0214099
0.0215646
0.0216651
0.0219213
0.022194
0.022316
0.0227979
0.0232851
0.0211471
0.021303
0.0214174
0.0215673
0.0216858
0.0219529
0.0222437
0.0223932
0.0229742
0.0232459
0.0223736
0.021314
0.0214259
0.0215704
0.0216958
0.0219737
0.022296
0.02252
0.0232713
0.0229459
0.0212189
0.0212017
0.0213327
0.0214772
0.0216218
0.0219275
0.0223134
0.0226683
0.0235895
0.0233954
0.0227219
0.0211759
0.0213171
0.0214509
0.0216071
0.0219345
0.0224208
0.023057
0.024361
0.0258233
0.031388
0.0211118
0.0212612
0.0213796
0.0215367
0.0218692
0.0224342
0.0232661
0.0248854
0.0278261
0.0401353
0.0209736
0.0211185
0.0212093
0.0213363
0.0216189
0.0221288
0.0227533
0.0242392
0.0269706
0.0391457
0.0210039
0.0211422
0.021201
0.0212869
0.0214894
0.0218536
0.0220743
0.0231002
0.0245107
0.0309408
0.0208541
0.0209828
0.0210195
0.0210648
0.0211951
0.0214184
0.0212805
0.0216766
0.0216959
0.0214298
0.0208727
0.0209696
0.0209837
0.0209888
0.0210446
0.0211369
0.0207993
0.0207853
0.0203987
0.0179811
0.0198865
0.0199662
0.0201022
0.0202132
0.0204733
0.0207997
0.0209837
0.0214454
0.0224473
0.0202283
0.0198568
0.0199687
0.0200946
0.0202163
0.020473
0.0207884
0.0209561
0.0214892
0.0220143
0.020049
0.0198599
0.0199671
0.0200882
0.0202155
0.0204809
0.0208178
0.0210324
0.0217607
0.0217065
0.019012
0.0197612
0.0198852
0.0200041
0.0201466
0.0204272
0.0208038
0.0211397
0.0220668
0.0220869
0.0211359
0.0197311
0.0198627
0.0199716
0.0201271
0.0204274
0.0208969
0.021566
0.0229657
0.0242495
0.0307263
0.0196741
0.0198145
0.0199124
0.0200773
0.0203947
0.0209677
0.0219376
0.0237992
0.0263785
0.0422198
0.0195478
0.0196852
0.0197614
0.0199061
0.020189
0.0207553
0.0216014
0.023368
0.0259322
0.0438001
0.0195735
0.0197054
0.0197563
0.019868
0.0200857
0.0205505
0.021002
0.0222126
0.0235984
0.0340736
0.0194445
0.019571
0.0196066
0.0196879
0.0198485
0.020204
0.0202938
0.0208381
0.021101
0.0224231
0.0194536
0.01955
0.0195708
0.0196212
0.0197258
0.0199832
0.019923
0.0201223
0.0203978
0.0192371
0.0183774
0.0184551
0.0185644
0.0186736
0.0189264
0.0193094
0.0196349
0.0201472
0.0222081
0.0218663
0.018347
0.0184493
0.0185429
0.0186536
0.0188895
0.0192345
0.0194733
0.0200489
0.0215115
0.0205868
0.0183454
0.0184403
0.0185294
0.0186426
0.0188817
0.0192272
0.0194409
0.0202153
0.0210898
0.0195513
0.0182587
0.0183649
0.0184468
0.0185645
0.0187929
0.019114
0.0193536
0.0202407
0.0206076
0.020111
0.0182254
0.0183332
0.0184027
0.018526
0.0187518
0.0190959
0.0195709
0.0207952
0.0211262
0.0256552
0.0181768
0.018291
0.018351
0.0184844
0.0187195
0.0191384
0.0198973
0.0215407
0.0222677
0.0352401
0.0180639
0.0181751
0.0182193
0.0183397
0.0185484
0.0189983
0.0197274
0.0213066
0.0221953
0.0397862
0.0180888
0.0181956
0.0182224
0.0183203
0.018482
0.0188956
0.0193256
0.0203992
0.0207385
0.0321905
0.0179824
0.0180894
0.0181097
0.0181916
0.0183197
0.0186901
0.0188652
0.0194145
0.0195297
0.0216729
0.0179871
0.0180674
0.0180836
0.0181524
0.0182613
0.0186119
0.0188079
0.0192587
0.0203311
0.0217472
0.0168085
0.0168708
0.0169363
0.017015
0.0172169
0.0176011
0.018112
0.0186644
0.0221152
0.0312512
0.0167774
0.016857
0.0169037
0.0169759
0.0171528
0.0174915
0.0178574
0.0184913
0.0215426
0.0298209
0.0167753
0.0168458
0.0168896
0.0169615
0.0171364
0.0174608
0.017713
0.0184964
0.0210041
0.0278272
0.0167005
0.0167752
0.0168058
0.0168681
0.0170022
0.0172252
0.0173276
0.0180808
0.0193839
0.0246684
0.0166667
0.016735
0.0167493
0.0168034
0.0169032
0.0170427
0.0171298
0.0179264
0.01762
0.0217548
0.0166286
0.0166986
0.0167034
0.0167615
0.0168496
0.0169855
0.0171885
0.0181677
0.0165193
0.0233397
0.0165316
0.0165974
0.0165919
0.0166434
0.0167084
0.0168897
0.0171624
0.0180928
0.0162486
0.0286503
0.0165587
0.016621
0.0166075
0.0166505
0.0166897
0.0169137
0.0170987
0.0177412
0.0164737
0.0274546
0.0164758
0.0165436
0.0165329
0.0165778
0.0166123
0.0168807
0.0170187
0.0174442
0.0176081
0.0236933
0.0164779
0.0165238
0.0165219
0.0165783
0.0166449
0.0170005
0.0174178
0.0181498
0.020335
0.0295396
0.0151909
0.0152215
0.0152259
0.0152394
0.0153314
0.015586
0.0162376
0.0170313
0.0191554
0.0387735
0.0151608
0.0152033
0.0151893
0.0151928
0.015261
0.0155047
0.0160179
0.0168952
0.0193424
0.0395492
0.0151618
0.0151951
0.0151815
0.0151834
0.0152489
0.0154883
0.0158054
0.016702
0.0190398
0.0370714
0.0150986
0.0151287
0.0150972
0.0150763
0.0150804
0.0151642
0.0151374
0.0158408
0.0168679
0.0305663
0.0150668
0.0150824
0.0150315
0.0149886
0.0149321
0.0148381
0.0144972
0.0149178
0.0135051
0.0199696
0.0150406
0.0150519
0.0149912
0.0149426
0.0148463
0.0146461
0.0141531
0.0143519
0.0100121
0.0107776
0.0149608
0.0149657
0.0149002
0.0148505
0.0147273
0.0145498
0.0141699
0.0142569
0.00846525
0.0118889
0.0149926
0.0149949
0.0149313
0.0148898
0.0147634
0.0146982
0.0144991
0.0146521
0.0104554
0.0188586
0.0149342
0.0149467
0.0148949
0.0148752
0.0147758
0.0148401
0.0148708
0.0153212
0.0146086
0.0287132
0.0149365
0.0149337
0.0149045
0.014924
0.0149131
0.0151682
0.0157409
0.0169306
0.0186144
0.0383021
0.0314242
0.0307829
0.0258056
0.0200332
0.0162036
0.0146457
0.014695
0.0153443
0.0165942
0.0156997
0.0343254
0.031773
0.0258651
0.019518
0.0147406
0.0125164
0.0125882
0.0139582
0.0163575
0.0168164
0.0369805
0.0344065
0.0295663
0.0231043
0.0172804
0.0136696
0.012479
0.0133889
0.0163726
0.0182141
0.0379219
0.0366438
0.0335175
0.0275474
0.0211312
0.0162802
0.0139585
0.0142944
0.0172236
0.0195716
0.0378034
0.0372382
0.034365
0.0284917
0.0218872
0.016807
0.0148236
0.0158091
0.0189392
0.0211645
0.0356575
0.0356152
0.0320228
0.0264499
0.0205941
0.0165941
0.0160016
0.0179743
0.0210473
0.0224203
0.0311614
0.0325533
0.0291414
0.0243662
0.0203547
0.018167
0.0185722
0.020456
0.0227035
0.0227938
0.0269983
0.0294395
0.0276212
0.0241096
0.0217957
0.0209279
0.0213281
0.0222363
0.0236301
0.0231274
0.0235658
0.0279491
0.0277296
0.0252452
0.023672
0.0232079
0.0232292
0.023489
0.0246958
0.0246986
0.0226296
0.0275892
0.0283806
0.0269305
0.0257667
0.0251804
0.0248268
0.0247547
0.0255746
0.0251113
0.0284065
0.0252176
0.0196581
0.0142951
0.0112299
0.0107773
0.0118248
0.0136243
0.015993
0.0186511
0.02998
0.0253572
0.0191033
0.0131751
0.00939598
0.008132
0.00899943
0.0115836
0.0154838
0.0187634
0.0322643
0.0282495
0.0222792
0.0160404
0.0113697
0.00918811
0.00917804
0.0111953
0.0152516
0.0185893
0.0338645
0.0312471
0.0263989
0.0203052
0.0151677
0.0120902
0.0112084
0.0125825
0.0161088
0.0191826
0.0339547
0.0316932
0.02751
0.0220022
0.0166341
0.0131536
0.0125605
0.0142818
0.0178542
0.0207432
0.0314931
0.0297499
0.0258566
0.0211118
0.0163998
0.0135294
0.0138413
0.0164264
0.0203394
0.0231848
0.0267084
0.0265055
0.0236352
0.0200992
0.0166249
0.0148884
0.0161586
0.0192744
0.0229597
0.0255545
0.0225208
0.022594
0.0220104
0.0202703
0.0182256
0.0175097
0.0190752
0.021731
0.0246281
0.0271228
0.0207095
0.0206256
0.0206559
0.0199756
0.0190909
0.019122
0.0206639
0.0229877
0.0259575
0.0289046
0.0222098
0.0227133
0.022572
0.0219862
0.0217533
0.0221533
0.0232537
0.0247692
0.0271911
0.0299786
0.0241759
0.020961
0.0168421
0.0127145
0.0100788
0.0092745
0.00952473
0.0108896
0.0133829
0.015803
0.0252587
0.0206645
0.0152783
0.0105767
0.00789167
0.00712214
0.00744969
0.00925928
0.0129814
0.0156988
0.0272489
0.0232265
0.0167512
0.0108917
0.00748542
0.00642815
0.0067812
0.00886173
0.0129622
0.0157142
0.0280204
0.0253226
0.0193426
0.0131993
0.00922268
0.00771083
0.00804788
0.010124
0.0138855
0.0163348
0.0278491
0.0255892
0.0202727
0.0147573
0.0106764
0.00927114
0.0102276
0.0123821
0.015751
0.0176368
0.0260546
0.0242242
0.0197503
0.0153172
0.0116698
0.010714
0.0124272
0.0149854
0.0183495
0.0200702
0.0222152
0.0209366
0.0180486
0.0154542
0.012645
0.0119154
0.0139865
0.017343
0.0212026
0.0232207
0.0174676
0.0163263
0.0157051
0.0148749
0.013315
0.0130132
0.0153233
0.0192951
0.0234028
0.025695
0.0153093
0.013903
0.0132689
0.0131671
0.0128895
0.0134209
0.0159229
0.0201007
0.0248326
0.0277507
0.0184418
0.0171877
0.0165112
0.0158729
0.0154554
0.015923
0.0181363
0.0219343
0.0265799
0.0296925
0.0211099
0.0192372
0.0169679
0.0135982
0.0108806
0.00923891
0.00859785
0.0090757
0.0105803
0.0113234
0.0218197
0.0183161
0.0139157
0.00986886
0.00748619
0.00631695
0.00612564
0.0072689
0.0100049
0.0111836
0.023166
0.0199274
0.0133087
0.00716826
0.00403463
0.00346193
0.00410567
0.00599179
0.0097026
0.0114835
0.0231961
0.0206965
0.0138223
0.00716577
0.0037653
0.00385918
0.00549417
0.00759021
0.0107516
0.0124053
0.0236426
0.0205635
0.0140808
0.00822595
0.0050696
0.00546522
0.00790662
0.0103263
0.0129283
0.0137858
0.0233717
0.0194647
0.0138973
0.00947289
0.00652875
0.00691511
0.00976868
0.0126307
0.0154137
0.0157029
0.0206878
0.0159695
0.0123779
0.00981605
0.00713248
0.00703119
0.00997002
0.0138471
0.0176205
0.0182404
0.0166159
0.0120474
0.00937087
0.00808025
0.00635912
0.00652754
0.00980362
0.0146616
0.019382
0.0206469
0.012637
0.00927713
0.0065947
0.00607299
0.00571721
0.00654278
0.00983709
0.0150472
0.0205534
0.0226623
0.0151382
0.0131029
0.0114866
0.0104247
0.00974345
0.00998006
0.0123196
0.016907
0.0224496
0.024883
0.0199062
0.0191611
0.0177833
0.0143591
0.0112274
0.00897876
0.00786622
0.00783862
0.00902119
0.00911838
0.0197609
0.0177534
0.014036
0.00972024
0.00663096
0.00519457
0.00482333
0.00552302
0.00790278
0.00818989
0.0202571
0.0181423
0.0117847
0.00524324
0.00155225
0.00158071
0.00286041
0.00464372
0.00723769
0.0080549
0.0204388
0.0182103
0.0106577
0.00332544
-1.55954e-05
0.00110021
0.00412689
0.00647407
0.00865734
0.00905612
0.0224169
0.0178962
0.0102424
0.00371711
0.00085534
0.00215897
0.0057481
0.0084825
0.0107234
0.0106267
0.0236909
0.0168067
0.00994105
0.00484979
0.0018456
0.00251788
0.00602629
0.00968262
0.0125327
0.0121379
0.0212872
0.0132807
0.00835729
0.00481443
0.0015463
0.00157407
0.00518951
0.00992022
0.013927
0.0139984
0.018318
0.00947589
0.00488612
0.00270073
0.00030359
0.000618043
0.00458179
0.0102418
0.0152487
0.0161912
0.0136086
0.00660126
0.00254688
0.00183522
0.000840711
0.00130263
0.0047954
0.010574
0.0162516
0.0179928
0.0143968
0.0109436
0.0086398
0.00748493
0.00628029
0.00594553
0.00807663
0.0126133
0.0181723
0.0200376
0.018848
0.0190311
0.0182651
0.0149549
0.0112578
0.00873604
0.00753053
0.00718498
0.00816789
0.00825667
0.0176565
0.0175664
0.0148155
0.0100512
0.00613222
0.00497878
0.0049725
0.00503696
0.00640497
0.00606272
0.0175721
0.0172135
0.0123439
0.00533799
0.00129215
0.00149879
0.00337064
0.00465738
0.00604117
0.00555197
0.0184765
0.017262
0.0101346
0.00218133
-0.00124231
-0.000391995
0.00316831
0.00627043
0.00766739
0.00664486
0.0222399
0.0173228
0.00890777
0.00151345
-0.00163938
-0.000528585
0.00326097
0.00715488
0.00940327
0.00834638
0.0256994
0.0167888
0.0082011
0.00187514
-0.00130168
-0.000763085
0.00273523
0.00747715
0.0106353
0.00968114
0.023662
0.0135349
0.00644644
0.00159189
-0.00192504
-0.00186938
0.00184225
0.0073597
0.0115928
0.0113243
0.0191586
0.00861961
0.00328381
0.00030694
-0.00284634
-0.00291528
0.00111509
0.00753292
0.0127729
0.0135466
0.0146029
0.00599422
0.0024199
0.00160248
-0.00111563
-0.00180161
0.00158428
0.0079139
0.0137812
0.0153235
0.0154194
0.010911
0.00880685
0.00757685
0.00463266
0.00281918
0.00499277
0.0100894
0.0156882
0.0170138
0.0166045
0.0181607
0.0189969
0.0161196
0.0123077
0.0103672
0.00930225
0.0079059
0.00781465
0.00755644
0.014753
0.0170031
0.0167116
0.0117038
0.00773638
0.00698831
0.00704911
0.00606628
0.00559238
0.00428112
0.0144443
0.0164559
0.0149008
0.00763939
0.00338698
0.00352028
0.00535269
0.00622022
0.0056158
0.00379989
0.0155333
0.016657
0.0118692
0.00353011
-0.000160053
0.0001075
0.00350886
0.00712938
0.0075106
0.00527029
0.0201306
0.0173666
0.00946499
0.00171975
-0.00163277
-0.00119238
0.00236279
0.00725068
0.00939207
0.00744969
0.0261882
0.0178087
0.00813126
0.000912953
-0.00188071
-0.00164363
0.00180303
0.0073378
0.0106444
0.00903332
0.025736
0.0150202
0.00642326
0.000449696
-0.00258689
-0.00263481
0.00120123
0.00730182
0.0115706
0.0107062
0.0188285
0.00979637
0.00452107
0.000499822
-0.00336678
-0.00377964
0.000539739
0.00748865
0.0127763
0.0129896
0.0136288
0.00750233
0.00577642
0.00399601
-0.00122034
-0.00273009
0.00101398
0.00796091
0.0138708
0.0148656
0.0163413
0.0125557
0.0117251
0.0101689
0.00465401
0.0014931
0.00397175
0.0100461
0.0156014
0.0161218
0.0158107
0.0178928
0.0210154
0.019984
0.016364
0.0136547
0.0108813
0.00727208
0.00649592
0.00552403
0.0132488
0.0169738
0.0204635
0.0169139
0.0125081
0.0105491
0.00887419
0.00567362
0.00391353
0.00198399
0.0127116
0.0161888
0.019227
0.0136312
0.00813909
0.00733542
0.0082817
0.00740198
0.00542154
0.00265329
0.0126621
0.0165207
0.0160602
0.00804304
0.00332273
0.00322305
0.00661681
0.0096359
0.00921122
0.00558253
0.0155573
0.0173759
0.0128404
0.00466284
0.000743071
0.00113914
0.00503286
0.0103305
0.012584
0.00958849
0.0220015
0.0182563
0.0108529
0.0030761
-0.000171322
0.000298749
0.00416443
0.0102142
0.0145286
0.0127155
0.0238776
0.0163905
0.00949863
0.00294898
-0.000699635
-0.000538451
0.00367893
0.0102237
0.0156056
0.0149974
0.0174449
0.0121488
0.00915655
0.00449137
-0.000556452
-0.0013653
0.00329829
0.0105675
0.0165584
0.0169779
0.0115863
0.0103541
0.0116885
0.00913407
0.00243255
-0.000146223
0.00390879
0.011294
0.0176016
0.0180006
0.0173908
0.0155848
0.0165524
0.0152556
0.00871646
0.00419004
0.00667029
0.0131553
0.0187288
0.0179304
0.0272841
0.0232285
0.0262533
0.027932
0.0241014
0.0183274
0.00966774
0.00103177
0.00416055
0.0181075
0.0241979
0.0226214
0.0267781
0.0263913
0.0210716
0.0153048
0.00719192
-0.00104185
0.00259607
0.0163171
0.0225505
0.0214547
0.0262428
0.0237587
0.0167548
0.0120881
0.00692545
0.000274572
0.00521931
0.019573
0.0184232
0.0206557
0.0243996
0.0176378
0.0101118
0.00704386
0.00592049
0.00352721
0.00907871
0.0231465
0.0149586
0.0199602
0.0211519
0.0123574
0.00569975
0.00417241
0.00562285
0.00681335
0.0132162
0.0260278
0.0169827
0.0201309
0.0183431
0.0101207
0.00443674
0.00402677
0.00660136
0.00963414
0.0166222
0.026238
0.0199492
0.0191696
0.0172999
0.0113014
0.00541007
0.00457312
0.00809666
0.0130319
0.0198669
0.0241941
0.0176831
0.0167672
0.0175712
0.0144672
0.00798017
0.00556874
0.00952223
0.0159268
0.0225186
0.0227834
0.0150075
0.0159168
0.0193431
0.0184788
0.0126662
0.00831629
0.0111739
0.0177273
0.0237178
0.0219447
0.0274612
0.022409
0.0228037
0.0228226
0.0185257
0.0131919
0.013431
0.01856
0.023543
0.0219448
0.0586118
0.0374914
0.0329911
0.0345643
0.0336401
0.031226
0.0223298
0.0121117
0.0430719
0.133324
0.0593262
0.0376836
0.0341555
0.0353444
0.0340165
0.0313104
0.0214356
0.0111234
0.0445998
0.13736
0.0553943
0.0362164
0.0344365
0.0346173
0.0327971