/*--------------------------------*- C++ -*----------------------------------*\
  =========                 |
  \\      /  F ield         | OpenFOAM: The Open Source CFD Toolbox
   \\    /   O peration     | Website:  https://openfoam.org
    \\  /    A nd           | Version:  6
     \\/     M anipulation  |
\*---------------------------------------------------------------------------*/
FoamFile
{
    version     2.0;
    format      ascii;
    class       volScalarField;
    location    "0.78";
    object      T;
}
// * * * * * * * * * * * * * * * * * * * * * * * * * * * * * * * * * * * * * //

dimensions      [0 0 0 1 0 0 0];

internalField   nonuniform List<scalar> 
7000
(
106.378
106.377
106.373
106.368
106.363
106.356
106.35
106.344
106.34
106.338
106.378
106.377
106.373
106.368
106.363
106.356
106.35
106.344
106.34
106.338
106.378
106.377
106.373
106.368
106.363
106.356
106.35
106.344
106.34
106.338
106.378
106.377
106.373
106.368
106.363
106.356
106.35
106.344
106.34
106.338
106.378
106.377
106.373
106.368
106.363
106.356
106.35
106.344
106.34
106.338
106.378
106.377
106.373
106.368
106.363
106.356
106.35
106.344
106.34
106.338
106.378
106.377
106.373
106.368
106.363
106.356
106.35
106.344
106.34
106.338
106.378
106.377
106.373
106.368
106.363
106.356
106.35
106.344
106.34
106.338
106.378
106.377
106.373
106.368
106.363
106.356
106.35
106.344
106.34
106.338
106.378
106.377
106.373
106.368
106.363
106.356
106.35
106.344
106.34
106.338
99.1589
99.1536
99.1432
99.1285
99.1106
99.091
99.0715
99.0542
99.0412
99.0342
99.1589
99.1535
99.1432
99.1285
99.1106
99.091
99.0715
99.0542
99.0412
99.0342
99.1589
99.1535
99.1432
99.1285
99.1106
99.091
99.0715
99.0542
99.0412
99.0342
99.1589
99.1535
99.1432
99.1285
99.1106
99.091
99.0715
99.0542
99.0412
99.0342
99.1589
99.1535
99.1431
99.1285
99.1106
99.091
99.0715
99.0542
99.0412
99.0342
99.1589
99.1535
99.1431
99.1285
99.1106
99.091
99.0715
99.0542
99.0412
99.0342
99.1589
99.1535
99.1431
99.1285
99.1106
99.091
99.0715
99.0542
99.0412
99.0342
99.1589
99.1535
99.1432
99.1285
99.1106
99.091
99.0715
99.0542
99.0412
99.0342
99.1589
99.1535
99.1432
99.1285
99.1106
99.091
99.0715
99.0542
99.0412
99.0342
99.1589
99.1535
99.1432
99.1285
99.1106
99.091
99.0715
99.0542
99.0412
99.0342
92.0104
92.0012
91.9833
91.9581
91.9271
91.8928
91.8586
91.8279
91.8047
91.7921
92.0103
92.0011
91.9833
91.958
91.927
91.8928
91.8586
91.8279
91.8046
91.7921
92.0103
92.0011
91.9833
91.958
91.927
91.8928
91.8585
91.8279
91.8046
91.7921
92.0103
92.0011
91.9833
91.958
91.927
91.8928
91.8585
91.8279
91.8046
91.7921
92.0103
92.0011
91.9833
91.958
91.927
91.8928
91.8585
91.8279
91.8046
91.792
92.0103
92.0011
91.9833
91.958
91.927
91.8928
91.8585
91.8279
91.8046
91.792
92.0103
92.0011
91.9833
91.958
91.927
91.8928
91.8585
91.8279
91.8046
91.792
92.0103
92.0011
91.9833
91.958
91.927
91.8928
91.8585
91.8279
91.8046
91.7921
92.0103
92.0011
91.9833
91.958
91.927
91.8928
91.8585
91.8279
91.8046
91.7921
92.0103
92.0011
91.9833
91.958
91.927
91.8928
91.8586
91.8279
91.8047
91.7921
84.979
84.9656
84.9397
84.9026
84.8568
84.8057
84.7538
84.7068
84.6706
84.6509
84.979
84.9656
84.9397
84.9026
84.8568
84.8057
84.7538
84.7068
84.6706
84.6508
84.9789
84.9656
84.9397
84.9026
84.8568
84.8057
84.7538
84.7068
84.6706
84.6508
84.9789
84.9656
84.9396
84.9026
84.8568
84.8057
84.7538
84.7067
84.6706
84.6508
84.9789
84.9656
84.9396
84.9026
84.8568
84.8057
84.7538
84.7067
84.6706
84.6508
84.9789
84.9656
84.9396
84.9026
84.8568
84.8057
84.7538
84.7067
84.6706
84.6508
84.9789
84.9656
84.9396
84.9026
84.8568
84.8057
84.7538
84.7067
84.6706
84.6508
84.9789
84.9656
84.9396
84.9026
84.8568
84.8057
84.7538
84.7067
84.6706
84.6508
84.9789
84.9656
84.9397
84.9026
84.8568
84.8057
84.7538
84.7068
84.6706
84.6508
84.9789
84.9656
84.9397
84.9026
84.8568
84.8057
84.7538
84.7068
84.6706
84.6509
78.1097
78.0918
78.0569
78.0067
77.9438
77.8726
77.7989
77.7306
77.677
77.6472
78.1096
78.0918
78.0569
78.0067
77.9438
77.8726
77.7989
77.7306
77.677
77.6471
78.1096
78.0918
78.0569
78.0066
77.9438
77.8725
77.7989
77.7306
77.6769
77.6471
78.1096
78.0917
78.0569
78.0066
77.9438
77.8725
77.7988
77.7306
77.6769
77.6471
78.1096
78.0917
78.0569
78.0066
77.9438
77.8725
77.7988
77.7305
77.6769
77.6471
78.1096
78.0917
78.0569
78.0066
77.9438
77.8725
77.7988
77.7305
77.6769
77.6471
78.1096
78.0917
78.0569
78.0066
77.9438
77.8725
77.7988
77.7305
77.6769
77.6471
78.1096
78.0917
78.0569
78.0066
77.9438
77.8725
77.7989
77.7306
77.6769
77.6471
78.1096
78.0918
78.0569
78.0066
77.9438
77.8726
77.7989
77.7306
77.677
77.6471
78.1096
78.0918
78.0569
78.0067
77.9438
77.8726
77.7989
77.7306
77.677
77.6471
71.4452
71.4226
71.3781
71.3132
71.2309
71.1355
71.0342
70.9373
70.8585
70.8133
71.4452
71.4225
71.378
71.3132
71.2308
71.1355
71.0342
70.9372
70.8585
70.8133
71.4451
71.4225
71.378
71.3132
71.2308
71.1355
71.0341
70.9372
70.8584
70.8133
71.4451
71.4225
71.378
71.3132
71.2308
71.1354
71.0341
70.9372
70.8584
70.8133
71.4451
71.4225
71.378
71.3131
71.2308
71.1354
71.0341
70.9372
70.8584
70.8132
71.4451
71.4225
71.378
71.3131
71.2308
71.1354
71.0341
70.9372
70.8584
70.8132
71.4451
71.4225
71.378
71.3131
71.2308
71.1354
71.0341
70.9372
70.8584
70.8133
71.4451
71.4225
71.378
71.3132
71.2308
71.1354
71.0341
70.9372
70.8584
70.8133
71.4451
71.4225
71.378
71.3132
71.2308
71.1355
71.0342
70.9372
70.8585
70.8133
71.4452
71.4225
71.378
71.3132
71.2309
71.1355
71.0342
70.9372
70.8585
70.8133
65.0257
64.9982
64.9438
64.8636
64.7596
64.6359
64.4995
64.363
64.2459
64.1751
65.0256
64.9982
64.9438
64.8635
64.7595
64.6358
64.4995
64.3629
64.2458
64.175
65.0256
64.9982
64.9437
64.8635
64.7595
64.6358
64.4995
64.3629
64.2458
64.175
65.0256
64.9981
64.9437
64.8635
64.7595
64.6358
64.4994
64.3629
64.2458
64.175
65.0256
64.9981
64.9437
64.8635
64.7595
64.6358
64.4994
64.3629
64.2458
64.175
65.0256
64.9981
64.9437
64.8634
64.7595
64.6358
64.4994
64.3629
64.2458
64.175
65.0256
64.9981
64.9437
64.8635
64.7595
64.6358
64.4994
64.3629
64.2458
64.175
65.0256
64.9981
64.9437
64.8635
64.7595
64.6358
64.4995
64.3629
64.2458
64.175
65.0256
64.9982
64.9438
64.8635
64.7595
64.6358
64.4995
64.3629
64.2458
64.175
65.0256
64.9982
64.9438
64.8635
64.7596
64.6358
64.4995
64.3629
64.2459
64.1751
58.8877
58.8559
58.7922
58.6969
58.5707
58.4153
58.2359
58.0441
57.8654
57.7464
58.8877
58.8558
58.7921
58.6969
58.5706
58.4153
58.2358
58.0441
57.8654
57.7464
58.8876
58.8558
58.7921
58.6968
58.5706
58.4153
58.2358
58.044
57.8653
57.7464
58.8876
58.8557
58.7921
58.6968
58.5706
58.4152
58.2358
58.044
57.8653
57.7463
58.8876
58.8557
58.7921
58.6968
58.5706
58.4152
58.2358
58.044
57.8653
57.7463
58.8876
58.8557
58.7921
58.6968
58.5706
58.4152
58.2358
58.044
57.8653
57.7463
58.8876
58.8557
58.7921
58.6968
58.5706
58.4152
58.2358
58.044
57.8653
57.7463
58.8876
58.8558
58.7921
58.6968
58.5706
58.4153
58.2358
58.044
57.8653
57.7464
58.8876
58.8558
58.7921
58.6969
58.5706
58.4153
58.2358
58.0441
57.8654
57.7464
58.8877
58.8558
58.7922
58.6969
58.5707
58.4153
58.2359
58.0441
57.8654
57.7464
53.0635
53.0284
52.9575
52.8499
52.7039
52.5174
52.289
52.0228
51.7414
51.5185
53.0635
53.0283
52.9575
52.8499
52.7039
52.5173
52.2889
52.0227
51.7413
51.5184
53.0635
53.0283
52.9574
52.8499
52.7038
52.5173
52.2889
52.0227
51.7413
51.5184
53.0634
53.0282
52.9574
52.8498
52.7038
52.5172
52.2888
52.0226
51.7413
51.5184
53.0634
53.0282
52.9574
52.8498
52.7038
52.5172
52.2888
52.0226
51.7413
51.5183
53.0634
53.0282
52.9574
52.8498
52.7038
52.5172
52.2888
52.0226
51.7412
51.5183
53.0634
53.0282
52.9574
52.8498
52.7038
52.5172
52.2888
52.0226
51.7413
51.5184
53.0634
53.0283
52.9574
52.8498
52.7038
52.5173
52.2889
52.0227
51.7413
51.5184
53.0635
53.0283
52.9574
52.8499
52.7039
52.5173
52.2889
52.0227
51.7413
51.5184
53.0635
53.0283
52.9575
52.8499
52.7039
52.5173
52.2889
52.0227
51.7414
51.5185
47.58
47.5434
47.4693
47.3553
47.1973
46.9878
46.7148
46.3607
45.9119
45.4272
47.5799
47.5433
47.4692
47.3553
47.1973
46.9878
46.7147
46.3606
45.9119
45.4271
47.5799
47.5433
47.4692
47.3553
47.1972
46.9878
46.7147
46.3606
45.9118
45.4271
47.5799
47.5433
47.4692
47.3552
47.1972
46.9877
46.7147
46.3606
45.9118
45.427
47.5798
47.5433
47.4691
47.3552
47.1972
46.9877
46.7146
46.3605
45.9118
45.427
47.5798
47.5433
47.4691
47.3552
47.1972
46.9877
46.7146
46.3605
45.9118
45.427
47.5798
47.5433
47.4691
47.3552
47.1972
46.9877
46.7146
46.3605
45.9118
45.427
47.5799
47.5433
47.4692
47.3552
47.1972
46.9877
46.7147
46.3606
45.9118
45.4271
47.5799
47.5433
47.4692
47.3553
47.1973
46.9878
46.7147
46.3606
45.9119
45.4271
47.5799
47.5433
47.4692
47.3553
47.1973
46.9878
46.7148
46.3607
45.9119
45.4272
42.4574
42.422
42.3503
42.2395
42.084
41.8727
41.5835
41.1683
40.5083
39.2545
42.4573
42.422
42.3503
42.2395
42.0839
41.8726
41.5835
41.1682
40.5083
39.2545
42.4573
42.422
42.3503
42.2394
42.0839
41.8726
41.5834
41.1682
40.5082
39.2544
42.4572
42.4219
42.3502
42.2394
42.0838
41.8726
41.5834
41.1681
40.5082
39.2544
42.4572
42.4219
42.3502
42.2394
42.0838
41.8726
41.5834
41.1681
40.5082
39.2544
42.4572
42.4219
42.3502
42.2394
42.0838
41.8726
41.5834
41.1681
40.5082
39.2544
42.4572
42.4219
42.3502
42.2394
42.0838
41.8726
41.5834
41.1681
40.5082
39.2544
42.4573
42.4219
42.3502
42.2394
42.0839
41.8726
41.5834
41.1682
40.5082
39.2544
42.4573
42.422
42.3503
42.2394
42.0839
41.8726
41.5834
41.1682
40.5083
39.2545
42.4573
42.422
42.3503
42.2395
42.0839
41.8727
41.5835
41.1683
40.5083
39.2545
37.7086
37.6777
37.6151
37.5191
37.3854
37.2056
36.9624
36.6224
36.1236
35.3725
37.7086
37.6776
37.6151
37.519
37.3854
37.2055
36.9624
36.6224
36.1236
35.3724
37.7085
37.6776
37.615
37.519
37.3853
37.2055
36.9623
36.6223
36.1235
35.3724
37.7085
37.6776
37.615
37.519
37.3853
37.2055
36.9623
36.6223
36.1235
35.3723
37.7085
37.6775
37.615
37.5189
37.3853
37.2054
36.9623
36.6223
36.1235
35.3723
37.7085
37.6775
37.615
37.5189
37.3853
37.2054
36.9623
36.6223
36.1235
35.3723
37.7085
37.6776
37.615
37.519
37.3853
37.2054
36.9623
36.6223
36.1235
35.3723
37.7085
37.6776
37.615
37.519
37.3853
37.2055
36.9623
36.6223
36.1235
35.3723
37.7086
37.6776
37.6151
37.519
37.3854
37.2055
36.9623
36.6224
36.1235
35.3724
37.7086
37.6776
37.6151
37.5191
37.3854
37.2056
36.9624
36.6224
36.1236
35.3725
33.3388
33.3152
33.2682
33.198
33.1044
32.9858
32.8384
32.6564
32.4389
32.2182
33.3388
33.3151
33.2681
33.1979
33.1043
32.9857
32.8383
32.6564
32.4388
32.2182
33.3387
33.3151
33.2681
33.1979
33.1043
32.9857
32.8382
32.6563
32.4388
32.2181
33.3387
33.3151
33.268
33.1979
33.1043
32.9856
32.8382
32.6563
32.4387
32.2181
33.3387
33.315
33.268
33.1978
33.1042
32.9856
32.8382
32.6563
32.4387
32.218
33.3387
33.315
33.268
33.1978
33.1042
32.9856
32.8382
32.6563
32.4387
32.218
33.3387
33.3151
33.268
33.1979
33.1043
32.9856
32.8382
32.6563
32.4387
32.2181
33.3387
33.3151
33.268
33.1979
33.1043
32.9857
32.8382
32.6563
32.4388
32.2181
33.3388
33.3151
33.2681
33.1979
33.1043
32.9857
32.8383
32.6564
32.4388
32.2181
33.3388
33.3152
33.2681
33.198
33.1044
32.9858
32.8383
32.6564
32.4389
32.2182
29.3454
29.3312
29.3044
29.268
29.2266
29.1869
29.1586
29.1582
29.2172
29.4027
29.3453
29.3312
29.3044
29.2679
29.2265
29.1868
29.1586
29.1581
29.2171
29.4027
29.3453
29.3311
29.3043
29.2679
29.2265
29.1868
29.1585
29.1581
29.2171
29.4026
29.3453
29.3311
29.3043
29.2679
29.2265
29.1867
29.1585
29.158
29.217
29.4026
29.3453
29.3311
29.3043
29.2679
29.2264
29.1867
29.1585
29.158
29.217
29.4026
29.3453
29.3311
29.3043
29.2679
29.2264
29.1867
29.1585
29.158
29.217
29.4025
29.3453
29.3311
29.3043
29.2679
29.2265
29.1867
29.1585
29.158
29.217
29.4026
29.3453
29.3311
29.3043
29.2679
29.2265
29.1868
29.1585
29.1581
29.2171
29.4026
29.3453
29.3311
29.3043
29.2679
29.2265
29.1868
29.1585
29.1581
29.2171
29.4027
29.3454
29.3312
29.3044
29.268
29.2266
29.1869
29.1586
29.1582
29.2172
29.4027
25.719
25.7154
25.711
25.7117
25.7271
25.7711
25.8643
26.0368
26.3333
26.8217
25.7189
25.7153
25.7109
25.7117
25.727
25.771
25.8643
26.0367
26.3333
26.8216
25.7189
25.7153
25.7109
25.7116
25.727
25.771
25.8642
26.0367
26.3332
26.8215
25.7189
25.7153
25.7109
25.7116
25.7269
25.771
25.8642
26.0366
26.3332
26.8215
25.7189
25.7152
25.7109
25.7116
25.7269
25.7709
25.8642
26.0366
26.3332
26.8215
25.7189
25.7152
25.7109
25.7116
25.7269
25.7709
25.8642
26.0366
26.3332
26.8215
25.7189
25.7152
25.7109
25.7116
25.7269
25.771
25.8642
26.0366
26.3332
26.8215
25.7189
25.7153
25.7109
25.7116
25.727
25.771
25.8642
26.0367
26.3332
26.8215
25.7189
25.7153
25.7109
25.7117
25.727
25.771
25.8642
26.0367
26.3333
26.8216
25.719
25.7154
25.711
25.7117
25.7271
25.7711
25.8643
26.0368
26.3333
26.8216
22.445
22.4518
22.4694
22.5061
22.5756
22.698
22.9017
23.2257
23.7203
24.4461
22.445
22.4517
22.4693
22.5061
22.5756
22.6979
22.9016
23.2256
23.7202
24.4461
22.4449
22.4517
22.4693
22.506
22.5755
22.6979
22.9016
23.2255
23.7202
24.446
22.4449
22.4517
22.4693
22.506
22.5755
22.6978
22.9016
23.2255
23.7201
24.446
22.4449
22.4517
22.4692
22.506
22.5755
22.6978
22.9016
23.2255
23.7201
24.446
22.4449
22.4517
22.4692
22.506
22.5755
22.6978
22.9016
23.2255
23.7201
24.446
22.4449
22.4517
22.4693
22.506
22.5755
22.6978
22.9016
23.2255
23.7201
24.446
22.4449
22.4517
22.4693
22.506
22.5755
22.6979
22.9016
23.2255
23.7202
24.446
22.4449
22.4517
22.4693
22.5061
22.5756
22.6979
22.9016
23.2256
23.7202
24.4461
22.445
22.4518
22.4694
22.5061
22.5756
22.698
22.9017
23.2257
23.7203
24.4461
19.5051
19.521
19.5576
19.6252
19.7404
19.9278
20.2224
20.671
21.3314
22.2634
19.5051
19.521
19.5576
19.6252
19.7403
19.9277
20.2223
20.6709
21.3313
22.2633
19.505
19.5209
19.5576
19.6251
19.7403
19.9277
20.2223
20.6709
21.3313
22.2632
19.505
19.5209
19.5575
19.6251
19.7402
19.9276
20.2222
20.6708
21.3313
22.2632
19.505
19.5209
19.5575
19.6251
19.7402
19.9276
20.2222
20.6708
21.3312
22.2632
19.505
19.5209
19.5575
19.6251
19.7402
19.9276
20.2222
20.6708
21.3312
22.2632
19.505
19.5209
19.5575
19.6251
19.7402
19.9276
20.2222
20.6708
21.3313
22.2632
19.505
19.5209
19.5576
19.6251
19.7403
19.9277
20.2223
20.6709
21.3313
22.2632
19.5051
19.5209
19.5576
19.6252
19.7403
19.9277
20.2223
20.6709
21.3313
22.2633
19.5051
19.521
19.5576
19.6252
19.7404
19.9278
20.2224
20.671
21.3314
22.2634
16.879
16.9018
16.9526
17.0427
17.1902
17.4227
17.7803
18.3194
19.1145
20.2476
16.879
16.9017
16.9526
17.0426
17.1901
17.4226
17.7803
18.3193
19.1144
20.2475
16.8789
16.9017
16.9526
17.0426
17.1901
17.4226
17.7802
18.3193
19.1143
20.2475
16.8789
16.9017
16.9525
17.0426
17.19
17.4226
17.7802
18.3193
19.1143
20.2474
16.8789
16.9017
16.9525
17.0425
17.19
17.4226
17.7802
18.3193
19.1143
20.2474
16.8789
16.9017
16.9525
17.0425
17.19
17.4226
17.7802
18.3193
19.1143
20.2474
16.8789
16.9017
16.9525
17.0426
17.19
17.4226
17.7802
18.3193
19.1143
20.2474
16.8789
16.9017
16.9525
17.0426
17.1901
17.4226
17.7802
18.3193
19.1144
20.2475
16.879
16.9017
16.9526
17.0426
17.1901
17.4226
17.7803
18.3194
19.1144
20.2475
16.879
16.9018
16.9526
17.0427
17.1902
17.4227
17.7803
18.3194
19.1145
20.2476
14.5457
14.5726
14.6317
14.7338
14.897
15.149
15.5317
16.1098
16.986
18.3191
14.5457
14.5726
14.6316
14.7337
14.8969
15.1489
15.5316
16.1097
16.986
18.319
14.5457
14.5726
14.6316
14.7337
14.8969
15.1489
15.5316
16.1097
16.9859
18.319
14.5456
14.5725
14.6316
14.7337
14.8969
15.1489
15.5316
16.1097
16.9859
18.319
14.5456
14.5725
14.6316
14.7337
14.8969
15.1489
15.5315
16.1096
16.9859
18.3189
14.5456
14.5725
14.6316
14.7337
14.8969
15.1489
15.5315
16.1096
16.9859
18.3189
14.5456
14.5725
14.6316
14.7337
14.8969
15.1489
15.5316
16.1097
16.9859
18.319
14.5456
14.5726
14.6316
14.7337
14.8969
15.1489
15.5316
16.1097
16.9859
18.319
14.5457
14.5726
14.6316
14.7337
14.8969
15.1489
15.5316
16.1097
16.986
18.319
14.5457
14.5726
14.6317
14.7338
14.897
15.149
15.5317
16.1098
16.986
18.3191
12.4849
12.5131
12.5741
12.6776
12.8389
13.0817
13.4418
13.9779
14.8046
16.2145
12.4848
12.513
12.5741
12.6775
12.8389
13.0817
13.4418
13.9779
14.8046
16.2145
12.4848
12.513
12.5741
12.6775
12.8388
13.0816
13.4417
13.9778
14.8046
16.2145
12.4848
12.513
12.5741
12.6775
12.8388
13.0816
13.4417
13.9778
14.8045
16.2144
12.4848
12.513
12.574
12.6775
12.8388
13.0816
13.4417
13.9778
14.8045
16.2144
12.4848
12.513
12.574
12.6775
12.8388
13.0816
13.4417
13.9778
14.8045
16.2144
12.4848
12.513
12.5741
12.6775
12.8388
13.0816
13.4417
13.9778
14.8045
16.2144
12.4848
12.513
12.5741
12.6775
12.8388
13.0817
13.4417
13.9779
14.8046
16.2145
12.4848
12.513
12.5741
12.6775
12.8389
13.0817
13.4418
13.9779
14.8046
16.2145
12.4848
12.5131
12.5741
12.6776
12.8389
13.0817
13.4418
13.9779
14.8047
16.2146
36.1689
35.3969
36.2554
38.5258
42.197
47.3936
54.3796
63.623
75.9726
93.1289
36.1688
35.3969
36.2553
38.5257
42.1969
47.3935
54.3794
63.6228
75.9724
93.1287
36.1687
35.3968
36.2552
38.5257
42.1969
47.3934
54.3793
63.6227
75.9723
93.1286
36.1687
35.3967
36.2552
38.5256
42.1968
47.3934
54.3793
63.6227
75.9723
93.1285
36.1687
35.3967
36.2552
38.5256
42.1968
47.3933
54.3792
63.6226
75.9722
93.1285
36.1687
35.3967
36.2551
38.5256
42.1968
47.3933
54.3792
63.6226
75.9722
93.1285
36.1687
35.3967
36.2552
38.5256
42.1968
47.3934
54.3793
63.6226
75.9723
93.1285
36.1687
35.3968
36.2552
38.5256
42.1968
47.3934
54.3793
63.6227
75.9723
93.1286
36.1688
35.3968
36.2552
38.5257
42.1969
47.3935
54.3794
63.6228
75.9724
93.1287
36.1688
35.3969
36.2553
38.5257
42.1969
47.3935
54.3795
63.6228
75.9725
93.1288
34.3764
34.3407
35.4663
37.7944
41.3859
46.362
52.9213
61.3549
72.0394
85.283
34.3764
34.3407
35.4662
37.7943
41.3858
46.3619
52.9212
61.3547
72.0393
85.2828
34.3763
34.3406
35.4661
37.7942
41.3857
46.3618
52.9211
61.3546
72.0392
85.2827
34.3763
34.3405
35.466
37.7941
41.3857
46.3617
52.921
61.3546
72.0391
85.2827
34.3762
34.3405
35.466
37.7941
41.3856
46.3617
52.921
61.3545
72.0391
85.2826
34.3762
34.3405
35.466
37.7941
41.3856
46.3617
52.921
61.3545
72.0391
85.2826
34.3762
34.3405
35.466
37.7941
41.3857
46.3617
52.921
61.3546
72.0391
85.2827
34.3763
34.3406
35.4661
37.7942
41.3857
46.3618
52.921
61.3546
72.0391
85.2827
34.3763
34.3406
35.4661
37.7942
41.3858
46.3618
52.9211
61.3547
72.0392
85.2828
34.3764
34.3407
35.4662
37.7943
41.3859
46.3619
52.9212
61.3548
72.0393
85.2829
32.1529
32.6997
34.0973
36.4677
39.9027
44.5026
50.3853
57.6711
66.4179
76.436
32.1528
32.6997
34.0972
36.4675
39.9026
44.5025
50.3851
57.671
66.4178
76.4359
32.1527
32.6996
34.0971
36.4675
39.9025
44.5024
50.385
57.6709
66.4177
76.4358
32.1527
32.6995
34.0971
36.4674
39.9025
44.5023
50.385
57.6708
66.4176
76.4357
32.1526
32.6995
34.0971
36.4674
39.9025
44.5023
50.3849
57.6708
66.4176
76.4357
32.1526
32.6995
34.0971
36.4674
39.9025
44.5023
50.3849
57.6708
66.4176
76.4357
32.1527
32.6995
34.0971
36.4674
39.9025
44.5023
50.385
57.6708
66.4176
76.4357
32.1527
32.6996
34.0971
36.4674
39.9025
44.5024
50.385
57.6709
66.4176
76.4358
32.1527
32.6996
34.0972
36.4675
39.9026
44.5024
50.3851
57.671
66.4177
76.4358
32.1528
32.6997
34.0973
36.4676
39.9027
44.5026
50.3852
57.6711
66.4179
76.436
29.8514
30.7855
32.377
34.7415
37.9633
42.1111
47.2371
53.3557
60.3894
68.0697
29.8513
30.7854
32.3769
34.7414
37.9632
42.111
47.237
53.3556
60.3892
68.0696
29.8512
30.7854
32.3768
34.7413
37.9631
42.1109
47.2369
53.3555
60.3891
68.0695
29.8512
30.7853
32.3768
34.7413
37.9631
42.1108
47.2368
53.3554
60.3891
68.0694
29.8512
30.7853
32.3767
34.7412
37.9631
42.1108
47.2368
53.3554
60.389
68.0694
29.8512
30.7853
32.3767
34.7412
37.9631
42.1108
47.2368
53.3554
60.389
68.0694
29.8512
30.7853
32.3767
34.7412
37.9631
42.1108
47.2368
53.3554
60.3891
68.0694
29.8512
30.7853
32.3768
34.7413
37.9631
42.1109
47.2369
53.3555
60.3891
68.0695
29.8513
30.7854
32.3769
34.7414
37.9632
42.1109
47.2369
53.3556
60.3892
68.0696
29.8513
30.7855
32.3769
34.7415
37.9633
42.111
47.237
53.3557
60.3893
68.0697
27.5996
28.7899
30.5017
32.8186
35.8008
39.4851
43.8794
48.9454
54.5686
60.5212
27.5996
28.7898
30.5016
32.8185
35.8007
39.485
43.8793
48.9453
54.5684
60.521
27.5995
28.7898
30.5015
32.8185
35.8006
39.4849
43.8792
48.9452
54.5684
60.521
27.5995
28.7897
30.5014
32.8184
35.8005
39.4849
43.8792
48.9451
54.5683
60.5209
27.5994
28.7897
30.5014
32.8184
35.8005
39.4848
43.8792
48.9451
54.5683
60.5209
27.5994
28.7897
30.5014
32.8184
35.8005
39.4848
43.8792
48.9451
54.5683
60.5209
27.5994
28.7897
30.5014
32.8184
35.8005
39.4848
43.8792
48.9451
54.5683
60.5209
27.5995
28.7898
30.5015
32.8184
35.8006
39.4849
43.8792
48.9452
54.5683
60.5209
27.5995
28.7898
30.5015
32.8185
35.8006
39.485
43.8793
48.9453
54.5684
60.521
27.5996
28.7899
30.5016
32.8186
35.8007
39.4851
43.8794
48.9454
54.5686
60.5212
25.4676
26.8445
28.6338
30.8849
33.6314
36.8844
40.6235
44.7867
49.2598
53.8719
25.4676
26.8444
28.6337
30.8848
33.6313
36.8843
40.6234
44.7866
49.2597
53.8718
25.4675
26.8443
28.6337
30.8847
33.6312
36.8842
40.6233
44.7865
49.2596
53.8717
25.4675
26.8443
28.6336
30.8847
33.6312
36.8841
40.6232
44.7865
49.2595
53.8716
25.4674
26.8443
28.6336
30.8846
33.6311
36.8841
40.6232
44.7864
49.2595
53.8716
25.4674
26.8443
28.6336
30.8846
33.6311
36.8841
40.6232
44.7864
49.2595
53.8716
25.4675
26.8443
28.6336
30.8847
33.6312
36.8841
40.6232
44.7865
49.2595
53.8716
25.4675
26.8443
28.6337
30.8847
33.6312
36.8842
40.6233
44.7865
49.2596
53.8717
25.4675
26.8444
28.6337
30.8848
33.6313
36.8843
40.6234
44.7866
49.2597
53.8718
25.4676
26.8445
28.6338
30.8849
33.6314
36.8844
40.6235
44.7867
49.2598
53.8719
23.5055
25.0513
26.9099
29.1023
31.6425
34.5232
37.7055
41.114
44.6383
48.1495
23.5054
25.0512
26.9098
29.1022
31.6424
34.5231
37.7054
41.1139
44.6382
48.1494
23.5054
25.0511
26.9098
29.1021
31.6424
34.523
37.7054
41.1138
44.6381
48.1493
23.5053
25.0511
26.9097
29.1021
31.6423
34.523
37.7053
41.1138
44.6381
48.1493
23.5053
25.0511
26.9097
29.1021
31.6423
34.5229
37.7053
41.1138
44.6381
48.1492
23.5053
25.0511
26.9097
29.1021
31.6423
34.5229
37.7053
41.1138
44.6381
48.1492
23.5053
25.0511
26.9097
29.1021
31.6423
34.523
37.7053
41.1138
44.6381
48.1493
23.5054
25.0511
26.9098
29.1021
31.6424
34.523
37.7054
41.1139
44.6381
48.1493
23.5054
25.0512
26.9098
29.1022
31.6424
34.5231
37.7054
41.1139
44.6382
48.1494
23.5055
25.0513
26.9099
29.1023
31.6425
34.5232
37.7055
41.1141
44.6384
48.1496
21.755
23.5011
25.4497
27.6105
29.9916
32.5764
35.3124
38.108
40.84
43.3856
21.755
23.501
25.4496
27.6104
29.9915
32.5763
35.3123
38.1078
40.8398
43.3855
21.7549
23.501
25.4496
27.6103
29.9914
32.5762
35.3122
38.1078
40.8398
43.3854
21.7549
23.501
25.4495
27.6103
29.9913
32.5761
35.3121
38.1077
40.8397
43.3854
21.7549
23.5009
25.4495
27.6102
29.9913
32.5761
35.3121
38.1077
40.8397
43.3853
21.7549
23.5009
25.4495
27.6102
29.9913
32.5761
35.3121
38.1077
40.8397
43.3853
21.7549
23.501
25.4495
27.6103
29.9914
32.5761
35.3121
38.1077
40.8397
43.3854
21.7549
23.501
25.4496
27.6103
29.9914
32.5762
35.3122
38.1078
40.8398
43.3854
21.755
23.5011
25.4497
27.6104
29.9915
32.5763
35.3123
38.1079
40.8399
43.3855
21.755
23.5011
25.4497
27.6105
29.9916
32.5764
35.3124
38.108
40.84
43.3857
20.2689
22.2946
24.3665
26.5291
28.8073
31.1855
33.6002
35.9352
38.0219
39.6643
20.2688
22.2945
24.3665
26.529
28.8072
31.1854
33.6001
35.9351
38.0218
39.6642
20.2687
22.2945
24.3664
26.529
28.8071
31.1854
33.6
35.935
38.0217
39.6641
20.2687
22.2944
24.3664
26.5289
28.8071
31.1853
33.6
35.9349
38.0217
39.664
20.2687
22.2944
24.3664
26.5289
28.8071
31.1853
33.6
35.9349
38.0216
39.664
20.2687
22.2944
24.3664
26.5289
28.8071
31.1853
33.6
35.9349
38.0216
39.664
20.2687
22.2944
24.3664
26.5289
28.8071
31.1853
33.6
35.935
38.0217
39.664
20.2687
22.2945
24.3664
26.529
28.8072
31.1854
33.6001
35.935
38.0217
39.6641
20.2688
22.2945
24.3665
26.529
28.8072
31.1855
33.6002
35.9351
38.0218
39.6642
20.2689
22.2946
24.3666
26.5291
28.8073
31.1856
33.6003
35.9352
38.0219
39.6643
19.1954
21.5784
23.7747
25.9567
28.1873
30.4588
32.7004
34.7701
36.4284
37.2645
19.1954
21.5783
23.7746
25.9566
28.1873
30.4588
32.7003
34.7701
36.4283
37.2644
19.1953
21.5782
23.7746
25.9566
28.1872
30.4587
32.7002
34.77
36.4282
37.2643
19.1953
21.5782
23.7746
25.9565
28.1872
30.4586
32.7002
34.7699
36.4282
37.2643
19.1953
21.5782
23.7745
25.9565
28.1871
30.4586
32.7002
34.7699
36.4282
37.2643
19.1953
21.5782
23.7745
25.9565
28.1871
30.4586
32.7002
34.7699
36.4282
37.2643
19.1953
21.5782
23.7746
25.9566
28.1872
30.4587
32.7002
34.77
36.4282
37.2643
19.1953
21.5783
23.7746
25.9566
28.1872
30.4587
32.7003
34.77
36.4283
37.2644
19.1954
21.5783
23.7747
25.9567
28.1873
30.4588
32.7003
34.7701
36.4283
37.2645
19.1954
21.5784
23.7748
25.9568
28.1874
30.4589
32.7005
34.7702
36.4285
37.2646
119.035
131.374
138.951
144.265
148.203
151.163
153.36
154.921
155.923
156.413
119.035
131.373
138.951
144.264
148.202
151.163
153.36
154.92
155.923
156.413
119.034
131.373
138.951
144.264
148.202
151.163
153.36
154.92
155.923
156.413
119.034
131.373
138.95
144.264
148.202
151.163
153.36
154.92
155.923
156.413
119.034
131.373
138.95
144.264
148.202
151.163
153.36
154.92
155.923
156.413
119.034
131.373
138.95
144.264
148.202
151.163
153.36
154.92
155.923
156.413
119.034
131.373
138.95
144.264
148.202
151.163
153.36
154.92
155.923
156.413
119.034
131.373
138.951
144.264
148.202
151.163
153.36
154.92
155.923
156.413
119.034
131.373
138.951
144.264
148.202
151.163
153.36
154.92
155.923
156.413
119.035
131.374
138.951
144.264
148.203
151.163
153.36
154.921
155.923
156.414
100.43
111.46
119.268
124.944
129.162
132.318
134.647
136.293
137.348
137.863
100.429
111.46
119.268
124.943
129.162
132.318
134.647
136.293
137.347
137.862
100.429
111.459
119.268
124.943
129.162
132.318
134.647
136.293
137.347
137.862
100.429
111.459
119.268
124.943
129.162
132.318
134.646
136.293
137.347
137.862
100.429
111.459
119.268
124.943
129.162
132.318
134.646
136.293
137.347
137.862
100.429
111.459
119.268
124.943
129.162
132.318
134.646
136.293
137.347
137.862
100.429
111.459
119.268
124.943
129.162
132.318
134.646
136.293
137.347
137.862
100.429
111.459
119.268
124.943
129.162
132.318
134.647
136.293
137.347
137.862
100.429
111.46
119.268
124.943
129.162
132.318
134.647
136.293
137.348
137.863
100.43
111.46
119.268
124.944
129.162
132.318
134.647
136.293
137.348
137.863
86.8693
95.7175
102.689
108.065
112.185
115.314
117.639
119.29
120.348
120.866
86.8692
95.7174
102.689
108.065
112.185
115.314
117.639
119.29
120.348
120.866
86.8691
95.7172
102.688
108.065
112.185
115.313
117.639
119.289
120.348
120.866
86.869
95.7172
102.688
108.065
112.185
115.313
117.639
119.289
120.348
120.866
86.869
95.7171
102.688
108.065
112.185
115.313
117.639
119.289
120.348
120.866
86.869
95.7171
102.688
108.065
112.185
115.313
117.639
119.289
120.348
120.866
86.869
95.7172
102.688
108.065
112.185
115.313
117.639
119.289
120.348
120.866
86.8691
95.7172
102.688
108.065
112.185
115.313
117.639
119.289
120.348
120.866
86.8692
95.7173
102.689
108.065
112.185
115.314
117.639
119.29
120.348
120.866
86.8693
95.7175
102.689
108.065
112.185
115.314
117.639
119.29
120.348
120.866
75.8178
82.7999
88.672
93.4309
97.2017
100.128
102.334
103.912
104.931
105.43
75.8177
82.7997
88.6718
93.4308
97.2015
100.128
102.334
103.912
104.93
105.43
75.8176
82.7996
88.6717
93.4307
97.2014
100.128
102.333
103.912
104.93
105.429
75.8175
82.7995
88.6717
93.4306
97.2013
100.128
102.333
103.912
104.93
105.429
75.8175
82.7995
88.6716
93.4306
97.2013
100.128
102.333
103.912
104.93
105.429
75.8175
82.7995
88.6716
93.4306
97.2013
100.128
102.333
103.912
104.93
105.429
75.8175
82.7995
88.6717
93.4306
97.2014
100.128
102.333
103.912
104.93
105.429
75.8176
82.7996
88.6717
93.4307
97.2014
100.128
102.333
103.912
104.93
105.429
75.8177
82.7997
88.6718
93.4308
97.2015
100.128
102.334
103.912
104.93
105.43
75.8178
82.7998
88.672
93.4309
97.2017
100.128
102.334
103.913
104.931
105.43
66.4454
71.9294
76.7271
80.7618
84.0557
86.67
88.6724
90.1217
91.0631
91.5264
66.4453
71.9293
76.7269
80.7617
84.0556
86.6699
88.6722
90.1215
91.0629
91.5263
66.4452
71.9292
76.7268
80.7616
84.0555
86.6698
88.6721
90.1214
91.0628
91.5262
66.4451
71.9291
76.7268
80.7615
84.0554
86.6697
88.6721
90.1214
91.0628
91.5262
66.4451
71.9291
76.7267
80.7615
84.0554
86.6697
88.672
90.1213
91.0628
91.5261
66.4451
71.9291
76.7267
80.7615
84.0554
86.6697
88.672
90.1214
91.0628
91.5262
66.4451
71.9291
76.7268
80.7615
84.0554
86.6697
88.6721
90.1214
91.0628
91.5262
66.4452
71.9292
76.7268
80.7616
84.0555
86.6698
88.6721
90.1215
91.0629
91.5263
66.4453
71.9293
76.7269
80.7617
84.0556
86.6699
88.6723
90.1216
91.063
91.5264
66.4454
71.9294
76.7271
80.7619
84.0557
86.6701
88.6724
90.1218
91.0632
91.5266
58.4105
62.6657
66.486
69.7925
72.5637
74.8115
76.5622
77.845
78.6852
79.1008
58.4103
62.6656
66.4859
69.7924
72.5636
74.8113
76.562
77.8449
78.6851
79.1007
58.4102
62.6655
66.4858
69.7923
72.5635
74.8112
76.5619
77.8448
78.685
79.1006
58.4102
62.6654
66.4857
69.7922
72.5634
74.8112
76.5619
77.8447
78.685
79.1005
58.4101
62.6654
66.4857
69.7922
72.5634
74.8111
76.5618
77.8447
78.6849
79.1005
58.4101
62.6654
66.4857
69.7922
72.5634
74.8111
76.5618
77.8447
78.685
79.1005
58.4102
62.6654
66.4857
69.7922
72.5635
74.8112
76.5619
77.8448
78.685
79.1006
58.4102
62.6655
66.4858
69.7923
72.5635
74.8112
76.562
77.8448
78.6851
79.1007
58.4103
62.6656
66.4859
69.7924
72.5636
74.8114
76.5621
77.845
78.6852
79.1008
58.4105
62.6657
66.486
69.7926
72.5638
74.8115
76.5622
77.8451
78.6853
79.1009
51.5358
54.7352
57.6754
60.2918
62.5429
64.4097
65.8896
66.9884
67.7146
68.0757
51.5357
54.7351
57.6753
60.2917
62.5427
64.4096
65.8895
66.9883
67.7145
68.0756
51.5356
54.735
57.6752
60.2916
62.5426
64.4095
65.8894
66.9882
67.7144
68.0755
51.5356
54.7349
57.6751
60.2916
62.5426
64.4094
65.8893
66.9881
67.7144
68.0755
51.5355
54.7349
57.6751
60.2915
62.5426
64.4094
65.8893
66.9881
67.7143
68.0754
51.5355
54.7349
57.6751
60.2915
62.5426
64.4094
65.8893
66.9881
67.7144
68.0754
51.5356
54.7349
57.6751
60.2916
62.5426
64.4094
65.8894
66.9882
67.7144
68.0755
51.5356
54.735
57.6752
60.2916
62.5427
64.4095
65.8894
66.9883
67.7145
68.0756
51.5357
54.7351
57.6753
60.2917
62.5428
64.4096
65.8895
66.9884
67.7146
68.0757
51.5359
54.7352
57.6754
60.2919
62.5429
64.4098
65.8897
66.9885
67.7147
68.0758
45.7019
47.9353
50.0758
52.0581
53.8205
55.3201
56.5324
57.4455
58.055