/*--------------------------------*- C++ -*----------------------------------*\
  =========                 |
  \\      /  F ield         | OpenFOAM: The Open Source CFD Toolbox
   \\    /   O peration     | Website:  https://openfoam.org
    \\  /    A nd           | Version:  6
     \\/     M anipulation  |
\*---------------------------------------------------------------------------*/
FoamFile
{
    version     2.0;
    format      ascii;
    class       volVectorField;
    location    "1600";
    object      U;
}
// * * * * * * * * * * * * * * * * * * * * * * * * * * * * * * * * * * * * * //

dimensions      [0 1 -1 0 0 0 0];

internalField   nonuniform List<vector> 
7000
(
(0.000593078 0.000604163 0.997864)
(0.000745007 0.000605151 0.999401)
(0.000200337 0.000604709 0.998938)
(6.50709e-05 0.000604637 0.998938)
(3.08155e-07 0.000604532 0.998941)
(-6.29191e-05 0.000604363 0.99894)
(-0.000121319 0.000604133 0.998937)
(-0.000246744 0.000603907 0.998936)
(-0.000789754 0.00060407 0.999409)
(-0.000617233 0.00060276 0.997853)
(0.000594082 0.000765961 0.99941)
(0.000745291 0.000766275 1.00095)
(0.000199992 0.000766151 1.00049)
(6.48181e-05 0.00076592 1.00049)
(4.49538e-08 0.000765699 1.00049)
(-6.32728e-05 0.000765411 1.00049)
(-0.000121646 0.000765069 1.00048)
(-0.00024694 0.000764808 1.00048)
(-0.000790563 0.000764448 1.00096)
(-0.000618497 0.000763635 0.999398)
(0.000593669 0.000223234 0.998943)
(0.0007452 0.000223019 1.00048)
(0.000199922 0.000223001 1.00002)
(6.46659e-05 0.00022288 1.00002)
(-1.69475e-07 0.000222725 1.00002)
(-6.3542e-05 0.000222539 1.00002)
(-0.000121934 0.000222336 1.00002)
(-0.000247268 0.000222144 1.00002)
(-0.000790881 0.000221848 1.00049)
(-0.000618299 0.000221773 0.998932)
(0.000593695 9.41074e-05 0.998944)
(0.000745112 9.41227e-05 1.00048)
(0.000199847 9.41392e-05 1.00002)
(6.45625e-05 9.41049e-05 1.00002)
(-2.91761e-07 9.40653e-05 1.00002)
(-6.36784e-05 9.40149e-05 1.00002)
(-0.000122074 9.39561e-05 1.00002)
(-0.00024743 9.38861e-05 1.00002)
(-0.000791003 9.37361e-05 1.00049)
(-0.000618413 9.37144e-05 0.998932)
(0.00059377 3.38825e-05 0.998947)
(0.000745184 3.405e-05 1.00048)
(0.000199876 3.4143e-05 1.00002)
(6.45925e-05 3.42386e-05 1.00002)
(-2.58134e-07 3.43601e-05 1.00002)
(-6.36504e-05 3.44886e-05 1.00002)
(-0.000122062 3.46124e-05 1.00002)
(-0.000247457 3.47022e-05 1.00002)
(-0.000791009 3.47302e-05 1.00049)
(-0.000618411 3.49064e-05 0.998936)
(0.000593867 -2.81212e-05 0.998947)
(0.000745346 -2.78948e-05 1.00048)
(0.000200023 -2.77367e-05 1.00002)
(6.47796e-05 -2.75168e-05 1.00002)
(-4.09573e-08 -2.72428e-05 1.00003)
(-6.34251e-05 -2.6943e-05 1.00002)
(-0.000121859 -2.6643e-05 1.00002)
(-0.000247298 -2.63896e-05 1.00002)
(-0.000790781 -2.61581e-05 1.00049)
(-0.000618249 -2.57194e-05 0.998936)
(0.000593975 -8.9035e-05 0.998944)
(0.000745573 -8.87153e-05 1.00048)
(0.000200261 -8.85291e-05 1.00002)
(6.50866e-05 -8.82425e-05 1.00002)
(3.15534e-07 -8.78882e-05 1.00002)
(-6.30506e-05 -8.75003e-05 1.00002)
(-0.000121508 -8.71116e-05 1.00002)
(-0.00024698 -8.67693e-05 1.00002)
(-0.000790361 -8.64075e-05 1.00049)
(-0.000617963 -8.58758e-05 0.998934)
(0.000594089 -0.000219255 0.998943)
(0.000745882 -0.00021881 1.00048)
(0.00020052 -0.000218664 1.00002)
(6.542e-05 -0.000218384 1.00002)
(7.00287e-07 -0.000218033 1.00002)
(-6.26485e-05 -0.00021764 1.00002)
(-0.000121128 -0.000217247 1.00002)
(-0.000246619 -0.000216898 1.00002)
(-0.000789942 -0.000216451 1.00049)
(-0.000617638 -0.000216036 0.998934)
(0.000594586 -0.000762081 0.999409)
(0.000746101 -0.000762135 1.00095)
(0.00020069 -0.000761883 1.00049)
(6.56985e-05 -0.000761492 1.00049)
(1.05658e-06 -0.000761082 1.00049)
(-6.22473e-05 -0.000760609 1.00049)
(-0.000120732 -0.000760127 1.00048)
(-0.000246178 -0.000759753 1.00048)
(-0.000789455 -0.000759314 1.00096)
(-0.000617729 -0.000758267 0.999399)
(0.000593756 -0.000601982 0.997866)
(0.000746073 -0.000602796 0.999404)
(0.000201225 -0.000602269 0.998941)
(6.61828e-05 -0.000602093 0.998941)
(1.56683e-06 -0.000601866 0.998944)
(-6.16806e-05 -0.000601582 0.998944)
(-0.000120237 -0.000601268 0.998941)
(-0.000245878 -0.000600974 0.99894)
(-0.000788506 -0.000601121 0.999412)
(-0.000616356 -0.000599697 0.997857)
(0.00143793 0.00147611 0.994373)
(0.00167349 0.00148176 0.999167)
(0.000376545 0.00147858 0.997324)
(0.000194601 0.00147869 0.99731)
(-3.15698e-07 0.00147822 0.997296)
(-0.000201881 0.00147755 0.997291)
(-0.000378677 0.00147673 0.997294)
(-0.000526131 0.00147544 0.997296)
(-0.00182976 0.0014778 0.999214)
(-0.00152974 0.00147047 0.994256)
(0.00144363 0.0017398 0.999236)
(0.00167534 0.00174182 1.00404)
(0.000375361 0.00174029 1.00219)
(0.000193855 0.00173954 1.00218)
(-1.45464e-06 0.00173864 1.00216)
(-0.000203446 0.00173751 1.00216)
(-0.000380453 0.00173628 1.00216)
(-0.000527115 0.00173521 1.00216)
(-0.00183426 0.00173525 1.00408)
(-0.0015371 0.00173104 0.999106)
(0.00144053 0.000444896 0.997359)
(0.00167391 0.000444181 1.00216)
(0.00037497 0.000443916 1.00031)
(0.00019314 0.000443159 1.0003)
(-2.32501e-06 0.000442356 1.00028)
(-0.000204399 0.000441507 1.00028)
(-0.000381328 0.000440734 1.00028)
(-0.000528075 0.000440133 1.00028)
(-0.00183419 0.000439181 1.0022)
(-0.00153473 0.000438761 0.99723)
(0.00144099 0.000283877 0.99735)
(0.00167359 0.000284062 1.00215)
(0.000374311 0.000283752 1.0003)
(0.000192344 0.000283151 1.00029)
(-3.11556e-06 0.000282566 1.00028)
(-0.000205145 0.000282 1.00027)
(-0.000381959 0.000281515 1.00027)
(-0.000528726 0.000281106 1.00027)
(-0.00183499 0.000280463 1.00219)
(-0.00153567 0.000280025 0.997218)
(0.00144112 0.000102617 0.99734)
(0.00167357 0.000102969 1.00214)
(0.000373978 0.000102874 1.0003)
(0.000191952 0.00010274 1.00028)
(-3.47836e-06 0.000102694 1.00027)
(-0.000205454 0.000102759 1.00026)
(-0.000382227 0.000102954 1.00026)
(-0.000529062 0.000103169 1.00026)
(-0.00183514 0.000103287 1.00218)
(-0.00153563 0.000104303 0.997208)
(0.00144136 -9.40835e-05 0.997341)
(0.00167382 -9.36246e-05 1.00214)
(0.000374057 -9.34959e-05 1.0003)
(0.000192165 -9.30883e-05 1.00028)
(-3.09687e-06 -9.24568e-05 1.00027)
(-0.000204888 -9.15631e-05 1.00026)
(-0.000381552 -9.04127e-05 1.00026)
(-0.000528379 -8.91567e-05 1.00026)
(-0.00183391 -8.77901e-05 1.00218)
(-0.00153474 -8.49542e-05 0.99721)
(0.00144169 -0.000275755 0.99735)
(0.00167432 -0.000275205 1.00215)
(0.000374557 -0.000274848 1.00031)
(0.000192995 -0.000273959 1.00029)
(-1.9521e-06 -0.000272768 1.00028)
(-0.000203411 -0.000271212 1.00027)
(-0.000379823 -0.000269297 1.00027)
(-0.000526484 -0.000267167 1.00027)
(-0.00183114 -0.000264654 1.00219)
(-0.00153295 -0.000260403 0.997225)
(0.00144162 -0.000438134 0.99736)
(0.00167505 -0.000436737 1.00216)
(0.000375399 -0.000436378 1.00032)
(0.00019425 -0.000435305 1.0003)
(-3.47118e-07 -0.000433878 1.00029)
(-0.000201414 -0.000432029 1.00028)
(-0.000377504 -0.000429781 1.00029)
(-0.000523823 -0.000427196 1.00029)
(-0.00182746 -0.000424065 1.0022)
(-0.00153021 -0.000420346 0.997241)
(0.00144508 -0.00173103 0.99923)
(0.00167692 -0.00173227 1.00404)
(0.00037603 -0.00173028 1.00219)
(0.000195454 -0.00172873 1.00217)
(1.33657e-06 -0.00172661 1.00216)
(-0.000199239 -0.0017239 1.00215)
(-0.000374866 -0.00172071 1.00215)
(-0.000520723 -0.00171739 1.00215)
(-0.00182501 -0.00171513 1.00407)
(-0.00153116 -0.00170832 0.999106)
(0.00143987 -0.00147017 0.994379)
(0.00167594 -0.00147539 0.999179)
(0.000378286 -0.00147182 0.997334)
(0.000197789 -0.0014713 0.997321)
(4.513e-06 -0.00146993 0.997309)
(-0.000195316 -0.00146818 0.997305)
(-0.000370656 -0.00146613 0.99731)
(-0.000517371 -0.00146366 0.997313)
(-0.00181816 -0.00146483 0.999229)
(-0.00152267 -0.00145633 0.99428)
(0.00194178 0.00201061 0.990217)
(0.00206325 0.00202235 0.998736)
(0.000340824 0.00201455 0.995522)
(0.000289898 0.00201551 0.99549)
(-2.86429e-05 0.00201444 0.995418)
(-0.000333745 0.00201312 0.995404)
(-0.00062125 0.00201159 0.995447)
(-0.000603113 0.00200823 0.995448)
(-0.00233761 0.00201463 0.998845)
(-0.00210781 0.00199866 0.989901)
(0.00195372 0.00217861 0.99891)
(0.00206762 0.00218327 1.00745)
(0.00033933 0.00217853 1.00422)
(0.000289262 0.00217772 1.00419)
(-3.08766e-05 0.00217609 1.00412)
(-0.000337208 0.00217391 1.0041)
(-0.000625971 0.00217135 1.00414)
(-0.000606083 0.00216852 1.00413)
(-0.00234779 0.00217065 1.00753)
(-0.00212357 0.00216047 0.998555)
(0.00194604 0.000459811 0.995616)
(0.00206306 0.000459386 1.00414)
(0.000338626 0.000458959 1.00092)
(0.000287937 0.000457708 1.00089)
(-3.24644e-05 0.000456509 1.00082)
(-0.000339062 0.000455064 1.0008)
(-0.000627681 0.000453515 1.00084)
(-0.000607867 0.000452382 1.00083)
(-0.00234608 0.000450681 1.00424)
(-0.00211766 0.000448169 0.995265)
(0.00194773 0.000450689 0.995596)
(0.00206316 0.000452196 1.00413)
(0.000337587 0.000451769 1.0009)
(0.000286815 0.000451105 1.00087)
(-3.35898e-05 0.00045056 1.0008)
(-0.000340294 0.000449926 1.00078)
(-0.000628815 0.000449224 1.00082)
(-0.000609058 0.000448642 1.00081)
(-0.00234854 0.000447411 1.00421)
(-0.00212056 0.000445054 0.995236)
(0.00194797 0.000157576 0.995536)
(0.00206346 0.000158781 1.00407)
(0.000337458 0.000158939 1.00084)
(0.000286718 0.000159337 1.00081)
(-3.3662e-05 0.000159978 1.00074)
(-0.000340413 0.000160773 1.00072)
(-0.000628987 0.000161678 1.00076)
(-0.00060967 0.000162549 1.00075)
(-0.00234907 0.000162592 1.00415)
(-0.00212046 0.000164238 0.995174)
(0.00194862 -0.000136975 0.995536)
(0.00206432 -0.000135752 1.00407)
(0.000338141 -0.000135106 1.00085)
(0.000287854 -0.000133645 1.00081)
(-3.21607e-05 -0.000131669 1.00074)
(-0.000338605 -0.000129155 1.00072)
(-0.000627056 -0.0001262 1.00076)
(-0.000608179 -0.000123192 1.00075)
(-0.00234672 -0.000120771 1.00415)
(-0.00211864 -0.000115045 0.995179)
(0.00194963 -0.00043145 0.995597)
(0.00206566 -0.000430747 1.00413)
(0.000339595 -0.000429565 1.00091)
(0.000290159 -0.00042717 1.00088)
(-2.91642e-05 -0.000424176 1.0008)
(-0.000334939 -0.00042042 1.00079)
(-0.000623017 -0.000415999 1.00082)
(-0.000604252 -0.000411407 1.00082)
(-0.00234127 -0.000406929 1.00422)
(-0.00211519 -0.000397684 0.995254)
(0.001949 -0.000444962 0.995618)
(0.00206698 -0.000442948 1.00415)
(0.000341818 -0.000441965 1.00093)
(0.000293259 -0.000439377 1.0009)
(-2.53871e-05 -0.000436244 1.00083)
(-0.000330411 -0.000432273 1.00081)
(-0.000618025 -0.000427534 1.00085)
(-0.00059914 -0.000422613 1.00085)
(-0.00233371 -0.000416841 1.00424)
(-0.00210907 -0.00040854 0.995296)
(0.00195723 -0.0021611 0.998897)
(0.00207231 -0.00216404 1.00744)
(0.000343251 -0.00215834 1.00421)
(0.000295888 -0.00215573 1.00418)
(-2.19819e-05 -0.00215164 1.00411)
(-0.000326132 -0.00214643 1.00409)
(-0.000613203 -0.00214035 1.00413)
(-0.000593424 -0.00213343 1.00412)
(-0.00233061 -0.00213108 1.00751)
(-0.00211238 -0.00211775 0.998564)
(0.00194655 -0.00199881 0.990236)
(0.00206993 -0.00200939 0.99877)
(0.00034681 -0.00200084 0.995551)
(0.000299508 -0.00200051 0.995522)
(-1.60694e-05 -0.00199776 0.995454)
(-0.000318575 -0.00199446 0.995445)
(-0.000604055 -0.00199081 0.995493)
(-0.000585915 -0.00198511 0.995502)
(-0.00231764 -0.00198925 0.99889)
(-0.00209609 -0.00197269 0.989978)
(0.00226177 0.00236584 0.985091)
(0.00220835 0.00238434 0.997753)
(0.000240063 0.00237072 0.993307)
(0.000346032 0.00237284 0.993266)
(-0.000100721 0.00237034 0.993124)
(-0.000446888 0.00236777 0.993095)
(-0.000850111 0.00236526 0.993178)
(-0.00063406 0.00235851 0.993161)
(-0.00262433 0.00236925 0.997937)
(-0.00251996 0.00234268 0.984461)
(0.00228084 0.00237847 0.998078)
(0.00221549 0.00238595 1.01077)
(0.00023822 0.00237677 1.0063)
(0.000345422 0.00237579 1.00626)
(-0.000105031 0.00237249 1.00611)
(-0.000453552 0.00236832 1.00607)
(-0.000859736 0.00236364 1.00615)
(-0.000641035 0.00235769 1.00611)
(-0.00264219 0.00236139 1.01091)
(-0.00254566 0.00234341 0.997358)
(0.00226738 0.000416106 0.993489)
(0.00220656 0.000416237 1.00616)
(0.00023705 0.000415576 1.0017)
(0.000342809 0.000413401 1.00166)
(-0.000108019 0.000411413 1.00151)
(-0.000456952 0.000408715 1.00147)
(-0.000862756 0.000405552 1.00155)
(-0.000644883 0.00040314 1.00152)
(-0.00263896 0.00039911 1.00631)
(-0.00253544 0.000392756 0.992776)
(0.00227086 0.000589196 0.993469)
(0.00220728 0.000592587 1.00614)
(0.000235268 0.000591654 1.00168)
(0.000341085 0.000590833 1.00164)
(-0.000109971 0.000590096 1.00149)
(-0.000459421 0.000588932 1.00146)
(-0.000865406 0.000587315 1.00153)
(-0.000647769 0.000585511 1.00149)
(-0.00264507 0.00058278 1.00629)
(-0.0025418 0.000576093 0.992736)
(0.00227081 0.000181538 0.993353)
(0.00220759 0.000183739 1.00603)
(0.000235331 0.000184065 1.00157)
(0.000341223 0.000185113 1.00153)
(-0.000109971 0.000186508 1.00138)
(-0.000459762 0.000188032 1.00134)
(-0.000866227 0.000189532 1.00141)
(-0.000649648 0.00019057 1.00137)
(-0.00264702 0.000190344 1.00616)
(-0.00254204 0.000191588 0.992609)
(0.00227196 -0.000146238 0.993353)
(0.00220918 -0.000144028 1.00603)
(0.000236767 -0.000142645 1.00157)
(0.000343524 -0.000139801 1.00153)
(-0.000107073 -0.000136058 1.00138)
(-0.000456423 -0.000131364 1.00134)
(-0.000862916 -0.000125952 1.00141)
(-0.000647196 -0.000120575 1.00138)
(-0.00264351 -0.000116336 1.00617)
(-0.00253939 -0.000106735 0.99262)
(0.00227421 -0.000556009 0.993471)
(0.0022119 -0.000555432 1.00616)
(0.000239464 -0.000552919 1.00169)
(0.000347803 -0.000548522 1.00165)
(-0.000101518 -0.000543067 1.00151)
(-0.000449641 -0.000536179 1.00147)
(-0.000855421 -0.000527992 1.00154)
(-0.000639896 -0.000519348 1.00151)
(-0.0026339 -0.000511255 1.00629)
(-0.00253362 -0.000493261 0.992772)
(0.0022726 -0.000391797 0.993492)
(0.00221378 -0.000388945 1.00618)
(0.000243672 -0.000387158 1.00171)
(0.000353405 -0.000382355 1.00168)
(-9.46665e-05 -0.000376872 1.00153)
(-0.000441307 -0.000369826 1.0015)
(-0.000846041 -0.000361276 1.00158)
(-0.000630274 -0.000351967 1.00155)
(-0.00261881 -0.000341485 1.00633)
(-0.00252148 -0.000325514 0.992839)
(0.00228715 -0.00235021 0.998054)
(0.0022242 -0.00235499 1.01077)
(0.000246185 -0.00234438 1.00629)
(0.000358263 -0.00234048 1.00625)
(-8.87282e-05 -0.00233339 1.0061)
(-0.000434032 -0.00232466 1.00606)
(-0.00083749 -0.00231439 1.00613)
(-0.000619836 -0.00230142 1.0061)
(-0.00261474 -0.00229912 1.01088)
(-0.00252758 -0.00227438 0.997387)
(0.00226986 -0.00234593 0.985125)
(0.00221983 -0.00236291 0.997815)
(0.000251054 -0.00234823 0.993361)
(0.000363347 -0.00234839 0.993327)
(-7.9034e-05 -0.00234339 0.993193)
(-0.00042116 -0.00233793 0.993174)
(-0.00082092 -0.00233206 0.993269)
(-0.000606603 -0.00232166 0.993266)
(-0.00259136 -0.00232968 0.998034)
(-0.00249911 -0.00230025 0.984615)
(0.00249263 0.00263746 0.979504)
(0.00227345 0.00266272 0.996515)
(0.000149402 0.00264261 0.990883)
(0.00037097 0.00264588 0.990826)
(-0.000216389 0.00264072 0.990625)
(-0.000554844 0.00263583 0.990576)
(-0.00108614 0.00263146 0.990676)
(-0.00070943 0.00261934 0.990639)
(-0.00286706 0.00263528 0.996812)
(-0.0028647 0.00259226 0.97843)
(0.00251908 0.0025059 0.997042)
(0.00228285 0.00251563 1.0141)
(0.000146596 0.00250147 1.00842)
(0.00036964 0.00249978 1.00837)
(-0.000224504 0.00249323 1.00815)
(-0.000566876 0.00248537 1.00809)
(-0.00110364 0.00247672 1.00817)
(-0.000721549 0.00246505 1.00809)
(-0.00289689 0.00247106 1.01431)
(-0.00290537 0.00243686 0.995784)
(0.00249923 0.000391393 0.991183)
(0.00226909 0.00039194 1.0082)
(0.000144765 0.000391019 1.00255)
(0.000364675 0.00038725 1.00249)
(-0.000230118 0.000383668 1.00228)
(-0.000573346 0.000378447 1.00221)
(-0.00110955 0.000371798 1.00229)
(-0.00072854 0.000366247 1.00223)
(-0.00289512 0.000358855 1.00843)
(-0.00289405 0.000341736 0.989937)
(0.00250488 0.000711006 0.991158)
(0.00227042 0.000716584 1.00818)
(0.000141708 0.000714673 1.00253)
(0.000361774 0.000713463 1.00247)
(-0.000233936 0.000711965 1.00225)
(-0.000578621 0.000709339 1.00219)
(-0.00111585 0.000705322 1.00226)
(-0.0007351 0.000700445 1.00219)
(-0.00290958 0.000693789 1.00839)
(-0.00290777 0.00067717 0.989861)
(0.00250412 0.000180068 0.991)
(0.00227037 0.000183384 1.00803)
(0.000141884 0.000183802 1.00237)
(0.000361912 0.00018561 1.00231)
(-0.000234349 0.000187807 1.0021)
(-0.000580049 0.000190013 1.00203)
(-0.00111854 0.000191812 1.0021)
(-0.00074079 0.000192703 1.00203)
(-0.00291591 0.00018949 1.00822)
(-0.0029095 0.00019009 0.989675)
(0.00250594 -0.000128038 0.991)
(0.0022729 -0.000124385 1.00804)
(0.000144303 -0.00012198 1.00237)
(0.000365771 -0.000117184 1.00232)
(-0.000229577 -0.00011089 1.0021)
(-0.000574665 -0.000102981 1.00203)
(-0.00111326 -9.38127e-05 1.00211)
(-0.000738072 -8.44835e-05 1.00204)
(-0.00291102 -7.85857e-05 1.00822)
(-0.00290482 -6.0363e-05 0.989695)
(0.00251015 -0.000661855 0.991159)
(0.00227777 -0.000661128 1.00821)
(0.00014874 -0.000656601 1.00254)
(0.000372971 -0.000649363 1.00249)
(-0.000220131 -0.000640177 1.00228)
(-0.000562949 -0.000628369 1.00221)
(-0.00110002 -0.000614001 1.00229)
(-0.000725117 -0.000598094 1.00223)
(-0.00289338 -0.000583698 1.00841)
(-0.00289385 -0.000549121 0.989924)
(0.00250749 -0.000356425 0.991187)
(0.00228063 -0.00035266 1.00823)
(0.000155858 -0.000349993 1.00257)
(0.000382246 -0.000341956 1.00252)
(-0.000208461 -0.000332926 1.00231)
(-0.000548402 -0.000320982 1.00225)
(-0.0010829 -0.000305844 1.00234)
(-0.000707101 -0.000289126 1.00229)
(-0.00286477 -0.00026854 1.00845)
(-0.00287146 -0.000235454 0.990049)
(0.00252861 -0.0024653 0.997003)
(0.00229618 -0.00247094 1.0141)
(0.000159639 -0.00245486 1.0084)
(0.000390515 -0.00244894 1.00835)
(-0.000198547 -0.00243714 1.00813)
(-0.000536008 -0.00242284 1.00807)
(-0.00106823 -0.00240592 1.00815)
(-0.000687222 -0.00238286 1.00808)
(-0.00285144 -0.0023738 1.01426)
(-0.00287551 -0.0023339 0.995848)
(0.00250536 -0.00260796 0.979558)
(0.00229127 -0.00263053 0.996617)
(0.000166664 -0.002609 0.990971)
(0.00039806 -0.00260948 0.990924)
(-0.000183021 -0.00260094 0.990737)
(-0.000515247 -0.00259206 0.990705)
(-0.00103999 -0.00258295 0.990826)
(-0.000661665 -0.0025648 0.990817)
(-0.00281592 -0.00257329 0.996973)
(-0.00283671 -0.00253203 0.978696)
(0.00265553 0.00284774 0.973852)
(0.00228368 0.00287959 0.995269)
(6.3537e-05 0.00285245 0.988449)
(0.000362497 0.0028564 0.988352)
(-0.000371668 0.00284695 0.988109)
(-0.000674944 0.00283796 0.988036)
(-0.00134266 0.00283004 0.98813)
(-0.000832601 0.00281067 0.988093)
(-0.00311426 0.00282783 0.995725)
(-0.00318634 0.00276777 0.972188)
(0.00268955 0.00258785 0.996052)
(0.0022949 0.00259931 1.01755)
(5.89453e-05 0.00257962 1.01065)
(0.000359071 0.00257615 1.01055)
(-0.000386297 0.00256415 1.01028)
(-0.000695682 0.00254973 1.01017)
(-0.00137142 0.00253392 1.01023)
(-0.000855507 0.00251362 1.01013)
(-0.00315907 0.00251387 1.01783)
(-0.00324128 0.00246075 0.994037)
(0.00266288 0.000382839 0.988898)
(0.00227588 0.000383686 1.01032)
(5.59009e-05 0.000382225 1.00347)
(0.000350263 0.000375958 1.00337)
(-0.000396499 0.000369435 1.0031)
(-0.00070789 0.000359396 1.003)
(-0.00138285 0.000345985 1.00306)
(-0.000871215 0.000333566 1.00297)
(-0.00316535 0.000313897 1.01066)
(-0.0032304 0.000277857 0.986901)
(0.00267089 0.000817982 0.988845)
(0.00227761 0.000825966 1.01028)
(5.0879e-05 0.00082254 1.00342)
(0.000345209 0.000820545 1.00332)
(-0.000404083 0.000817251 1.00305)
(-0.000718938 0.000811389 1.00294)
(-0.00139723 0.00080215 1.00299)
(-0.000888832 0.000789165 1.00289)
(-0.00319842 0.000771635 1.01059)
(-0.00325761 0.000734441 0.986732)
(0.00266908 0.000162965 0.988663)
(0.00227688 0.000167593 1.0101)
(5.10156e-05 0.000168094 1.00324)
(0.000344874 0.000170778 1.00314)
(-0.000405847 0.000173776 1.00287)
(-0.000723109 0.000176456 1.00275)
(-0.00140526 0.000177885 1.0028)
(-0.000903265 0.000175746 1.00269)
(-0.00321593 0.000168509 1.01037)
(-0.00326457 0.00016323 0.986476)
(0.0026718 -9.15009e-05 0.988663)
(0.00228068 -8.57244e-05 1.01011)
(5.47593e-05 -8.19703e-05 1.00325)
(0.000350873 -7.43359e-05 1.00315)
(-0.000398483 -6.42931e-05 1.00288)
(-0.00071491 -5.14786e-05 1.00277)
(-0.00139811 -3.64851e-05 1.00281)
(-0.000899462 -2.12741e-05 1.0027)
(-0.00320877 -8.51287e-06 1.01037)
(-0.00325805 2.35477e-05 0.986507)
(0.00267878 -0.000749698 0.988846)
(0.00228858 -0.000748336 1.01031)
(6.17018e-05 -0.000740987 1.00344)
(0.000362481 -0.000729664 1.00335)
(-0.000382983 -0.000714734 1.00308)
(-0.000695269 -0.000695051 1.00298)
(-0.00137504 -0.00067026 1.00304)
(-0.000874465 -0.000640565 1.00294)
(-0.00317376 -0.000610938 1.01059)
(-0.00323685 -0.000543457 0.986831)
(0.00267522 -0.000335764 0.988902)
(0.00229308 -0.000330115 1.01037)
(7.29095e-05 -0.000326081 1.0035)
(0.000377214 -0.000313398 1.00341)
(-0.000363654 -0.000298894 1.00315)
(-0.000670255 -0.000278961 1.00306)
(-0.00134348 -0.000252423 1.00313)
(-0.000838752 -0.000219556 1.00306)
(-0.00311583 -0.000179891 1.01069)
(-0.00319373 -0.000116134 0.987076)
(0.00270388 -0.0025321 0.995991)
(0.00231481 -0.00253783 1.01754)
(7.87118e-05 -0.00251576 1.01061)
(0.000390641 -0.00250653 1.01052)
(-0.000347394 -0.00248759 1.01025)
(-0.000649052 -0.0024644 1.01014)
(-0.00131585 -0.00243578 1.0102)
(-0.000800839 -0.00239428 1.01011)
(-0.00308625 -0.00237647 1.01777)
(-0.00319218 -0.00230525 0.994154)
(0.00267431 -0.00280534 0.973929)
(0.0023095 -0.00283366 0.995419)
(8.87269e-05 -0.00280482 0.988578)
(0.000402277 -0.00280506 0.988497)
(-0.000323026 -0.00279127 0.988275)
(-0.000615723 -0.00277705 0.988228)
(-0.0012694 -0.00276191 0.988357)
(-0.000760958 -0.00273219 0.988363)
(-0.00302792 -0.00274292 0.995984)
(-0.00313082 -0.00267621 0.972607)
(0.00275651 0.00300345 0.968224)
(0.00223869 0.00304119 0.994038)
(-3.38676e-05 0.0030063 0.986054)
(0.00031494 0.00300982 0.985903)
(-0.000565764 0.00299387 0.98563)
(-0.000821995 0.00297799 0.985533)
(-0.00162649 0.00296332 0.985607)
(-0.00101536 0.0029316 0.985575)
(-0.00338009 0.00295633 0.99475)
(-0.00349089 0.00286167 0.965738)
(0.00279784 0.00262494 0.995137)
(0.00225082 0.0026372 1.02106)
(-4.15158e-05 0.00261095 1.01296)
(0.000307092 0.00260382 1.0128)
(-0.000591046 0.00258316 1.01248)
(-0.000856802 0.00255767 1.01232)
(-0.00167415 0.00252883 1.01233)
(-0.0010474 0.00249105 1.01219)
(-0.00344796 0.00249395 1.02148)
(-0.00357321 0.00239005 0.992051)
(0.00276385 0.000375532 0.986688)
(0.00222574 0.000376522 1.0125)
(-4.69333e-05 0.000373769 1.00447)
(0.00029226 0.00036367 1.00431)
(-0.000608899 0.000351975 1.004)
(-0.000879485 0.000333355 1.00385)
(-0.00169788 0.00030713 1.00386)
(-0.00107401 0.000278498 1.00375)
(-0.00347535 0.00024373 1.01301)
(-0.00357942 0.000153343 0.983609)
(0.00277415 0.000907549 0.98659)
(0.00222731 0.000918085 1.01242)
(-5.49404e-05 0.000912422 1.00438)
(0.000283378 0.000908914 1.00422)
(-0.000623448 0.000902113 1.0039)
(-0.000901602 0.000889989 1.00374)
(-0.00172917 0.000870016 1.00374)
(-0.00111348 0.000840107 1.0036)
(-0.00354996 0.000798918 1.01286)
(-0.00363701 0.000708912 0.983243)
(0.00277107 0.000136364 0.986394)
(0.00222563 0.000142622 1.01223)
(-5.51743e-05 0.000143202 1.00419)
(0.00028178 0.000146891 1.00402)
(-0.000628141 0.000150691 1.0037)
(-0.000911819 0.000153452 1.00353)
(-0.00174808 0.000152766 1.00352)
(-0.00114834 0.000145439 1.00335)
(-0.00359892 0.000120365 1.01259)
(-0.00366166 0.000100076 0.982859)
(0.00277506 -4.27182e-05 0.986394)
(0.00223115 -3.38621e-05 1.01224)
(-4.95983e-05 -2.8306e-05 1.0042)
(0.000290833 -1.64856e-05 1.00404)
(-0.00061701 -7.39503e-07 1.00372)
(-0.000899648 1.98106e-05 1.00355)
(-0.00173743 4.4478e-05 1.00354)
(-0.00114802 7.15864e-05 1.00337)
(-0.00359256 8.79829e-05 1.01259)
(-0.00365116 0.000155679 0.982908)
(0.00278568 -0.000817439 0.986589)
(0.00224322 -0.000814393 1.01247)
(-3.89387e-05 -0.000803104 1.00441)
(0.000309221 -0.000785732 1.00426)
(-0.00059186 -0.000761787 1.00395)
(-0.000866558 -0.000729194 1.0038)
(-0.00169633 -0.000686132 1.00381)
(-0.00110314 -0.00063112 1.00367)
(-0.00352122 -0.000574668 1.01287)
(-0.00360152 -0.000437406 0.983403)
(0.00278194 -0.000314977 0.986688)
(0.00225072 -0.000307077 1.01257)
(-2.18891e-05 -0.000300822 1.00452)
(0.000332298 -0.000281474 1.00437)
(-0.000560122 -0.000258407 1.00407)
(-0.000823633 -0.000225373 1.00394)
(-0.00163909 -0.000178791 1.00397)
(-0.00103316 -0.000119201 1.00387)
(-0.00340824 -4.16742e-05 1.01305)
(-0.00352002 9.21809e-05 0.983905)
(0.00281822 -0.00255238 0.995046)
(0.00227893 -0.00255664 1.02105)
(-1.28756e-05 -0.00252765 1.0129)
(0.000353359 -0.002513 1.01276)
(-0.000533842 -0.0024836 1.01243)
(-0.000787134 -0.00244648 1.01228)
(-0.00159039 -0.0023988 1.0123)
(-0.000963099 -0.00232999 1.01217)
(-0.00333339 -0.00228053 1.02137)
(-0.00349399 -0.00216148 0.992283)
(0.00278377 -0.00294634 0.968329)
(0.00227525 -0.00297873 0.99425)
(1.52207e-06 -0.00294186 0.986234)
(0.000371512 -0.00294067 0.986106)
(-0.000496384 -0.00291951 0.985862)
(-0.00073547 -0.00289708 0.985804)
(-0.0015178 -0.00287258 0.985932)
(-0.00089009 -0.00282629 0.985976)
(-0.00324524 -0.0028257 0.995125)
(-0.00341728 -0.00273783 0.966426)
(0.00280746 0.00311657 0.962617)
(0.00215253 0.00315943 0.992786)
(-0.000143338 0.0031161 0.983693)
(0.000229445 0.00311749 0.983487)
(-0.000796411 0.00309208 0.983198)
(-0.00100591 0.00306527 0.983083)
(-0.001962 0.00303888 0.983128)
(-0.00126461 0.00299509 0.983111)
(-0.00375341 0.00301883 0.993906)
(-0.00383951 0.00290531 0.959021)
(0.00285584 0.00263104 0.994267)
(0.00216456 0.00264312 1.02459)
(-0.00015588 0.00260914 1.01532)
(0.000213697 0.00259569 1.0151)
(-0.000838261 0.00256194 1.01473)
(-0.00106262 0.00251867 1.01451)
(-0.00203179 0.00246756 1.01444)
(-0.00131241 0.00240955 1.01426)
(-0.00383657 0.00238604 1.02524)
(-0.00393449 0.00224099 0.989781)
(0.00281422 0.000369068 0.984548)
(0.00213262 0.000369924 1.01471)
(-0.000165259 0.000364815 1.00555)
(0.000189907 0.000349075 1.00533)
(-0.000868383 0.000328833 1.00497)
(-0.00110336 0.0002955 1.00477)
(-0.00207582 0.000245976 1.00472)
(-0.00137435 0.000186679 1.00456)
(-0.00391277 9.33023e-05 1.01552)
(-0.00396673 -8.72981e-05 0.98002)
(0.00282652 0.000981886 0.984397)
(0.00213316 0.000995027 1.01459)
(-0.000177653 0.000986237 1.00541)
(0.00017461 0.000980091 1.00519)
(-0.000895096 0.000967103 1.00482)
(-0.00114598 0.00094352 1.0046)
(-0.00214128 0.000902603 1.00451)
(-0.00146891 0.00083379 1.00429)
(-0.00408661 0.000728421 1.01529)
(-0.00408974 0.000518122 0.979289)
(0.00282209 0.000104918 0.984198)
(0.00213028 0.000113278 1.01438)
(-0.000178795 0.000113919 1.00521)
(0.000170495 0.000118768 1.00498)
(-0.000905449 0.000123225 1.00461)
(-0.00116833 0.000125169 1.00438)
(-0.00218604 0.000119044 1.00426)
(-0.00155346 9.30411e-05 1.004)
(-0.00421588 3.73002e-05 1.01497)
(-0.00416964 -3.56058e-05 0.978628)
(0.00282783 1.39619e-05 0.984196)
(0.00213814 2.70876e-05 1.0144)
(-0.000170696 3.50521e-05 1.00522)
(0.000183858 5.29065e-05 1.005)
(-0.00088887 7.71167e-05 1.00463)
(-0.00115033 0.000109752 1.00441)
(-0.00217371 0.000150683 1.00429)
(-0.00155438 0.000195698 1.00404)
(-0.00420529 0.000247284 1.01495)
(-0.00415429 0.000377299 0.978658)
(0.00284301 -0.000866301 0.984391)
(0.00215569 -0.000860277 1.01465)
(-0.000154624 -0.000843696 1.00545)
(0.000212363 -0.000817567 1.00523)
(-0.000848668 -0.000779965 1.00488)
(-0.0010947 -0.000726703 1.00468)
(-0.0021003 -0.000652146 1.00461)
(-0.00145634 -0.00054633 1.0044)
(-0.00403752 -0.000412952 1.01528)
(-0.00404627 -0.000117371 0.979447)
(0.00284002 -0.000293435 0.98454)
(0.00216787 -0.000281769 1.0148)
(-0.000129483 -0.000271991 1.00561)
(0.000247832 -0.000243276 1.0054)
(-0.000797473 -0.000207203 1.00507)
(-0.00102182 -0.000153186 1.00489)
(-0.00199294 -7.25972e-05 1.00486)
(-0.00131141 4.52198e-05 1.00474)
(-0.00378632 0.000198228 1.01554)
(-0.00387172 0.000484453 0.980418)
(0.0028849 -0.00253871 0.994133)
(0.00220403 -0.00254016 1.02456)
(-0.000115433 -0.0025033 1.01525)
(0.000279903 -0.00248047 1.01504)
(-0.000755652 -0.00243627 1.01466)
(-0.000959904 -0.00237812 1.01446)
(-0.00190202 -0.00229908 1.0144)
(-0.00118213 -0.00217933 1.01423)
(-0.00362721 -0.00209448 1.02503)
(-0.0037911 -0.00188462 0.990157)
(0.00284576 -0.00304106 0.962753)
(0.00220265 -0.00307706 0.993076)
(-9.51444e-05 -0.00303174 0.983935)
(0.000307729 -0.00302753 0.983759)
(-0.000699678 -0.00299643 0.983511)
(-0.000880983 -0.00296208 0.983452)
(-0.00178896 -0.0029222 0.983579)
(-0.00107703 -0.00285013 0.983676)
(-0.0035011 -0.00284742 0.994428)
(-0.00368119 -0.00271851 0.960138)
(0.00282169 0.0031998 0.957054)
(0.00204312 0.00324665 0.991512)
(-0.000258603 0.00319412 0.981374)
(0.000112065 0.00319097 0.98112)
(-0.00105929 0.00315239 0.980834)
(-0.00123442 0.00310912 0.980717)
(-0.00235106 0.00306443 0.980739)
(-0.00164535 0.00299809 0.980738)
(-0.00432568 0.00305608 0.993135)
(-0.00437896 0.00293655 0.95156)
(0.00287657 0.00262218 0.993444)
(0.0020534 0.00263267 1.0281)
(-0.000278847 0.00258951 1.01772)
(8.35044e-05 0.00256618 1.01744)
(-0.0011257 0.00251359 1.01701)
(-0.00132338 0.00244334 1.01672)
(-0.00245777 0.00235641 1.01656)
(-0.00168465 0.00224863 1.01633)
(-0.00434571 0.00223495 1.02909)
(-0.0044589 0.00199635 0.986955)
(0.00282711 0.000367416 0.982487)
(0.00201372 0.000367606 1.01692)
(-0.000294237 0.000358729 1.0067)
(4.7039e-05 0.000334892 1.00642)
(-0.00117442 0.000301263 1.00603)
(-0.00139386 0.000243983 1.00577)
(-0.00254953 0.000152807 1.00563)
(-0.00180227 2.08532e-05 1.00543)
(-0.00452777 -0.000156963 1.01816)
(-0.00457223 -0.000625816 0.975937)
(0.00284097 0.00104514 0.982279)
(0.00201208 0.00106081 1.01675)
(-0.000312977 0.00104777 1.00651)
(2.1422e-05 0.00103728 1.00622)
(-0.00122139 0.00101408 1.00581)
(-0.00147344 0.000970548 1.00553)
(-0.00268281 0.00089027 1.00532)
(-0.00200821 0.000748133 1.00501)
(-0.00492744 0.000519566 1.0178)
(-0.0048746 -3.52492e-05 0.974371)
(0.00283525 7.23305e-05 0.982085)
(0.00200776 8.34482e-05 1.01655)
(-0.000315865 8.40828e-05 1.0063)
(1.29086e-05 9.0259e-05 1.00601)
(-0.0012419 9.50972e-05 1.0056)
(-0.00151856 9.441e-05 1.00529)
(-0.00277281 7.69743e-05 1.00504)
(-0.00218739 2.65118e-05 1.00464)
(-0.00526965 -0.00010536 1.01735)
(-0.00508275 -0.000342576 0.972852)
(0.00284337 7.44346e-05 0.98208)
(0.00201876 9.3409e-05 1.01657)
(-0.000304317 0.000104573 1.00632)
(3.23416e-05 0.000131034 1.00603)