/*--------------------------------*- C++ -*----------------------------------*\
  =========                 |
  \\      /  F ield         | OpenFOAM: The Open Source CFD Toolbox
   \\    /   O peration     | Website:  https://openfoam.org
    \\  /    A nd           | Version:  6
     \\/     M anipulation  |
\*---------------------------------------------------------------------------*/
FoamFile
{
    version     2.0;
    format      ascii;
    class       volScalarField;
    location    "0.295";
    object      T;
}
// * * * * * * * * * * * * * * * * * * * * * * * * * * * * * * * * * * * * * //

dimensions      [0 0 0 1 0 0 0];

internalField   nonuniform List<scalar> 
7000
(
104.267
104.266
104.264
104.262
104.26
104.256
104.253
104.25
104.248
104.247
104.267
104.266
104.264
104.262
104.26
104.256
104.253
104.25
104.248
104.247
104.267
104.266
104.264
104.262
104.26
104.256
104.253
104.25
104.248
104.247
104.267
104.266
104.264
104.262
104.26
104.256
104.253
104.25
104.248
104.247
104.267
104.266
104.264
104.262
104.26
104.256
104.253
104.25
104.248
104.247
104.267
104.266
104.264
104.262
104.26
104.256
104.253
104.25
104.248
104.247
104.267
104.266
104.264
104.262
104.26
104.256
104.253
104.25
104.248
104.247
104.267
104.266
104.264
104.262
104.26
104.256
104.253
104.25
104.248
104.247
104.267
104.266
104.264
104.262
104.26
104.256
104.253
104.25
104.248
104.247
104.267
104.266
104.264
104.262
104.26
104.256
104.253
104.25
104.248
104.247
92.8971
92.8947
92.8901
92.8833
92.8747
92.8649
92.8546
92.8452
92.8378
92.8338
92.8971
92.8947
92.89
92.8833
92.8747
92.8648
92.8546
92.8451
92.8378
92.8338
92.897
92.8946
92.89
92.8832
92.8746
92.8648
92.8546
92.8451
92.8378
92.8337
92.897
92.8946
92.89
92.8832
92.8746
92.8648
92.8545
92.8451
92.8377
92.8337
92.897
92.8946
92.89
92.8832
92.8746
92.8648
92.8545
92.8451
92.8377
92.8337
92.897
92.8946
92.89
92.8832
92.8746
92.8648
92.8545
92.8451
92.8377
92.8337
92.897
92.8946
92.89
92.8832
92.8746
92.8648
92.8545
92.8451
92.8377
92.8337
92.897
92.8946
92.89
92.8832
92.8746
92.8648
92.8545
92.8451
92.8378
92.8337
92.897
92.8946
92.89
92.8832
92.8746
92.8648
92.8546
92.8451
92.8378
92.8338
92.897
92.8947
92.89
92.8833
92.8747
92.8648
92.8546
92.8452
92.8378
92.8338
81.8137
81.8094
81.801
81.7886
81.7727
81.7543
81.7349
81.7168
81.7025
81.6946
81.8136
81.8093
81.8009
81.7885
81.7726
81.7542
81.7348
81.7167
81.7024
81.6945
81.8136
81.8093
81.8008
81.7885
81.7726
81.7542
81.7348
81.7166
81.7024
81.6945
81.8135
81.8092
81.8008
81.7884
81.7726
81.7541
81.7348
81.7166
81.7023
81.6945
81.8135
81.8092
81.8008
81.7884
81.7725
81.7541
81.7347
81.7166
81.7023
81.6945
81.8135
81.8092
81.8008
81.7884
81.7725
81.7541
81.7347
81.7166
81.7023
81.6945
81.8135
81.8092
81.8008
81.7884
81.7725
81.7541
81.7348
81.7166
81.7023
81.6945
81.8135
81.8093
81.8008
81.7884
81.7726
81.7542
81.7348
81.7166
81.7024
81.6945
81.8136
81.8093
81.8009
81.7885
81.7726
81.7542
81.7348
81.7167
81.7024
81.6945
81.8136
81.8093
81.8009
81.7885
81.7727
81.7543
81.7349
81.7167
81.7025
81.6946
71.1913
71.1846
71.1714
71.1517
71.1261
71.0959
71.0634
71.0324
71.0076
70.9936
71.1912
71.1845
71.1713
71.1516
71.126
71.0958
71.0633
71.0323
71.0075
70.9936
71.1912
71.1845
71.1712
71.1515
71.1259
71.0957
71.0633
71.0323
71.0074
70.9935
71.1911
71.1844
71.1712
71.1515
71.1259
71.0957
71.0632
71.0322
71.0074
70.9935
71.1911
71.1844
71.1711
71.1514
71.1258
71.0956
71.0632
71.0322
71.0074
70.9935
71.1911
71.1844
71.1711
71.1514
71.1258
71.0956
71.0632
71.0322
71.0074
70.9935
71.1911
71.1844
71.1711
71.1515
71.1259
71.0957
71.0632
71.0322
71.0074
70.9935
71.1911
71.1844
71.1712
71.1515
71.1259
71.0957
71.0633
71.0323
71.0075
70.9935
71.1912
71.1845
71.1712
71.1515
71.126
71.0958
71.0633
71.0323
71.0075
70.9936
71.1912
71.1846
71.1713
71.1516
71.126
71.0958
71.0634
71.0324
71.0076
70.9937
61.1823
61.1725
61.153
61.1237
61.0848
61.0378
60.986
60.9351
60.8932
60.869
61.1822
61.1724
61.1529
61.1235
61.0847
61.0377
60.9859
60.935
60.8931
60.8689
61.1821
61.1723
61.1528
61.1235
61.0846
61.0376
60.9859
60.935
60.893
60.8689
61.182
61.1723
61.1528
61.1234
61.0845
61.0376
60.9858
60.9349
60.8929
60.8688
61.182
61.1723
61.1527
61.1234
61.0845
61.0375
60.9858
60.9349
60.8929
60.8688
61.182
61.1723
61.1527
61.1234
61.0845
61.0375
60.9858
60.9349
60.8929
60.8688
61.182
61.1723
61.1528
61.1234
61.0845
61.0376
60.9858
60.9349
60.893
60.8689
61.1821
61.1723
61.1528
61.1234
61.0846
61.0376
60.9859
60.935
60.893
60.8689
61.1821
61.1724
61.1529
61.1235
61.0846
61.0377
60.9859
60.935
60.8931
60.869
61.1822
61.1725
61.153
61.1236
61.0847
61.0378
60.986
60.9351
60.8932
60.8691
51.9101
51.8965
51.8691
51.8271
51.7702
51.6996
51.619
51.5366
51.4658
51.4237
51.91
51.8964
51.869
51.827
51.7701
51.6995
51.6189
51.5365
51.4657
51.4236
51.9099
51.8963
51.8689
51.8269
51.77
51.6994
51.6188
51.5364
51.4657
51.4235
51.9098
51.8962
51.8688
51.8268
51.77
51.6993
51.6188
51.5364
51.4656
51.4235
51.9098
51.8962
51.8688
51.8268
51.7699
51.6993
51.6187
51.5363
51.4656
51.4235
51.9098
51.8962
51.8688
51.8268
51.7699
51.6993
51.6187
51.5364
51.4656
51.4235
51.9098
51.8962
51.8688
51.8268
51.77
51.6994
51.6188
51.5364
51.4656
51.4235
51.9098
51.8963
51.8688
51.8269
51.77
51.6994
51.6188
51.5364
51.4657
51.4236
51.9099
51.8964
51.8689
51.8269
51.7701
51.6995
51.6189
51.5365
51.4658
51.4236
51.91
51.8965
51.869
51.8271
51.7702
51.6996
51.619
51.5366
51.4659
51.4238
43.4654
43.4473
43.4102
43.3525
43.2722
43.169
43.046
42.9136
42.7931
42.7169
43.4653
43.4472
43.4101
43.3523
43.272
43.1688
43.0459
42.9135
42.793
42.7168
43.4652
43.4471
43.41
43.3522
43.272
43.1688
43.0458
42.9134
42.7929
42.7168
43.4652
43.447
43.41
43.3522
43.2719
43.1687
43.0458
42.9134
42.7928
42.7167
43.4651
43.447
43.4099
43.3521
43.2719
43.1687
43.0457
42.9134
42.7928
42.7167
43.4651
43.447
43.4099
43.3521
43.2719
43.1687
43.0457
42.9134
42.7928
42.7167
43.4651
43.447
43.41
43.3522
43.2719
43.1687
43.0458
42.9134
42.7929
42.7167
43.4652
43.4471
43.41
43.3522
43.272
43.1688
43.0458
42.9135
42.7929
42.7168
43.4653
43.4472
43.4101
43.3523
43.2721
43.1689
43.0459
42.9136
42.793
42.7169
43.4654
43.4473
43.4102
43.3524
43.2722
43.169
43.0461
42.9137
42.7931
42.717
35.9047
35.8816
35.8335
35.7572
35.6482
35.5024
35.3194
35.1086
34.8997
34.7542
35.9046
35.8814
35.8334
35.7571
35.648
35.5022
35.3193
35.1085
34.8996
34.7541
35.9045
35.8813
35.8333
35.757
35.6479
35.5022
35.3192
35.1084
34.8995
34.7541
35.9044
35.8813
35.8333
35.7569
35.6479
35.5021
35.3192
35.1084
34.8994
34.754
35.9044
35.8812
35.8332
35.7569
35.6479
35.5021
35.3191
35.1084
34.8994
34.754
35.9044
35.8812
35.8332
35.7569
35.6479
35.5021
35.3191
35.1084
34.8994
34.754
35.9044
35.8813
35.8333
35.757
35.6479
35.5021
35.3192
35.1084
34.8995
34.754
35.9045
35.8813
35.8333
35.757
35.648
35.5022
35.3192
35.1085
34.8995
34.7541
35.9046
35.8814
35.8334
35.7571
35.6481
35.5023
35.3193
35.1086
34.8996
34.7542
35.9046
35.8815
35.8335
35.7572
35.6482
35.5024
35.3195
35.1087
34.8998
34.7543
29.2507
29.2224
29.1632
29.0672
28.926
28.7292
28.467
28.1381
27.7702
27.4678
29.2506
29.2223
29.1631
29.0671
28.9259
28.729
28.4669
28.138
27.7701
27.4678
29.2505
29.2222
29.163
29.067
28.9258
28.729
28.4668
28.1379
27.77
27.4677
29.2504
29.2222
29.1629
29.0669
28.9257
28.7289
28.4667
28.1378
27.77
27.4677
29.2504
29.2221
29.1629
29.0669
28.9257
28.7289
28.4667
28.1378
27.7699
27.4676
29.2504
29.2221
29.1629
29.0669
28.9257
28.7289
28.4667
28.1378
27.77
27.4676
29.2504
29.2222
29.1629
29.0669
28.9257
28.7289
28.4668
28.1379
27.77
27.4677
29.2505
29.2222
29.163
29.067
28.9258
28.729
28.4668
28.1379
27.7701
27.4678
29.2505
29.2223
29.1631
29.0671
28.9259
28.7291
28.4669
28.138
27.7702
27.4678
29.2506
29.2224
29.1632
29.0672
28.926
28.7292
28.4671
28.1382
27.7703
27.468
23.4951
23.4625
23.3933
23.2794
23.1074
22.8582
22.5053
22.0166
21.3719
20.6664
23.495
23.4623
23.3932
23.2792
23.1073
22.8581
22.5052
22.0165
21.3718
20.6664
23.4949
23.4623
23.3931
23.2792
23.1072
22.858
22.5051
22.0164
21.3718
20.6663
23.4949
23.4622
23.393
23.2791
23.1072
22.858
22.505
22.0164
21.3717
20.6663
23.4948
23.4622
23.393
23.2791
23.1072
22.8579
22.505
22.0164
21.3717
20.6662
23.4948
23.4622
23.393
23.2791
23.1072
22.8579
22.505
22.0164
21.3717
20.6663
23.4949
23.4622
23.393
23.2791
23.1072
22.858
22.5051
22.0164
21.3718
20.6663
23.4949
23.4623
23.3931
23.2792
23.1073
22.858
22.5051
22.0165
21.3718
20.6664
23.495
23.4623
23.3932
23.2793
23.1074
22.8581
22.5052
22.0166
21.3719
20.6664
23.4951
23.4625
23.3933
23.2794
23.1075
22.8583
22.5053
22.0167
21.372
20.6666
18.6029
18.5673
18.4914
18.365
18.1712
17.8827
17.455
16.8083
15.7715
13.8784
18.6028
18.5672
18.4912
18.3649
18.1711
17.8826
17.4549
16.8082
15.7714
13.8784
18.6027
18.5671
18.4912
18.3648
18.171
17.8825
17.4548
16.8082
15.7714
13.8783
18.6027
18.567
18.4911
18.3648
18.171
17.8824
17.4548
16.8081
15.7713
13.8783
18.6027
18.567
18.4911
18.3648
18.1709
17.8824
17.4548
16.8081
15.7713
13.8783
18.6027
18.567
18.4911
18.3648
18.171
17.8824
17.4548
16.8081
15.7713
13.8783
18.6027
18.567
18.4911
18.3648
18.171
17.8825
17.4548
16.8082
15.7714
13.8783
18.6027
18.5671
18.4912
18.3649
18.1711
17.8825
17.4549
16.8082
15.7714
13.8784
18.6028
18.5672
18.4913
18.365
18.1711
17.8826
17.455
16.8083
15.7715
13.8784
18.6029
18.5673
18.4914
18.3651
18.1713
17.8827
17.4551
16.8084
15.7716
13.8785
14.517
14.4804
14.4024
14.2723
14.0722
13.7739
13.3328
12.6764
11.6845
10.1731
14.5169
14.4803
14.4023
14.2722
14.0721
13.7738
13.3327
12.6763
11.6845
10.173
14.5169
14.4803
14.4023
14.2721
14.0721
13.7738
13.3326
12.6762
11.6844
10.173
14.5168
14.4802
14.4022
14.2721
14.072
13.7737
13.3326
12.6762
11.6844
10.1729
14.5168
14.4802
14.4022
14.2721
14.072
13.7737
13.3326
12.6762
11.6844
10.1729
14.5168
14.4802
14.4022
14.2721
14.072
13.7737
13.3326
12.6762
11.6844
10.1729
14.5168
14.4802
14.4022
14.2721
14.0721
13.7738
13.3326
12.6762
11.6844
10.173
14.5169
14.4803
14.4023
14.2722
14.0721
13.7738
13.3327
12.6763
11.6845
10.173
14.5169
14.4804
14.4024
14.2723
14.0722
13.7739
13.3327
12.6763
11.6845
10.1731
14.517
14.4805
14.4025
14.2724
14.0723
13.774
13.3329
12.6764
11.6846
10.1732
11.1642
11.1288
11.0536
10.9289
10.7388
10.4598
10.0581
9.48826
8.69655
7.64923
11.1641
11.1288
11.0536
10.9288
10.7388
10.4597
10.0581
9.48819
8.69649
7.64917
11.164
11.1287
11.0535
10.9288
10.7387
10.4597
10.058
9.48815
8.69644
7.64913
11.164
11.1287
11.0535
10.9287
10.7387
10.4596
10.058
9.48812
8.69641
7.6491
11.164
11.1286
11.0535
10.9287
10.7387
10.4596
10.058
9.48811
8.6964
7.64909
11.164
11.1287
11.0535
10.9287
10.7387
10.4596
10.058
9.48812
8.69641
7.6491
11.164
11.1287
11.0535
10.9288
10.7387
10.4597
10.058
9.48814
8.69644
7.64913
11.1641
11.1287
11.0535
10.9288
10.7387
10.4597
10.0581
9.48819
8.69649
7.64917
11.1641
11.1288
11.0536
10.9289
10.7388
10.4598
10.0581
9.48826
8.69655
7.64923
11.1642
11.1289
11.0537
10.929
10.7389
10.4599
10.0582
9.48835
8.69663
7.64931
8.46084
8.42856
8.36028
8.24815
8.07993
7.83876
7.50353
7.05173
6.46855
5.7694
8.46077
8.42849
8.36021
8.24808
8.07987
7.83869
7.50346
7.05167
6.46849
5.76935
8.46071
8.42844
8.36016
8.24803
8.07982
7.83865
7.50342
7.05163
6.46845
5.76931
8.46068
8.42841
8.36013
8.248
8.07979
7.83862
7.5034
7.05161
6.46843
5.76929
8.46067
8.42839
8.36012
8.24799
8.07978
7.83861
7.50339
7.0516
6.46842
5.76928
8.46067
8.4284
8.36013
8.248
8.07979
7.83862
7.5034
7.05161
6.46843
5.76929
8.4607
8.42842
8.36015
8.24802
8.07982
7.83865
7.50342
7.05163
6.46845
5.76931
8.46074
8.42847
8.36019
8.24807
8.07986
7.83869
7.50346
7.05168
6.46849
5.76935
8.46079
8.42852
8.36025
8.24813
8.07992
7.83875
7.50353
7.05173
6.46855
5.7694
8.46085
8.4286
8.36034
8.24821
8.08001
7.83884
7.5036
7.05181
6.46862
5.76947
6.31883
6.29084
6.23206
6.13673
5.99638
5.80038
5.53751
5.19964
4.78915
4.33133
6.31877
6.29078
6.232
6.13667
5.99632
5.80032
5.53746
5.19959
4.7891
4.33128
6.31872
6.29074
6.23196
6.13663
5.99628
5.80029
5.53742
5.19956
4.78907
4.33125
6.3187
6.29071
6.23193
6.13661
5.99626
5.80026
5.5374
5.19954
4.78905
4.33123
6.31869
6.2907
6.23192
6.1366
5.99625
5.80026
5.5374
5.19953
4.78904
4.33122
6.31869
6.29071
6.23193
6.1366
5.99626
5.80026
5.5374
5.19954
4.78905
4.33123
6.31871
6.29073
6.23195
6.13663
5.99628
5.80029
5.53743
5.19956
4.78907
4.33125
6.31875
6.29076
6.23199
6.13666
5.99632
5.80033
5.53746
5.1996
4.78911
4.33128
6.31879
6.29081
6.23204
6.13672
5.99637
5.80038
5.53751
5.19965
4.78916
4.33133
6.31885
6.29088
6.23211
6.13679
5.99644
5.80045
5.53758
5.19971
4.78922
4.33139
4.6506
4.62744
4.57917
4.50196
4.39052
4.23899
4.04266
3.801
3.52239
3.22997
4.65055
4.62739
4.57912
4.50191
4.39047
4.23895
4.04262
3.80096
3.52236
3.22993
4.65052
4.62735
4.57909
4.50188
4.39044
4.23892
4.04259
3.80093
3.52233
3.22991
4.6505
4.62733
4.57907
4.50186
4.39042
4.2389
4.04257
3.80091
3.52231
3.22989
4.65049
4.62733
4.57906
4.50185
4.39042
4.23889
4.04256
3.80091
3.52231
3.22989
4.6505
4.62733
4.57907
4.50186
4.39042
4.2389
4.04257
3.80092
3.52231
3.22989
4.65051
4.62735
4.57908
4.50188
4.39044
4.23892
4.04259
3.80093
3.52233
3.22991
4.65054
4.62738
4.57912
4.50191
4.39047
4.23895
4.04262
3.80097
3.52236
3.22994
4.65058
4.62742
4.57916
4.50196
4.39052
4.23899
4.04267
3.80101
3.5224
3.22998
4.65063
4.62748
4.57922
4.50202
4.39058
4.23905
4.04272
3.80106
3.52245
3.23003
3.37327
3.35488
3.31689
3.25697
3.17223
3.06005
2.91962
2.75409
2.57323
2.39578
3.37323
3.35484
3.31685
3.25694
3.17219
3.06002
2.91959
2.75405
2.5732
2.39575
3.37321
3.35482
3.31683
3.25691
3.17217
3.05999
2.91957
2.75403
2.57318
2.39573
3.37319
3.3548
3.31681
3.2569
3.17215
3.05998
2.91955
2.75402
2.57317
2.39572
3.37318
3.35479
3.3168
3.25689
3.17215
3.05998
2.91955
2.75402
2.57316
2.39571
3.37319
3.3548
3.31681
3.2569
3.17215
3.05998
2.91956
2.75402
2.57317
2.39572
3.3732
3.35481
3.31682
3.25691
3.17217
3.06
2.91957
2.75404
2.57318
2.39573
3.37323
3.35484
3.31685
3.25694
3.1722
3.06002
2.9196
2.75406
2.57321
2.39576
3.37326
3.35487
3.31689
3.25698
3.17223
3.06006
2.91963
2.7541
2.57324
2.39579
3.3733
3.35492
3.31694
3.25702
3.17228
3.06011
2.91968
2.75414
2.57328
2.39583
2.41149
2.39744
2.36866
2.32392
2.26196
2.18222
2.08612
1.97859
1.8698
1.77572
2.41146
2.39741
2.36863
2.32389
2.26193
2.18219
2.08609
1.97856
1.86977
1.7757
2.41144
2.39739
2.36861
2.32387
2.26191
2.18218
2.08607
1.97855
1.86976
1.77568
2.41143
2.39737
2.36859
2.32386
2.2619
2.18216
2.08606
1.97853
1.86975
1.77567
2.41142
2.39737
2.36859
2.32386
2.26189
2.18216
2.08606
1.97853
1.86974
1.77567
2.41143
2.39737
2.36859
2.32386
2.2619
2.18217
2.08606
1.97854
1.86975
1.77567
2.41144
2.39739
2.36861
2.32387
2.26191
2.18218
2.08608
1.97855
1.86976
1.77568
2.41146
2.39741
2.36863
2.3239
2.26193
2.1822
2.0861
1.97857
1.86978
1.7757
2.41148
2.39744
2.36866
2.32393
2.26196
2.18223
2.08613
1.9786
1.86981
1.77573
2.41151
2.39747
2.3687
2.32397
2.262
2.18227
2.08616
1.97863
1.86984
1.77576
1.69917
1.6888
1.66774
1.6355
1.5918
1.53731
1.47458
1.40958
1.35351
1.32448
1.69914
1.68877
1.66772
1.63548
1.59178
1.53729
1.47456
1.40956
1.35349
1.32446
1.69913
1.68876
1.6677
1.63546
1.59177
1.53727
1.47454
1.40954
1.35348
1.32445
1.69912
1.68875
1.66769
1.63545
1.59176
1.53726
1.47454
1.40953
1.35347
1.32444
1.69911
1.68874
1.66769
1.63545
1.59176
1.53726
1.47453
1.40953
1.35347
1.32444
1.69912
1.68875
1.66769
1.63545
1.59176
1.53726
1.47454
1.40954
1.35347
1.32444
1.69913
1.68876
1.6677
1.63546
1.59177
1.53728
1.47455
1.40955
1.35348
1.32445
1.69914
1.68877
1.66772
1.63548
1.59179
1.53729
1.47457
1.40956
1.3535
1.32447
1.69916
1.6888
1.66774
1.6355
1.59181
1.53732
1.47459
1.40959
1.35352
1.32449
1.69919
1.68882
1.66777
1.63553
1.59184
1.53735
1.47462
1.40961
1.35355
1.32452
1.18012
1.1727
1.15778
1.13527
1.10543
1.06943
1.03013
0.993548
0.971771
0.991767
1.1801
1.17269
1.15776
1.13525
1.10542
1.06941
1.03012
0.993532
0.971755
0.991751
1.18009
1.17268
1.15775
1.13524
1.10541
1.0694
1.03011
0.993522
0.971745
0.99174
1.18008
1.17267
1.15775
1.13523
1.1054
1.0694
1.0301
0.993516
0.971739
0.991734
1.18008
1.17267
1.15774
1.13523
1.1054
1.0694
1.0301
0.993515
0.971738
0.991732
1.18008
1.17267
1.15775
1.13523
1.1054
1.0694
1.0301
0.993518
0.971741
0.991736
1.18009
1.17268
1.15775
1.13524
1.10541
1.06941
1.03011
0.993526
0.971749
0.991744
1.1801
1.17269
1.15777
1.13526
1.10542
1.06942
1.03013
0.993539
0.971762
0.991757
1.18012
1.17271
1.15779
1.13527
1.10544
1.06944
1.03014
0.993557
0.971779
0.991775
1.18014
1.17273
1.15781
1.1353
1.10546
1.06946
1.03017
0.993579
0.971801
0.991798
9.51893
7.19401
6.09646
5.93293
6.64025
8.30419
11.1558
15.6244
22.4865
33.2605
9.51886
7.19394
6.09639
5.93285
6.64016
8.30408
11.1556
15.6243
22.4863
33.2603
9.51881
7.19389
6.09634
5.93279
6.64009
8.304
11.1555
15.6241
22.4861
33.2601
9.51878
7.19386
6.0963
5.93275
6.64004
8.30394
11.1555
15.624
22.486
33.26
9.51877
7.19384
6.09629
5.93274
6.64002
8.30391
11.1554
15.624
22.486
33.2599
9.51877
7.19385
6.09629
5.93274
6.64002
8.30391
11.1554
15.624
22.486
33.2599
9.5188
7.19387
6.09631
5.93275
6.64004
8.30393
11.1555
15.624
22.486
33.26
9.51884
7.19391
6.09634
5.93279
6.64007
8.30397
11.1555
15.6241
22.4861
33.2601
9.5189
7.19396
6.09639
5.93284
6.64013
8.30403
11.1556
15.6242
22.4862
33.2602
9.51897
7.19402
6.09645
5.93289
6.64019
8.3041
11.1557
15.6243
22.4863
33.2604
8.02373
6.47001
5.66375
5.59479
6.28325
7.82197
10.3934
14.2846
19.887
27.5788
8.02366
6.46994
5.66368
5.59471
6.28316
7.82186
10.3932
14.2844
19.8868
27.5786
8.02361
6.4699
5.66363
5.59465
6.28309
7.82178
10.3931
14.2843
19.8866
27.5784
8.02358
6.46987
5.6636
5.59462
6.28305
7.82173
10.3931
14.2843
19.8865
27.5783
8.02357
6.46985
5.66358
5.5946
6.28303
7.82171
10.393
14.2842
19.8865
27.5782
8.02358
6.46986
5.66358
5.5946
6.28303
7.8217
10.393
14.2842
19.8865
27.5782
8.0236
6.46988
5.6636
5.59462
6.28305
7.82172
10.3931
14.2842
19.8865
27.5783
8.02364
6.46992
5.66364
5.59465
6.28308
7.82177
10.3931
14.2843
19.8866
27.5784
8.0237
6.46997
5.66369
5.5947
6.28314
7.82183
10.3932
14.2844
19.8867
27.5785
8.02378
6.47004
5.66376
5.59477
6.28321
7.82192
10.3933
14.2845
19.8869
27.5787
6.43499
5.47773
4.9757
5.0134
5.65502
6.98686
9.13107
12.2368
16.4301
21.666
6.43493
5.47767
4.97564
5.01333
5.65494
6.98677
9.13095
12.2366
16.4299
21.6658
6.43489
5.47762
4.97559
5.01328
5.65488
6.98669
9.13086
12.2365
16.4298
21.6657
6.43486
5.4776
4.97556
5.01325
5.65484
6.98665
9.13081
12.2364
16.4297
21.6656
6.43485
5.47758
4.97555
5.01323
5.65482
6.98662
9.13078
12.2364
16.4297
21.6655
6.43486
5.47759
4.97555
5.01323
5.65482
6.98662
9.13078
12.2364
16.4297
21.6655
6.43488
5.47761
4.97557
5.01325
5.65484
6.98664
9.1308
12.2364
16.4297
21.6656
6.43492
5.47765
4.97561
5.01328
5.65488
6.98669
9.13085
12.2365
16.4298
21.6657
6.43498
5.4777
4.97566
5.01334
5.65493
6.98675
9.13093
12.2366
16.4299
21.6658
6.43505
5.47777
4.97572
5.01341
5.65501
6.98684
9.13103
12.2367
16.4301
21.666
5.04135
4.47011
4.19567
4.30835
4.87759
5.97229
7.66534
10.0187
13.0402
16.6002
5.0413
4.47006
4.19561
4.30829
4.87752
5.97221
7.66524
10.0186
13.04
16.6
5.04126
4.47002
4.19557
4.30824
4.87747
5.97214
7.66516
10.0185
13.0399
16.5999
5.04124
4.47
4.19554
4.30821
4.87743
5.9721
7.66511
10.0184
13.0398
16.5998
5.04123
4.46999
4.19553
4.3082
4.87741
5.97208
7.66509
10.0184
13.0398
16.5998
5.04123
4.46999
4.19554
4.3082
4.87742
5.97208
7.66509
10.0184
13.0398
16.5998
5.04125
4.47001
4.19555
4.30822
4.87743
5.9721
7.66511
10.0184
13.0398
16.5998
5.04129
4.47004
4.19559
4.30825
4.87747
5.97214
7.66516
10.0185
13.0399
16.5999
5.04134
4.47009
4.19563
4.3083
4.87752
5.9722
7.66524
10.0186
13.04
16.6001
5.0414
4.47015
4.1957
4.30837
4.8776
5.97229
7.66533
10.0187
13.0402
16.6002
3.88847
3.55863
3.43282
3.58274
4.06586
4.9314
6.21901
7.94611
10.0819
12.5114
3.88843
3.55858
3.43277
3.58268
4.06579
4.93133
6.21892
7.94601
10.0818
12.5112
3.8884
3.55855
3.43274
3.58264
4.06574
4.93127
6.21886
7.94593
10.0817
12.5111
3.88838
3.55853
3.43271
3.58262
4.06571
4.93124
6.21882
7.94588
10.0816
12.5111
3.88837
3.55852
3.43271
3.5826
4.0657
4.93122
6.2188
7.94586
10.0816
12.511
3.88837
3.55852
3.43271
3.58261
4.0657
4.93122
6.2188
7.94586
10.0816
12.511
3.88839
3.55854
3.43273
3.58262
4.06572
4.93124
6.21882
7.94589
10.0816
12.5111
3.88842
3.55857
3.43275
3.58265
4.06575
4.93128
6.21886
7.94594
10.0817
12.5112
3.88847
3.55861
3.4328
3.5827
4.0658
4.93134
6.21893
7.94602
10.0818
12.5113
3.88852
3.55867
3.43285
3.58276
4.06587
4.93141
6.21902
7.94612
10.0819
12.5114
2.96567
2.78662
2.75121
2.9107
3.30722
3.97324
4.92807
6.16931
7.65989
9.31579
2.96563
2.78658
2.75117
2.91065
3.30716
3.97318
4.92799
6.16922
7.65978
9.31567
2.96561
2.78655
2.75114
2.91061
3.30712
3.97313
4.92794
6.16916
7.65971
9.31559
2.96559
2.78654
2.75112
2.91059
3.3071
3.9731
4.9279
6.16912
7.65966
9.31554
2.96559
2.78653
2.75111
2.91058
3.30708
3.97309
4.92789
6.1691
7.65964
9.31551
2.96559
2.78653
2.75111
2.91058
3.30709
3.97309
4.92789
6.1691
7.65965
9.31552
2.96561
2.78655
2.75113
2.9106
3.3071
3.97311
4.92791
6.16913
7.65968
9.31555
2.96563
2.78657
2.75116
2.91063
3.30713
3.97314
4.92795
6.16917
7.65973
9.31562
2.96567
2.78661
2.75119
2.91067
3.30718
3.97319
4.92801
6.16924
7.65981
9.31571
2.96572
2.78666
2.75124
2.91072
3.30724
3.97326
4.92809
6.16933
7.65992
9.31584
2.24931
2.16668
2.18489
2.33923
2.65901
3.16438
3.86267
4.74308
5.77132
6.88824
2.24928
2.16665
2.18485
2.33919
2.65896
3.16433
3.8626
4.743
5.77124
6.88814
2.24925
2.16662
2.18483
2.33916
2.65892
3.16429
3.86256
4.74295
5.77118
6.88808
2.24924
2.16661
2.18481
2.33914
2.6589
3.16426
3.86253
4.74292
5.77114
6.88803
2.24924
2.1666
2.1848
2.33914
2.65889
3.16425
3.86252
4.7429
5.77112
6.88802
2.24924
2.16661
2.18481
2.33914
2.6589
3.16425
3.86252
4.74291
5.77113
6.88802
2.24925
2.16662
2.18482
2.33915
2.65891
3.16427
3.86254
4.74293
5.77115
6.88805
2.24928
2.16664
2.18484
2.33918
2.65894
3.1643
3.86257
4.74297
5.7712
6.88811
2.24931
2.16668
2.18488
2.33921
2.65898
3.16434
3.86262
4.74303
5.77127
6.88819
2.24935
2.16672
2.18492
2.33926
2.65903
3.1644
3.86269
4.74311
5.77136
6.88829
1.71485
1.69858
1.75019
1.89519
2.15451
2.54033
3.0527
3.67607
4.37744
5.10997
1.71482
1.69855
1.75016
1.89516
2.15447
2.54028
3.05264
3.67601
4.37737
5.1099
1.7148
1.69853
1.75014
1.89513
2.15444
2.54025
3.0526
3.67597
4.37732
5.10984
1.71479
1.69852
1.75012
1.89512
2.15442
2.54023
3.05258
3.67594
4.37729
5.10981
1.71479
1.69852
1.75012
1.89511
2.15441
2.54022
3.05257
3.67593
4.37728
5.1098
1.71479
1.69852
1.75012
1.89511
2.15442
2.54022
3.05257
3.67593
4.37728
5.1098
1.7148
1.69853
1.75013
1.89513
2.15443
2.54024
3.05259
3.67595
4.3773
5.10983
1.71482
1.69855
1.75015
1.89515
2.15445
2.54027
3.05262
3.67599
4.37734
5.10988
1.71485
1.69858
1.75018
1.89518
2.15449
2.54031
3.05267
3.67604
4.3774
5.10994
1.71488
1.69861
1.75022
1.89522
2.15453
2.54036
3.05272
3.67611
4.37748
5.11003
1.34284
1.37953
1.45481
1.59279
1.81121
2.11799
2.50849
2.96242
3.44127
3.89077
1.34282
1.3795
1.45478
1.59276
1.81117
2.11795
2.50845
2.96237
3.44122
3.89071
1.3428
1.37949
1.45476
1.59274
1.81115
2.11792
2.50841
2.96233
3.44118
3.89066
1.34279
1.37948
1.45475
1.59273
1.81113
2.1179
2.50839
2.96231
3.44115
3.89064
1.34279
1.37947
1.45475
1.59272
1.81113
2.1179
2.50839
2.9623
3.44114
3.89063
1.34279
1.37948
1.45475
1.59272
1.81113
2.1179
2.50839
2.9623
3.44115
3.89063
1.3428
1.37949
1.45476
1.59274
1.81114
2.11791
2.50841
2.96232
3.44117
3.89066
1.34282
1.3795
1.45478
1.59276
1.81117
2.11794
2.50843
2.96235
3.4412
3.8907
1.34284
1.37953
1.45481
1.59278
1.8112
2.11797
2.50847
2.9624
3.44126
3.89075
1.34287
1.37956
1.45484
1.59282
1.81124
2.11802
2.50852
2.96246
3.44132
3.89083
1.12963
1.21248
1.30425
1.43961
1.63771
1.90509
2.23449
2.60097
2.95438
3.20263
1.12961
1.21246
1.30423
1.43959
1.63768
1.90506
2.23446
2.60093
2.95434
3.20259
1.1296
1.21244
1.30421
1.43957
1.63766
1.90504
2.23443
2.6009
2.9543
3.20255
1.12959
1.21243
1.3042
1.43956
1.63765
1.90502
2.23441
2.60088
2.95428
3.20253
1.12959
1.21243
1.3042
1.43955
1.63764
1.90501
2.2344
2.60087
2.95427
3.20252
1.12959
1.21243
1.3042
1.43955
1.63764
1.90502
2.23441
2.60088
2.95428
3.20253
1.1296
1.21244
1.30421
1.43957
1.63766
1.90503
2.23442
2.60089
2.9543
3.20255
1.12962
1.21246
1.30423
1.43958
1.63768
1.90505
2.23445
2.60092
2.95433
3.20258
1.12964
1.21248
1.30425
1.43961
1.63771
1.90509
2.23449
2.60096
2.95438
3.20263
1.12966
1.21251
1.30428
1.43964
1.63774
1.90513
2.23453
2.60102
2.95444
3.2027
51.3673
59.2765
63.6102
66.3015
68.0696
69.2538
70.0437
70.5555
70.8616
71.0047
51.3669
59.2761
63.6097
66.301
68.0691
69.2533
70.0433
70.5551
70.8611
71.0044
51.3667
59.2758
63.6095
66.3007
68.0688
69.253
70.043
70.5548
70.8609
71.0041
51.3665
59.2756
63.6093
66.3006
68.0686
69.2528
70.0428
70.5546
70.8607
71.004
51.3665
59.2756
63.6092
66.3005
68.0686
69.2527
70.0427
70.5545
70.8607
71.0039
51.3665
59.2756
63.6092
66.3005
68.0686
69.2528
70.0428
70.5546
70.8607
71.004
51.3665
59.2756
63.6093
66.3006
68.0687
69.2529
70.0429
70.5547
70.8609
71.0041
51.3667
59.2758
63.6095
66.3008
68.0689
69.2531
70.0431
70.555
70.8611
71.0044
51.3669
59.2761
63.6098
66.3011
68.0692
69.2534
70.0435
70.5553
70.8614
71.0047
51.3671
59.2763
63.6101
66.3014
68.0696
69.2538
70.0438
70.5557
70.8618
71.0051
37.0087
43.5163
47.7411
50.5099
52.3526
53.587
54.408
54.9381
55.2542
55.4019
37.0084
43.516
47.7408
50.5095
52.3522
53.5866
54.4076
54.9377
55.2539
55.4016
37.0082
43.5158
47.7406
50.5093
52.3519
53.5864
54.4074
54.9375
55.2536
55.4014
37.0081
43.5157
47.7404
50.5091
52.3518
53.5862
54.4072
54.9373
55.2535
55.4013
37.008
43.5156
47.7403
50.509
52.3517
53.5862
54.4072
54.9373
55.2535
55.4012
37.008
43.5156
47.7403
50.5091
52.3517
53.5862
54.4072
54.9373
55.2535
55.4013
37.0081
43.5157
47.7404
50.5092
52.3519
53.5863
54.4073
54.9374
55.2536
55.4014
37.0082
43.5158
47.7406
50.5093
52.352
53.5865
54.4075
54.9376
55.2539
55.4016
37.0084
43.516
47.7408
50.5096
52.3523
53.5868
54.4078
54.938
55.2542
55.4019
37.0087
43.5163
47.7412
50.5099
52.3527
53.5872
54.4082
54.9383
55.2546
55.4023
27.382
32.079
35.5399
37.9865
39.686
40.8521
41.6381
42.1495
42.4559
42.5993
27.3818
32.0787
35.5396
37.9862
39.6857
40.8518
41.6378
42.1492
42.4556
42.599
27.3816
32.0786
35.5394
37.986
39.6855
40.8515
41.6376
42.149
42.4554
42.5989
27.3815
32.0784
35.5393
37.9859
39.6854
40.8514
41.6374
42.1489
42.4553
42.5987
27.3814
32.0784
35.5393
37.9858
39.6853
40.8514
41.6374
42.1488
42.4552
42.5987
27.3814
32.0784
35.5393
37.9859
39.6853
40.8514
41.6374
42.1489
42.4553
42.5988
27.3815
32.0785
35.5394
37.986
39.6854
40.8515
41.6375
42.149
42.4554
42.5989
27.3816
32.0786
35.5395
37.9861
39.6856
40.8517
41.6377
42.1492
42.4556
42.5991
27.3818
32.0788
35.5397
37.9863
39.6859
40.8519
41.638
42.1495
42.4559
42.5994
27.382
32.0791
35.54
37.9867
39.6862
40.8523
41.6383
42.1498
42.4562
42.5997
20.3256
23.6238
26.2575
28.2405
29.6813
30.701
31.4029
31.866
32.1459
32.2776
20.3254
23.6236
26.2572
28.2402
29.6811
30.7007
31.4026
31.8658
32.1457
32.2774
20.3253
23.6235
26.2571
28.24
29.6809
30.7005
31.4025
31.8656
32.1455
32.2773
20.3252
23.6234
26.257
28.2399
29.6808
30.7004
31.4023
31.8655
32.1454
32.2772
20.3252
23.6233
26.2569
28.2399
29.6807
30.7004
31.4023
31.8655
32.1454
32.2771
20.3252
23.6233
26.2569
28.2399
29.6807
30.7004
31.4023
31.8655
32.1454
32.2772
20.3252
23.6234
26.257
28.24
29.6808
30.7005
31.4024
31.8656
32.1455
32.2773
20.3253
23.6235
26.2571
28.2401
29.681
30.7007
31.4026
31.8658
32.1457
32.2775
20.3255
23.6237
26.2573
28.2403
29.6812
30.7009
31.4028
31.866
32.146
32.2777
20.3257
23.6239
26.2576
28.2406
29.6815
30.7012
31.4032
31.8663
32.1463
32.2781
15.013
17.3092
19.2384
20.7619
21.9135
22.7538
23.3457
23.7427
23.9854
24.1003
15.0128
17.3091
19.2382
20.7617
21.9133
22.7536
23.3455
23.7425
23.9852
24.1001
15.0127
17.3089
19.238
20.7616
21.9131
22.7534
23.3453
23.7424
23.9851
24.1
15.0126
17.3089
19.2379
20.7615
21.9131
22.7533
23.3452
23.7423
23.985
24.0999
15.0126
17.3088
19.2379
20.7615
21.913
22.7533
23.3452
23.7423
23.985
24.0999
15.0126
17.3088
19.2379
20.7615
21.913
22.7533
23.3452
23.7423
23.985
24.1
15.0127
17.3089
19.238
20.7616
21.9131
22.7534
23.3453
23.7424
23.9851
24.1001
15.0127
17.309
19.2381
20.7617
21.9133
22.7536
23.3455
23.7425
23.9852
24.1002
15.0129
17.3091
19.2383
20.7619
21.9134
22.7538
23.3457
23.7427
23.9855
24.1004
15.013
17.3093
19.2385
20.7621
21.9137
22.754
23.3459
23.743
23.9857
24.1007
11.0074
12.5914
13.9677
15.0946
15.975
16.6356
17.1114
17.4362
17.637
17.7328
11.0073
12.5913
13.9676
15.0945
15.9748
16.6354
17.1113
17.436
17.6369
17.7327
11.0072
12.5912
13.9675
15.0944
15.9747
16.6353
17.1112
17.4359
17.6368
17.7326
11.0071
12.5911
13.9674
15.0943
15.9746
16.6352
17.1111
17.4358
17.6367
17.7326
11.0071
12.5911
13.9674
15.0943
15.9746
16.6352
17.1111
17.4358
17.6367
17.7325
11.0071
12.5911
13.9674
15.0943
15.9746
16.6352
17.1111
17.4358
17.6367
17.7326
11.0072
12.5912
13.9674
15.0943
15.9747
16.6353
17.1112
17.4359
17.6368
17.7327
11.0072
12.5913
13.9675
15.0945
15.9748
16.6354
17.1113
17.436
17.6369
17.7328
11.0073
12.5914
13.9677
15.0946
15.975
16.6356
17.1115
17.4362
17.6371
17.733
11.0075
12.5915
13.9679
15.0948
15.9752
16.6358
17.1117
17.4364
17.6374
17.7332
8.01859
9.09077
10.0466
10.8528
11.5011
12.0002
12.3674
12.6222
12.7818
12.8585
8.01849
9.09065
10.0465
10.8527
11.501
12
12.3673
12.6221
12.7817
12.8584
8.01841
9.09057
10.0464
10.8526
11.5009
11.9999
12.3672
12.622
12.7816
12.8583
8.01836
9.09052
10.0463
10.8526
11.5008
11.9999
12.3671
12.622
12.7816
12.8583
8.01835
9.0905
10.0463
10.8526
11.5008
11.9999
12.3671
12.6219
12.7815
12.8582
8.01835
9.09051
10.0463
10.8526
11.5008
11.9999
12.3671
12.622
12.7816
12.8583
8.01839
9.09056
10.0464
10.8526
11.5009
11.9999
12.3672
12.622
12.7816
12.8583
8.01845
9.09063
10.0464
10.8527
11.501
12
12.3673
12.6221
12.7817
12.8585
8.01854
9.09073
10.0465
10.8528
11.5011
12.0002
12.3674
12.6223
12.7819
12.8586
8.01866
9.09086
10.0467
10.853
11.5013
12.0003
12.3676
12.6225
12.7821
12.8588
5.8295
6.52367
7.16208
7.7182
8.17861
8.54211
8.81527
9.00801
9.13015
9.18925
5.82942
6.52358
7.16199
7.7181
8.17851
8.542
8.81517
9.0079
9.13005