/*--------------------------------*- C++ -*----------------------------------*\
  =========                 |
  \\      /  F ield         | OpenFOAM: The Open Source CFD Toolbox
   \\    /   O peration     | Website:  https://openfoam.org
    \\  /    A nd           | Version:  6
     \\/     M anipulation  |
\*---------------------------------------------------------------------------*/
FoamFile
{
    version     2.0;
    format      ascii;
    class       surfaceScalarField;
    location    "1200";
    object      phi;
}
// * * * * * * * * * * * * * * * * * * * * * * * * * * * * * * * * * * * * * //

dimensions      [0 3 -1 0 0 0 0];

internalField   nonuniform List<scalar> 
19500
(
1.54522e-07
1.5801e-07
9.96875e-05
1.58033e-08
1.58224e-07
9.99805e-05
9.34232e-09
1.58369e-07
9.98481e-05
3.36944e-09
1.58503e-07
9.98476e-05
-3.34123e-09
1.58685e-07
9.98482e-05
-9.74211e-09
1.58881e-07
9.98477e-05
-1.47099e-08
1.59074e-07
9.98462e-05
-1.94529e-08
1.59262e-07
9.98457e-05
-1.60704e-07
1.5937e-07
9.99822e-05
1.59422e-07
9.96801e-05
1.54735e-07
1.80496e-08
9.99853e-05
1.58077e-08
1.80541e-08
0.000100279
9.451e-09
1.8117e-08
0.000100147
3.50431e-09
1.82122e-08
0.000100146
-3.19158e-09
1.83362e-08
0.000100147
-9.59199e-09
1.84813e-08
0.000100147
-1.45786e-08
1.86325e-08
0.000100146
-1.92908e-08
1.87714e-08
0.000100145
-1.60644e-07
1.89039e-08
0.000100282
1.90964e-08
9.998e-05
1.54879e-07
1.28133e-08
9.98504e-05
1.58704e-08
1.29232e-08
0.000100144
9.55731e-09
1.30287e-08
0.000100012
3.65285e-09
1.31791e-08
0.000100011
-3.02395e-09
1.33765e-08
0.000100012
-9.4206e-09
1.36063e-08
0.000100012
-1.44119e-08
1.38457e-08
0.00010001
-1.9161e-08
1.4067e-08
0.00010001
-1.60484e-07
1.42703e-08
0.000100146
1.44843e-08
9.98444e-05
1.55008e-07
7.67913e-09
9.98502e-05
1.59642e-08
7.81169e-09
0.000100144
9.70679e-09
7.95528e-09
0.000100011
3.85155e-09
8.14857e-09
0.000100011
-2.79406e-09
8.39892e-09
0.000100012
-9.18074e-09
8.68798e-09
0.000100012
-1.41892e-08
8.98789e-09
0.00010001
-1.89932e-08
9.26515e-09
0.00010001
-1.60178e-07
9.51281e-09
0.000100146
9.79652e-09
9.98448e-05
1.55182e-07
1.3751e-09
9.98512e-05
1.60821e-08
1.51618e-09
0.000100145
9.89567e-09
1.67086e-09
0.000100013
4.09971e-09
1.88325e-09
0.000100012
-2.50711e-09
2.1574e-09
0.000100013
-8.88116e-09
2.47355e-09
0.000100013
-1.39116e-08
2.80231e-09
0.000100011
-1.87822e-08
3.10708e-09
0.000100011
-1.59801e-07
3.38462e-09
0.000100147
3.70413e-09
9.98466e-05
1.55363e-07
-5.07382e-09
9.98511e-05
1.62138e-08
-4.93944e-09
0.000100146
1.01047e-08
-4.79115e-09
0.000100013
4.37138e-09
-4.58362e-09
0.000100012
-2.19342e-09
-4.31689e-09
0.000100013
-8.55296e-09
-4.01021e-09
0.000100013
-1.36081e-08
-3.69153e-09
0.000100012
-1.85506e-08
-3.39518e-09
0.000100012
-1.59376e-07
-3.12248e-09
0.000100148
-2.80689e-09
9.98473e-05
1.55531e-07
-1.0658e-08
9.98501e-05
1.63443e-08
-1.05481e-08
0.000100145
1.03099e-08
-1.04139e-08
0.000100012
4.6352e-09
-1.02356e-08
0.000100011
-1.88963e-09
-1.00096e-08
0.000100012
-8.23527e-09
-9.75256e-09
0.000100012
-1.33148e-08
-9.48733e-09
0.000100011
-1.83276e-08
-9.24238e-09
0.000100011
-1.58953e-07
-9.01807e-09
0.000100147
-8.7486e-09
9.98471e-05
1.55685e-07
-1.66214e-08
9.98503e-05
1.64557e-08
-1.64857e-08
0.000100145
1.04863e-08
-1.63901e-08
0.000100012
4.8591e-09
-1.62694e-08
0.000100012
-1.6328e-09
-1.61157e-08
0.000100013
-7.9671e-09
-1.59424e-08
0.000100013
-1.30693e-08
-1.57652e-08
0.000100012
-1.81366e-08
-1.55969e-08
0.000100012
-1.58604e-07
-1.54441e-08
0.000100147
-1.53289e-08
9.98481e-05
1.55758e-07
-1.55656e-07
9.99833e-05
1.65518e-08
-1.5564e-07
0.000100278
1.06309e-08
-1.55554e-07
0.000100145
5.03436e-09
-1.55369e-07
0.000100145
-1.42872e-09
-1.55147e-07
0.000100146
-7.752e-09
-1.54884e-07
0.000100145
-1.28747e-08
-1.54601e-07
0.000100144
-1.7986e-08
-1.54349e-07
0.000100144
-1.58291e-07
-1.54086e-07
0.000100279
-1.53759e-07
9.99802e-05
1.55773e-07
9.96886e-05
1.66974e-08
9.99835e-05
1.07633e-08
9.98505e-05
5.2093e-09
9.98503e-05
-1.22546e-09
9.98514e-05
-7.53311e-09
9.98516e-05
-1.26661e-08
9.98507e-05
-1.7899e-08
9.98511e-05
-1.57954e-07
9.9986e-05
9.96884e-05
2.18594e-07
2.27673e-07
9.92413e-05
6.62578e-08
2.28263e-07
9.99048e-05
3.71716e-08
2.28346e-07
9.96492e-05
1.08418e-08
2.28798e-07
9.96455e-05
-9.2793e-09
2.29295e-07
9.96397e-05
-2.85494e-08
2.29821e-07
9.96381e-05
-5.24623e-08
2.30331e-07
9.96407e-05
-7.7702e-08
2.30762e-07
9.96413e-05
-2.34095e-07
2.31338e-07
9.99082e-05
2.31702e-07
9.92152e-05
2.19169e-07
7.37804e-08
9.99201e-05
6.66228e-08
7.41481e-08
0.000100586
3.76242e-08
7.43352e-08
0.00010033
1.13515e-08
7.46197e-08
0.000100327
-8.71952e-09
7.50064e-08
0.000100322
-2.799e-08
7.54387e-08
0.000100322
-5.19758e-08
7.58777e-08
0.000100325
-7.7356e-08
7.63065e-08
0.000100326
-2.3372e-07
7.66865e-08
0.000100594
7.72122e-08
9.99016e-05
2.19247e-07
4.76948e-08
9.96575e-05
6.68069e-08
4.81503e-08
0.000100323
3.79433e-08
4.84817e-08
0.000100067
1.17415e-08
4.89255e-08
0.000100064
-8.30193e-09
4.94989e-08
0.000100058
-2.75791e-08
5.0141e-08
0.000100057
-5.15891e-08
5.07922e-08
0.00010006
-7.6978e-08
5.1404e-08
0.000100061
-2.32971e-07
5.19058e-08
0.000100328
5.27497e-08
9.96368e-05
2.19698e-07
2.34893e-08
9.96549e-05
6.71017e-08
2.3994e-08
0.000100321
3.83876e-08
2.44059e-08
0.000100065
1.23089e-08
2.49758e-08
0.000100062
-7.66717e-09
2.56973e-08
0.000100056
-2.69362e-08
2.65028e-08
0.000100056
-5.09762e-08
2.73218e-08
0.000100059
-7.6438e-08
2.8082e-08
0.00010006
-2.32185e-07
2.8721e-08
0.000100326
2.98309e-08
9.96364e-05
2.20192e-07
4.33832e-09
9.96504e-05
6.75036e-08
4.87457e-09
0.000100318
3.89661e-08
5.31691e-09
0.000100061
1.30321e-08
5.94889e-09
0.000100058
-6.86132e-09
6.74385e-09
0.000100053
-2.61184e-08
7.63319e-09
0.000100052
-5.02057e-08
8.54095e-09
0.000100055
-7.57762e-08
9.3881e-09
0.000100057
-2.31131e-07
1.01097e-08
0.000100323
1.1338e-08
9.96346e-05
2.20704e-07
-1.52737e-08
9.96502e-05
6.79508e-08
-1.47624e-08
0.000100318
3.96074e-08
-1.43415e-08
0.000100061
1.38293e-08
-1.37204e-08
0.000100058
-5.97123e-09
-1.29453e-08
0.000100053
-2.52116e-08
-1.20793e-08
0.000100053
-4.93464e-08
-1.11922e-08
0.000100057
-7.50429e-08
-1.03676e-08
0.000100058
-2.29954e-07
-9.64782e-09
0.000100323
-8.44279e-09
9.96376e-05
2.21177e-07
-4.07867e-08
9.96546e-05
6.83925e-08
-4.03914e-08
0.000100323
4.02372e-08
-4.00345e-08
0.000100066
1.46068e-08
-3.94912e-08
0.000100063
-5.10408e-09
-3.88268e-08
0.000100058
-2.43249e-08
-3.80881e-08
0.000100058
-4.85087e-08
-3.73354e-08
0.000100062
-7.43282e-08
-3.66348e-08
0.000100064
-2.28781e-07
-3.59913e-08
0.000100328
-3.4868e-08
9.96452e-05
2.21529e-07
-6.87769e-08
9.9657e-05
6.87884e-08
-6.85273e-08
0.000100326
4.07816e-08
-6.82239e-08
0.000100069
1.52652e-08
-6.78087e-08
0.000100066
-4.37396e-09
-6.73191e-08
0.000100061
-2.35826e-08
-6.67786e-08
0.000100061
-4.7806e-08
-6.62198e-08
0.000100065
-7.37248e-08
-6.56947e-08
0.000100068
-2.27677e-07
-6.52054e-08
0.000100331
-6.44306e-08
9.96502e-05
2.22023e-07
-2.21186e-07
9.9914e-05
6.90929e-08
-2.21021e-07
0.000100584
4.11606e-08
-2.20495e-07
0.000100326
1.5736e-08
-2.20063e-07
0.000100323
-3.83782e-09
-2.19458e-07
0.000100318
-2.30147e-08
-2.1874e-07
0.000100317
-4.72416e-08
-2.17956e-07
0.000100321
-7.3237e-08
-2.17142e-07
0.000100323
-2.27208e-07
-2.1683e-07
0.000100585
-2.15743e-07
9.99047e-05
2.22179e-07
9.92455e-05
6.93808e-08
9.99155e-05
4.16405e-08
9.9658e-05
1.63863e-08
9.96558e-05
-3.0861e-09
9.96519e-05
-2.22133e-08
9.96525e-05
-4.64146e-08
9.96576e-05
-7.2624e-08
9.96606e-05
-2.26116e-07
9.99232e-05
9.92465e-05
2.43979e-07
2.58864e-07
9.87384e-05
8.39719e-08
2.59919e-07
9.98049e-05
4.8555e-08
2.59695e-07
9.9425e-05
1.28282e-08
2.60549e-07
9.94211e-05
-1.65223e-08
2.61365e-07
9.94082e-05
-4.44679e-08
2.62267e-07
9.94045e-05
-7.60476e-08
2.63185e-07
9.941e-05
-1.04958e-07
2.63817e-07
9.9407e-05
-2.70959e-07
2.65198e-07
9.981e-05
2.65584e-07
9.86791e-05
2.45035e-07
9.70948e-08
9.98369e-05
8.48582e-08
9.79798e-08
0.000100908
4.94147e-08
9.82312e-08
0.000100527
1.37938e-08
9.87495e-08
0.000100525
-1.55006e-08
9.94752e-08
0.000100514
-4.3478e-08
1.0029e-07
0.000100513
-7.52245e-08
1.01127e-07
0.00010052
-1.04516e-07
1.01968e-07
0.000100519
-2.70562e-07
1.02736e-07
0.000100924
1.03512e-07
9.97938e-05
2.44789e-07
6.68276e-08
9.94431e-05
8.51026e-08
6.76866e-08
0.000100513
4.99677e-08
6.82531e-08
0.000100132
1.44667e-08
6.90568e-08
0.000100129
-1.47523e-08
7.01131e-08
0.000100118
-4.27093e-08
7.13131e-08
0.000100115
-7.45046e-08
7.25648e-08
0.000100122
-1.0375e-07
7.37738e-08
0.00010012
-2.68897e-07
7.47243e-08
0.000100523
7.63371e-08
9.93957e-05
2.45632e-07
3.48757e-08
9.94414e-05
8.56305e-08
3.5823e-08
0.000100513
5.07735e-08
3.65128e-08
0.000100132
1.55089e-08
3.75372e-08
0.000100129
-1.35582e-08
3.88556e-08
0.000100118
-4.146e-08
4.03618e-08
0.000100115
-7.32986e-08
4.19431e-08
0.000100122
-1.02674e-07
4.3458e-08
0.000100121
-2.67536e-07
4.4685e-08
0.000100522
4.68851e-08
9.93989e-05
2.46431e-07
7.44613e-09
9.94315e-05
8.63603e-08
8.4167e-09
0.000100505
5.18222e-08
9.16699e-09
0.000100123
1.68329e-08
1.03007e-08
0.00010012
-1.20485e-08
1.17481e-08
0.000100109
-3.98799e-08
1.3408e-08
0.000100108
-7.17841e-08
1.5163e-08
0.000100115
-1.01362e-07
1.68454e-08
0.000100114
-2.65498e-07
1.82185e-08
0.000100514
2.07323e-08
9.93958e-05
2.47294e-07
-2.07271e-08
9.94313e-05
8.71572e-08
-1.98342e-08
0.000100507
5.29733e-08
-1.91093e-08
0.000100124
1.82874e-08
-1.79922e-08
0.000100122
-1.03831e-08
-1.65823e-08
0.000100111
-3.81245e-08
-1.49634e-08
0.00010011
-7.00914e-08
-1.32485e-08
0.000100118
-9.98902e-08
-1.16095e-08
0.000100117
-2.6322e-07
-1.02499e-08
0.000100516
-7.73956e-09
9.94032e-05
2.48128e-07
-5.48359e-08
9.94407e-05
8.79342e-08
-5.41432e-08
0.000100518
5.40976e-08
-5.3533e-08
0.000100134
1.9706e-08
-5.25536e-08
0.000100133
-8.75641e-09
-5.13473e-08
0.000100122
-3.6407e-08
-4.99674e-08
0.000100121
-6.84298e-08
-4.8506e-08
0.00010013
-9.84386e-08
-4.71274e-08
0.00010013
-2.60983e-07
-4.5925e-08
0.000100527
-4.37202e-08
9.94203e-05
2.48648e-07
-8.82777e-08
9.9442e-05
8.86528e-08
-8.80324e-08
0.00010052
5.50827e-08
-8.74437e-08
0.000100136
2.09186e-08
-8.66879e-08
0.000100135
-7.38392e-09
-8.58036e-08
0.000100125
-3.49669e-08
-8.47917e-08
0.000100124
-6.70495e-08
-8.37153e-08
0.000100134
-9.72379e-08
-8.27101e-08
0.000100134
-2.5889e-07
-8.1979e-08
0.000100529
-8.00377e-08
9.9428e-05
2.49819e-07
-2.4836e-07
9.98246e-05
8.92424e-08
-2.48173e-07
0.000100905
5.57324e-08
-2.46947e-07
0.000100519
2.17467e-08
-2.46293e-07
0.000100517
-6.43151e-09
-2.45219e-07
0.000100506
-3.39523e-08
-2.4398e-07
0.000100505
-6.60322e-08
-2.4265e-07
0.000100513
-9.65005e-08
-2.41202e-07
0.000100513
-2.5818e-07
-2.4083e-07
0.000100907
-2.39007e-07
9.98053e-05
2.49995e-07
9.87474e-05
8.95585e-08
9.98281e-05
5.65771e-08
9.94444e-05
2.29125e-08
9.94436e-05
-5.03803e-09
9.94351e-05
-3.24223e-08
9.94365e-05
-6.45219e-08
9.94477e-05
-9.49166e-08
9.94507e-05
-2.56389e-07
9.98439e-05
9.87512e-05
2.57389e-07
2.78872e-07
9.8202e-05
9.06247e-08
2.80505e-07
9.9691e-05
4.92544e-08
2.79969e-07
9.91864e-05
8.93701e-09
2.81321e-07
9.91802e-05
-2.56191e-08
2.82456e-07
9.91607e-05
-5.80551e-08
2.83796e-07
9.91538e-05
-9.22076e-08
2.85223e-07
9.91595e-05
-1.23802e-07
2.86059e-07
9.91532e-05
-2.99587e-07
2.88206e-07
9.96978e-05
2.88456e-07
9.80913e-05
2.59068e-07
1.10293e-07
9.97464e-05
9.21107e-08
1.1178e-07
0.000101244
5.05956e-08
1.12084e-07
0.000100737
1.04683e-08
1.12903e-07
0.000100734
-2.40688e-08
1.14061e-07
0.000100718
-5.66358e-08
1.15365e-07
0.000100714
-9.10095e-08
1.16709e-07
0.000100724
-1.23425e-07
1.18074e-07
0.00010072
-2.99286e-07
1.19377e-07
0.000101269
1.20446e-07
9.96628e-05
2.58485e-07
7.65992e-08
9.92183e-05
9.24006e-08
7.79507e-08
0.000100713
5.14118e-08
7.87866e-08
0.000100207
1.14744e-08
8.0057e-08
0.000100203
-2.28972e-08
8.17454e-08
0.000100185
-5.53848e-08
8.36873e-08
0.00010018
-8.98413e-08
8.57407e-08
0.000100188
-1.22136e-07
8.77728e-08
0.000100183
-2.96563e-07
8.93796e-08
0.000100728
9.21329e-08
9.91278e-05
2.59829e-07
4.21647e-08
9.92161e-05
9.32315e-08
4.36912e-08
0.000100714
5.26861e-08
4.47142e-08
0.000100207
1.31408e-08
4.63374e-08
0.000100203
-2.09554e-08
4.84577e-08
0.000100186
-5.33227e-08
5.09235e-08
0.000100181
-8.78212e-08
5.35674e-08
0.00010019
-1.20326e-07
5.61771e-08
0.000100186
-2.94308e-07
5.83215e-08
0.000100728
6.21757e-08
9.91347e-05
2.60957e-07
1.08422e-08
9.9202e-05
9.43874e-08
1.23518e-08
0.000100703
5.43525e-08
1.35026e-08
0.000100194
1.5272e-08
1.53054e-08
0.000100191
-1.84813e-08
1.7639e-08
0.000100175
-5.06813e-08
2.03728e-08
0.000100171
-8.52338e-08
2.33307e-08
0.000100181
-1.18045e-07
2.62624e-08
0.000100178
-2.90653e-07
2.86595e-08
0.000100717
3.3196e-08
9.91342e-05
2.62261e-07
-2.15556e-08
9.92014e-05
9.56416e-08
-2.02201e-08
0.000100706
5.61792e-08
-1.90739e-08
0.000100196
1.76198e-08
-1.7296e-08
0.000100193
-1.57339e-08
-1.50249e-08
0.000100177
-4.77207e-08
-1.23603e-08
0.000100175
-8.23032e-08
-9.46513e-09
0.000100186
-1.15434e-07
-6.60917e-09
0.000100184
-2.86588e-07
-4.28263e-09
0.00010072
3.03422e-10
9.91495e-05
2.63605e-07
-5.91043e-08
9.92147e-05
9.68576e-08
-5.80511e-08
0.000100723
5.79584e-08
-5.70885e-08
0.000100211
1.991e-08
-5.55359e-08
0.000100209
-1.305e-08
-5.36026e-08
0.000100194
-4.48179e-08
-5.13376e-08
0.000100193
-7.94206e-08
-4.8885e-08
0.000100205
-1.12855e-07
-4.64939e-08
0.000100204
-2.82679e-07
-4.44752e-08
0.000100737
-4.04589e-08
9.91784e-05
2.64323e-07
-9.73547e-08
9.9216e-05
9.79901e-08
-9.70854e-08
0.000100726
5.95246e-08
-9.60995e-08
0.000100214
2.18739e-08
-9.49022e-08
0.000100212
-1.07819e-08
-9.34912e-08
0.000100198
-4.23947e-08
-9.1844e-08
0.000100197
-7.70305e-08
-9.00527e-08
0.00010021
-1.10744e-07
-8.83469e-08
0.000100211
-2.78887e-07
-8.71117e-08
0.000100741
-8.39443e-08
9.91922e-05
2.66263e-07
-2.64051e-07
9.97253e-05
9.89762e-08
-2.6387e-07
0.00010124
6.05544e-08
-2.61852e-07
0.000100724
2.32037e-08
-2.60932e-07
0.000100721
-9.26807e-09
-2.59217e-07
0.000100705
-4.07891e-08
-2.5731e-07
0.000100703
-7.5386e-08
-2.55337e-07
0.000100714
-1.09489e-07
-2.52934e-07
0.000100712
-2.77965e-07
-2.52764e-07
0.000101241
-2.49463e-07
9.9693e-05
2.66437e-07
9.82171e-05
9.9348e-08
9.97316e-05
6.18482e-08
9.92204e-05
2.49785e-08
9.922e-05
-7.06186e-09
9.92085e-05
-3.83077e-08
9.92111e-05
-7.28801e-08
9.92278e-05
-1.07113e-07
9.92322e-05
-2.74777e-07
9.97593e-05
9.82267e-05
2.65847e-07
2.94877e-07
9.7641e-05
9.43348e-08
2.97151e-07
9.95652e-05
4.65256e-08
2.9637e-07
9.89378e-05
1.93433e-09
2.98302e-07
9.89266e-05
-3.71211e-08
2.99766e-07
9.89003e-05
-7.33076e-08
3.01578e-07
9.88889e-05
-1.09277e-07
3.03562e-07
9.88926e-05
-1.43817e-07
3.04431e-07
9.88834e-05
-3.28849e-07
3.0727e-07
9.95753e-05
3.06871e-07
9.74556e-05
2.68248e-07
1.21774e-07
9.96511e-05
9.64816e-08
1.23917e-07
0.000101589
4.84336e-08
1.24332e-07
0.000100957
4.15e-09
1.2555e-07
0.000100951
-3.49727e-08
1.27259e-07
0.00010093
-7.14588e-08
1.29197e-07
0.000100924
-1.0781e-07
1.31208e-07
0.000100933
-1.43546e-07
1.33223e-07
0.000100927
-3.29076e-07
1.35185e-07
0.000101627
1.3675e-07
9.95036e-05
2.67387e-07
8.46539e-08
9.89881e-05
9.68711e-08
8.65986e-08
0.000100921
4.95873e-08
8.77891e-08
0.000100291
5.57941e-09
8.96784e-08
0.000100283
-3.32542e-08
9.22087e-08
0.00010026
-6.95839e-08
9.51591e-08
0.000100252
-1.06078e-07
9.83393e-08
0.000100259
-1.41612e-07
1.01521e-07
0.000100251
-3.25162e-07
1.04123e-07
0.000100942
1.08535e-07
9.88304e-05
2.69341e-07
4.86282e-08
9.89829e-05
9.8111e-08
5.08903e-08
0.000100922
5.14831e-08
5.23519e-08
0.000100289
8.08039e-09
5.47778e-08
0.000100282
-3.02968e-08
5.79947e-08
0.000100259
-6.63868e-08
6.18126e-08
0.000100252
-1.02928e-07
6.60121e-08
0.00010026
-1.3872e-07
7.02579e-08
0.000100254
-3.21611e-07
7.38251e-08
0.000100941
8.04493e-08
9.88409e-05
2.70861e-07
1.46462e-08
9.89652e-05
9.98245e-08
1.68367e-08
0.000100909
5.3976e-08
1.85223e-08
0.000100274
1.13191e-08
2.1229e-08
0.000100268
-2.64586e-08
2.47906e-08
0.000100246
-6.21873e-08
2.90588e-08
0.000100241
-9.87386e-08
3.38195e-08
0.000100251
-1.3493e-07
3.86625e-08
0.000100246
-3.15258e-07
4.27047e-08
0.000100929
5.07966e-08
9.88484e-05
2.72728e-07
-2.07752e-08
9.89642e-05
1.0169e-07
-1.88913e-08
0.000100913
5.6717e-08
-1.71799e-08
0.000100277
1.49081e-08
-1.45096e-08
0.000100271
-2.21601e-08
-1.10448e-08
0.000100251
-5.74185e-08
-6.8831e-09
0.000100247
-9.39205e-08
-2.22459e-09
0.000100259
-1.30508e-07
2.51427e-09
0.000100257
-3.08021e-07
6.45738e-09
0.000100934
1.46704e-08
9.88773e-05
2.74745e-07
-6.10067e-08
9.89802e-05
1.035e-07
-5.94782e-08
0.000100935
5.93865e-08
-5.80479e-08
0.000100297
1.84103e-08
-5.5735e-08
0.000100292
-1.79565e-08
-5.28052e-08
0.000100273
-5.27412e-08
-4.93024e-08
0.00010027
-8.91564e-08
-4.53951e-08
0.000100285
-1.26082e-07
-4.14671e-08
0.000100285
-3.01103e-07
-3.80766e-08
0.000100957
-3.13295e-08
9.89226e-05
2.75737e-07
-1.04179e-07
9.89836e-05
1.0517e-07
-1.03796e-07
0.000100941
6.1726e-08
-1.02343e-07
0.000100302
2.14037e-08
-1.00577e-07
0.000100298
-1.443e-08
-9.84535e-08
0.00010028
-4.8867e-08
-9.59284e-08
0.000100279
-8.52379e-08
-9.31266e-08
0.000100295
-1.22434e-07
-9.03776e-08
0.000100297
-2.94781e-07
-8.85113e-08
0.000100963
-8.3068e-08
9.89488e-05
2.78487e-07
-2.75347e-07
9.96183e-05
1.06623e-07
-2.75161e-07
0.000101583
6.32559e-08
-2.72298e-07
0.000100938
2.34089e-08
-2.7103e-07
0.000100932
-1.21372e-08
-2.68477e-07
0.000100911
-4.6407e-08
-2.65719e-07
0.000100908
-8.2673e-08
-2.62922e-07
0.000100921
-1.20522e-07
-2.59486e-07
0.00010092
-2.92698e-07
-2.58816e-07
0.000101584
-2.54079e-07
9.95706e-05
2.78678e-07
9.76634e-05
1.07155e-07
9.96284e-05
6.51268e-08
9.89906e-05
2.5948e-08
9.89888e-05
-8.89521e-09
9.89755e-05
-4.26814e-08
9.89799e-05
-7.91055e-08
9.90019e-05
-1.16599e-07
9.90112e-05
-2.8822e-07
9.96716e-05
9.76842e-05
2.68535e-07
3.06376e-07
9.70658e-05
9.45891e-08
3.09341e-07
9.94296e-05
4.11419e-08
3.08358e-07
9.86827e-05
-7.94186e-09
3.1092e-07
9.86648e-05
-5.20306e-08
3.12719e-07
9.8632e-05
-9.23972e-08
3.14983e-07
9.86149e-05
-1.30346e-07
3.17411e-07
9.86136e-05
-1.6645e-07
3.17983e-07
9.86015e-05
-3.60982e-07
3.21034e-07
9.94483e-05
3.18093e-07
9.67746e-05
2.71765e-07
1.31357e-07
9.95543e-05
9.74749e-08
1.3424e-07
0.000101938
4.37161e-08
1.34845e-07
0.000101184
-4.94174e-09
1.36588e-07
0.000101175
-4.92571e-08
1.38995e-07
0.000101149
-9.02401e-08
1.41739e-07
0.000101139
-1.28883e-07
1.44581e-07
0.000101146
-1.66822e-07
1.4737e-07
0.000101136
-3.63421e-07
1.49993e-07
0.000101993
1.51711e-07
9.93052e-05
2.70674e-07
9.23244e-08
9.87565e-05
9.80348e-08
9.49941e-08
0.000101133
4.53049e-08
9.666e-08
0.000100382
-2.96442e-09
9.93745e-08
0.000100369
-4.6849e-08
1.03035e-07
0.00010034
-8.76166e-08
1.0737e-07
0.000100328
-1.26506e-07
1.12131e-07
0.000100331
-1.6431e-07
1.16993e-07
0.00010032
-3.58759e-07
1.20969e-07
0.000101165
1.2836e-07
9.84938e-05
2.73345e-07
5.53182e-08
9.87467e-05
9.98254e-08
5.84998e-08
0.000101132
4.80314e-08
6.05602e-08
0.000100377
6.61506e-10
6.40746e-08
0.000100365
-4.24948e-08
6.88126e-08
0.000100337
-8.28381e-08
7.45675e-08
0.000100326
-1.21699e-07
8.10882e-08
0.000100331
-1.59916e-07
8.79122e-08
0.000100321
-3.5275e-07
9.39744e-08
0.000101161
1.05823e-07
9.85085e-05
2.75377e-07
1.89712e-08
9.87263e-05
1.02275e-07
2.20302e-08
0.000101118
5.16437e-08
2.44355e-08
0.000100361
5.44498e-09
2.83769e-08
0.00010035
-3.6688e-08
3.36651e-08
0.000100324
-7.6308e-08
4.01745e-08
0.000100316
-1.14951e-07
4.76693e-08
0.000100324
-1.53473e-07
5.56441e-08
0.000100317
-3.41486e-07
6.27473e-08
0.000101148
7.75401e-08
9.85337e-05
2.77971e-07
-1.92405e-08
9.87246e-05
1.04961e-07
-1.66424e-08
0.000101125
5.56374e-08
-1.41852e-08
0.000100365
1.0788e-08
-1.03029e-08
0.000100355
-3.01104e-08
-5.16633e-09
0.000100331
-6.87867e-08
1.16631e-09
0.000100325
-1.07017e-07
8.4918e-09
0.000100337
-1.45726e-07
1.6289e-08
0.000100335
-3.28291e-07
2.31615e-08
0.000101156
3.79726e-08
9.85879e-05
2.80851e-07
-6.16805e-08
9.8742e-05
1.07578e-07
-5.95371e-08
0.000101151
5.95275e-08
-5.74964e-08
0.000100388
1.59967e-08
-5.41672e-08
0.000100379
-2.36916e-08
-4.98601e-08
0.000100358
-6.14169e-08
-4.45847e-08
0.000100354
-9.91958e-08
-3.8535e-08
0.00010037
-1.38035e-07
-3.21293e-08
0.000100373
-3.15834e-07
-2.65371e-08
0.000101184
-1.46569e-08
9.8659e-05
2.82249e-07
-1.08452e-07
9.87484e-05
1.09945e-07
-1.07851e-07
0.000101162
6.29051e-08
-1.05823e-07
0.000100398
2.04137e-08
-1.03318e-07
0.00010039
-1.83558e-08
-1.00216e-07
0.000100369
-5.53929e-08
-9.64795e-08
0.000100368
-9.28121e-08
-9.22445e-08
0.000100386
-1.31928e-07
-8.79567e-08
0.000100392
-3.04922e-07
-8.47494e-08
0.000101194
-7.6369e-08
9.87045e-05
2.85891e-07
-2.81649e-07
9.9506e-05
1.1197e-07
-2.81379e-07
0.000101931
6.50926e-08
-2.77589e-07
0.000101157
2.33302e-08
-2.75833e-07
0.000101147
-1.4979e-08
-2.72238e-07
0.000101123
-5.16985e-08
-2.684e-07
0.000101117
-8.88768e-08
-2.64598e-07
0.000101131
-1.2862e-07
-2.59642e-07
0.000101132
-3.01177e-07
-2.58895e-07
0.00010193
-2.51964e-07
9.94441e-05
2.8619e-07
9.7096e-05
1.1277e-07
9.95209e-05
6.7704e-08
9.87587e-05
2.68362e-08
9.87545e-05
-1.04269e-08
9.87412e-05
-4.64483e-08
9.87482e-05
-8.36737e-08
9.87754e-05
-1.23557e-07
9.87911e-05
-2.94761e-07
9.9584e-05
9.71375e-05
2.65662e-07
3.13791e-07
9.64861e-05
9.07301e-08
3.17477e-07
9.92868e-05
3.20619e-08
3.1634e-07
9.84248e-05
-2.17717e-08
3.19542e-07
9.8399e-05
-7.1353e-08
3.21641e-07
9.83602e-05
-1.16594e-07
3.24198e-07
9.83363e-05
-1.56663e-07
3.26668e-07
9.83273e-05
-1.93426e-07
3.26047e-07
9.83116e-05
-4.01412e-07
3.27745e-07
9.93248e-05
3.18634e-07
9.60526e-05
2.6982e-07
1.38704e-07
9.94595e-05
9.44449e-08
1.42418e-07
0.000102289
3.54021e-08
1.43292e-07
0.000101416
-1.79385e-08
1.45701e-07
0.000101402
-6.80655e-08
1.48967e-07
0.000101372
-1.14535e-07
1.52687e-07
0.000101358
-1.56088e-07
1.56514e-07
0.000101358
-1.96116e-07
1.60066e-07
0.000101341
-4.09202e-07
1.63174e-07
0.000102369
1.64733e-07
9.90467e-05
2.68554e-07
9.90525e-08
9.85277e-05
9.52421e-08
1.02616e-07
0.000101346
3.7526e-08
1.04898e-07
0.000100478
-1.5283e-08
1.08693e-07
0.000100459
-6.48376e-08
1.13853e-07
0.000100426
-1.11068e-07
1.20069e-07
0.000100408
-1.53077e-07
1.27052e-07
0.000100403
-1.93105e-07
1.34225e-07
0.000100385
-4.04114e-07
1.40588e-07
0.000101396
1.51284e-07
9.80971e-05
2.72054e-07
6.18977e-08
9.85119e-05
9.7754e-08
6.62203e-08
0.000101343
4.13431e-08
6.90852e-08
0.00010047
-1.01575e-08
7.40636e-08
0.000100451
-5.85914e-08
8.0904e-08
0.000100419
-1.04081e-07
8.94451e-08
0.000100403
-1.46025e-07
9.94948e-08
0.000100401
-1.86242e-07
1.10421e-07
0.000100385
-3.95612e-07
1.20473e-07
0.000101386
1.42045e-07
9.81191e-05
2.74766e-07
2.38967e-08
9.84897e-05
1.01173e-07
2.80601e-08
0.00010133
4.6465e-08
3.14246e-08
0.000100454
-3.22478e-09
3.70409e-08
0.000100437
-4.9932e-08
4.47492e-08
0.000100408
-9.39843e-08
5.45352e-08
0.000100395
-1.35233e-07
6.63139e-08
0.000100398
-1.75589e-07
7.94684e-08
0.000100389
-3.7524e-07
9.16208e-08
0.000101374
1.19879e-07
9.81795e-05
2.78294e-07
-1.64495e-08
9.84868e-05
1.04956e-07
-1.29267e-08
0.000101339
5.21688e-08
-9.49185e-09
0.000100459
4.59446e-09
-3.97622e-09
0.000100444
-3.99913e-08
3.4905e-09
0.000100418
-8.21189e-08
1.29782e-08
0.000100409
-1.22153e-07
2.4433e-08
0.000100419
-1.62382e-07
3.72618e-08
0.000100417
-3.49804e-07
4.92874e-08
0.000101385
7.68097e-08
9.82809e-05
2.82254e-07
-6.04655e-08
9.85038e-05
1.08653e-07
-5.75388e-08
0.000101369
5.77191e-08
-5.46956e-08
0.000100485
1.21971e-08
-5.00236e-08
0.000100471
-3.03266e-08
-4.38382e-08
0.000100448
-7.05538e-08
-3.60753e-08
0.000100444
-1.09302e-07
-2.6812e-08
0.000100459
-1.48971e-07
-1.65355e-08
0.000100465
-3.26249e-07
-6.9997e-09
0.000101417
1.34968e-08
9.83955e-05
2.84243e-07
-1.09769e-07
9.85137e-05
1.11929e-07
-1.08819e-07
0.000101386
6.24751e-08
-1.06096e-07
0.000100499
1.85573e-08
-1.02644e-07
0.000100487
-2.24394e-08
-9.82569e-08
0.000100465
-6.12908e-08
-9.28793e-08
0.000100464
-9.90837e-08
-8.66397e-08
0.000100484
-1.38453e-07
-8.00255e-08
0.000100495
-3.07795e-07
-7.4997e-08
0.000101431
-6.21442e-08
9.84713e-05
2.88885e-07
-2.83296e-07
9.93912e-05
1.1465e-07
-2.82903e-07
0.00010228
6.55172e-08
-2.78093e-07
0.000101379
2.26577e-08
-2.75691e-07
0.000101364
-1.75873e-08
-2.7084e-07
0.000101336
-5.58123e-08
-2.65702e-07
0.000101329
-9.30554e-08
-2.60634e-07
0.000101343
-1.33198e-07
-2.54386e-07
0.000101346
-3.01382e-07
-2.53222e-07
0.000102275
-2.44306e-07
9.93253e-05
2.89342e-07
9.65239e-05
1.1584e-07
9.94121e-05
6.9022e-08
9.85281e-05
2.73552e-08
9.85212e-05
-1.14521e-08
9.851e-05
-4.86908e-08
9.85205e-05
-8.64348e-08
9.85527e-05
-1.26476e-07
9.85775e-05
-2.9337e-07
9.9498e-05
9.65995e-05
2.58795e-07
3.18787e-07
9.59082e-05
8.35281e-08
3.23215e-07
9.91385e-05
1.91974e-08
3.21976e-07
9.81668e-05
-4.02002e-08
3.2577e-07
9.81325e-05
-9.6137e-08
3.28026e-07
9.80882e-05
-1.47313e-07
3.30485e-07
9.80575e-05
-1.91614e-07
3.3203e-07
9.80395e-05
-2.32044e-07
3.28221e-07
9.80215e-05
-4.56237e-07
3.25678e-07
9.92203e-05
2.99284e-07
9.5291e-05
2.6398e-07
1.44792e-07
9.93694e-05
8.81243e-08
1.49422e-07
0.000102638
2.3351e-08
1.50653e-07
0.000101652
-3.56244e-08
1.53865e-07
0.000101633
-9.27257e-08
1.58146e-07
0.000101599
-1.46404e-07
1.62953e-07
0.00010158
-1.94009e-07
1.6774e-07
0.00010157
-2.40067e-07
1.71596e-07
0.000101542
-4.80379e-07
1.74121e-07
0.000102755
1.69561e-07
9.86891e-05
2.62629e-07
1.05108e-07
9.83048e-05
8.92349e-08
1.09749e-07
0.00010156
2.61066e-08
1.12809e-07
0.000100579
-3.21771e-08
1.17986e-07
0.000100554
-8.86204e-08
1.25095e-07
0.000100516
-1.42197e-07
1.33807e-07
0.000100491
-1.90926e-07
1.43785e-07
0.000100476
-2.37634e-07
1.5451e-07
0.000100448
-4.81384e-07
1.63165e-07
0.000101641
1.82491e-07
9.7601e-05
2.67072e-07
6.83312e-08
9.82818e-05
9.26594e-08
7.40444e-08
0.000101553
3.13173e-08
7.79614e-08
0.000100566
-2.51038e-08
8.48759e-08
0.000100542
-7.98624e-08
9.45879e-08
0.000100506
-1.32273e-07
1.07102e-07
0.000100483
-1.80483e-07
1.22447e-07
0.000100471
-2.28395e-07
1.40087e-07
0.000100445
-4.65947e-07
1.58758e-07
0.000101624
2.00873e-07
9.76336e-05
2.70673e-07
2.94522e-08
9.82581e-05
9.73365e-08
3.49961e-08
0.000101543
3.84443e-08
3.96114e-08
0.000100552
-1.52102e-08
4.74624e-08
0.000100529
-6.70862e-08
5.85191e-08
0.000100497
-1.1677e-07
7.3075e-08
0.00010048
-1.6289e-07
9.14574e-08
0.000100476
-2.08737e-07
1.13199e-07
0.00010046
-4.26661e-07
1.37183e-07
0.000101612
1.93275e-07
9.77639e-05
2.75376e-07
-1.23331e-08
9.82533e-05
1.02558e-07
-7.63019e-09
0.000101555
4.64503e-08
-2.9391e-09
0.000100558
-3.92832e-09
4.73307e-09
0.000100538
-5.21895e-08
1.53863e-08
0.00010051
-9.81322e-08
2.93935e-08
0.000100499
-1.41023e-07
4.70874e-08
0.000100506
-1.83071e-07
6.83509e-08
0.000100504
-3.76122e-07
9.06276e-08
0.000101624
1.43643e-07
9.79597e-05
2.80658e-07
-5.75929e-08
9.82686e-05
1.07669e-07
-5.36915e-08
0.000101589
5.42165e-08
-4.98285e-08
0.000100585
6.97882e-09
-4.34201e-08
0.000100567
-3.78327e-08
-3.47392e-08
0.000100543
-8.01837e-08
-2.35302e-08
0.000100539
-1.19609e-07
-9.55703e-09
0.000100555
-1.58657e-07
6.86216e-09
0.000100566
-3.30332e-07
2.27757e-08
0.000101656
5.89068e-08
9.81547e-05
2.83453e-07
-1.09056e-07
9.82821e-05
1.12105e-07
-1.07621e-07
0.000101612
6.07637e-08
-1.04056e-07
0.000100605
1.59283e-08
-9.94104e-08
0.000100588
-2.64e-08
-9.33646e-08
0.000100567
-6.61714e-08
-8.58266e-08
0.000100566
-1.03243e-07
-7.68584e-08
0.000100588
-1.41184e-07
-6.71144e-08
0.000100606
-2.98829e-07
-5.9668e-08
0.000101669
-3.96456e-08
9.82762e-05
2.89152e-07
-2.82031e-07
9.92756e-05
1.15669e-07
-2.81409e-07
0.000102628
6.4887e-08
-2.75523e-07
0.000101602
2.15459e-08
-2.72306e-07
0.000101581
-1.95953e-08
-2.66046e-07
0.000101551
-5.82613e-08
-2.59456e-07
0.000101542
-9.43622e-08
-2.53186e-07
0.000101556
-1.33347e-07
-2.45774e-07
0.000101564
-2.87935e-07
-2.4503e-07
0.000102617
-2.38214e-07
9.92361e-05
2.89889e-07
9.59526e-05
1.17382e-07
9.93038e-05
6.94381e-08
9.83013e-05
2.76127e-08
9.82916e-05
-1.17057e-08
9.82841e-05
-4.93061e-08
9.82992e-05
-8.62322e-08
9.83372e-05
-1.25731e-07
9.83718e-05
-2.82352e-07
9.9409e-05
9.60783e-05
2.49293e-07
3.22636e-07
9.53359e-05
7.38698e-08
3.27779e-07
9.89856e-05
3.08157e-09
3.2649e-07
9.79107e-05
-6.31035e-08
3.30749e-07
9.78676e-05
-1.26731e-07
3.32882e-07
9.78189e-05
-1.85975e-07
3.34442e-07
9.77822e-05
-2.37353e-07
3.33346e-07
9.77572e-05
-2.84961e-07
3.22836e-07
9.77446e-05
-5.43188e-07
3.09415e-07
9.91608e-05
2.42337e-07
9.45124e-05
2.55564e-07
1.50556e-07
9.92857e-05
7.9355e-08
1.56165e-07
0.000102986
7.99317e-09
1.57847e-07
0.000101892
-5.80956e-08
1.61985e-07
0.000101868
-1.24142e-07
1.67376e-07
0.000101831
-1.88327e-07
1.73223e-07
0.000101806
-2.46843e-07
1.78461e-07
0.000101783
-3.07149e-07
1.81075e-07
0.000101741
-6.00253e-07
1.78518e-07
0.000103172
1.54501e-07
9.81879e-05
2.54228e-07
1.11101e-07
9.80901e-05
8.08604e-08
1.17005e-07
0.000101772
1.1468e-08
1.21021e-07
0.000100686
-5.38042e-08
1.27909e-07
0.000100653
-1.19271e-07
1.3747e-07
0.000100612
-1.8409e-07
1.49367e-07
0.00010058
-2.45434e-07
1.63321e-07
0.000100553
-3.10481e-07
1.7795e-07
0.00010051
-6.15673e-07
1.92939e-07
0.000101933
2.21964e-07
9.69329e-05
2.59725e-07
7.49152e-08
9.80584e-05
8.54023e-08
8.22836e-08
0.000101762
1.84027e-08
8.75385e-08
0.000100667
-4.42872e-08
9.69434e-08
0.000100636
-1.07323e-07
1.10471e-07
0.000100596
-1.70312e-07
1.28542e-07
0.000100568
-2.31503e-07
1.51919e-07
0.000100543
-2.95833e-07
1.80899e-07
0.000100504
-5.92616e-07
2.13182e-07
0.000101901
2.99505e-07
9.69976e-05
2.64453e-07
3.56133e-08
9.80331e-05
9.16768e-08
4.28445e-08
0.000101755
2.81335e-08
4.90455e-08
0.000100654
-3.04122e-08
5.97948e-08
0.000100625
-8.86912e-08
7.53595e-08
0.000100591
-1.46409e-07
9.66946e-08
0.000100569
-2.02226e-07
1.25275e-07
0.000100557
-2.60068e-07
1.62331e-07
0.000100533
-5.14291e-07
2.05075e-07
0.000101882
3.24532e-07
9.72575e-05
2.706e-07
-7.22288e-09
9.80257e-05
9.87447e-08
-1.0566e-09
0.000101771
3.9163e-08
5.19861e-09
0.000100662
-1.44004e-08
1.56377e-08
0.000100636
-6.66279e-08
3.05196e-08
0.000100607
-1.17044e-07
5.08056e-08