/*--------------------------------*- C++ -*----------------------------------*\
  =========                 |
  \\      /  F ield         | OpenFOAM: The Open Source CFD Toolbox
   \\    /   O peration     | Website:  https://openfoam.org
    \\  /    A nd           | Version:  6
     \\/     M anipulation  |
\*---------------------------------------------------------------------------*/
FoamFile
{
    version     2.0;
    format      ascii;
    class       volScalarField;
    location    "0.895";
    object      T;
}
// * * * * * * * * * * * * * * * * * * * * * * * * * * * * * * * * * * * * * //

dimensions      [0 0 0 1 0 0 0];

internalField   nonuniform List<scalar> 
7000
(
106.613
106.612
106.609
106.606
106.602
106.598
106.593
106.589
106.586
106.585
106.613
106.612
106.609
106.606
106.602
106.598
106.593
106.589
106.586
106.585
106.613
106.612
106.609
106.606
106.602
106.598
106.593
106.589
106.586
106.585
106.613
106.612
106.609
106.606
106.602
106.598
106.593
106.589
106.586
106.585
106.613
106.612
106.609
106.606
106.602
106.598
106.593
106.589
106.586
106.585
106.613
106.612
106.609
106.606
106.602
106.598
106.593
106.589
106.586
106.585
106.613
106.612
106.609
106.606
106.602
106.598
106.593
106.589
106.586
106.585
106.613
106.612
106.609
106.606
106.602
106.598
106.593
106.589
106.586
106.585
106.613
106.612
106.609
106.606
106.602
106.598
106.593
106.589
106.586
106.585
106.613
106.612
106.609
106.606
106.602
106.598
106.593
106.589
106.586
106.585
99.8592
99.8555
99.8483
99.8382
99.8258
99.8123
99.7988
99.7869
99.7779
99.773
99.8592
99.8554
99.8483
99.8382
99.8258
99.8123
99.7988
99.7868
99.7778
99.773
99.8591
99.8554
99.8483
99.8382
99.8258
99.8123
99.7988
99.7868
99.7778
99.773
99.8591
99.8554
99.8483
99.8381
99.8258
99.8123
99.7988
99.7868
99.7778
99.773
99.8591
99.8554
99.8483
99.8381
99.8258
99.8123
99.7988
99.7868
99.7778
99.773
99.8591
99.8554
99.8483
99.8381
99.8258
99.8123
99.7988
99.7868
99.7778
99.773
99.8591
99.8554
99.8483
99.8381
99.8258
99.8123
99.7988
99.7868
99.7778
99.773
99.8591
99.8554
99.8483
99.8381
99.8258
99.8123
99.7988
99.7868
99.7778
99.773
99.8591
99.8554
99.8483
99.8382
99.8258
99.8123
99.7988
99.7868
99.7778
99.773
99.8591
99.8554
99.8483
99.8382
99.8258
99.8123
99.7988
99.7868
99.7778
99.773
93.166
93.1598
93.1476
93.1304
93.1093
93.0859
93.0625
93.0415
93.0256
93.0169
93.166
93.1597
93.1476
93.1304
93.1092
93.0859
93.0625
93.0415
93.0255
93.0169
93.166
93.1597
93.1476
93.1304
93.1092
93.0859
93.0624
93.0415
93.0255
93.0169
93.166
93.1597
93.1476
93.1303
93.1092
93.0859
93.0624
93.0415
93.0255
93.0169
93.166
93.1597
93.1476
93.1303
93.1092
93.0859
93.0624
93.0415
93.0255
93.0169
93.166
93.1597
93.1476
93.1303
93.1092
93.0859
93.0624
93.0415
93.0255
93.0169
93.166
93.1597
93.1476
93.1303
93.1092
93.0859
93.0624
93.0415
93.0255
93.0169
93.166
93.1597
93.1476
93.1303
93.1092
93.0859
93.0624
93.0415
93.0255
93.0169
93.166
93.1597
93.1476
93.1304
93.1092
93.0859
93.0624
93.0415
93.0255
93.0169
93.166
93.1597
93.1476
93.1304
93.1092
93.0859
93.0625
93.0415
93.0256
93.0169
86.5733
86.5643
86.547
86.5222
86.4915
86.4572
86.4223
86.3906
86.3662
86.3528
86.5732
86.5643
86.547
86.5222
86.4915
86.4572
86.4223
86.3906
86.3661
86.3528
86.5732
86.5643
86.5469
86.5221
86.4915
86.4572
86.4223
86.3906
86.3661
86.3528
86.5732
86.5643
86.5469
86.5221
86.4914
86.4571
86.4223
86.3905
86.3661
86.3527
86.5732
86.5643
86.5469
86.5221
86.4914
86.4571
86.4223
86.3905
86.3661
86.3527
86.5732
86.5643
86.5469
86.5221
86.4914
86.4571
86.4223
86.3905
86.3661
86.3527
86.5732
86.5643
86.5469
86.5221
86.4914
86.4571
86.4223
86.3905
86.3661
86.3527
86.5732
86.5643
86.5469
86.5221
86.4915
86.4571
86.4223
86.3905
86.3661
86.3527
86.5732
86.5643
86.5469
86.5221
86.4915
86.4572
86.4223
86.3906
86.3661
86.3528
86.5732
86.5643
86.547
86.5222
86.4915
86.4572
86.4223
86.3906
86.3662
86.3528
80.1195
80.1078
80.0851
80.0523
80.0112
79.9645
79.9159
79.8708
79.8351
79.8152
80.1194
80.1078
80.0851
80.0523
80.0112
79.9644
79.9159
79.8707
79.8351
79.8152
80.1194
80.1078
80.0851
80.0523
80.0112
79.9644
79.9159
79.8707
79.8351
79.8152
80.1194
80.1078
80.085
80.0522
80.0111
79.9644
79.9159
79.8707
79.8351
79.8152
80.1194
80.1078
80.085
80.0522
80.0111
79.9644
79.9159
79.8707
79.8351
79.8152
80.1194
80.1078
80.085
80.0522
80.0111
79.9644
79.9159
79.8707
79.8351
79.8152
80.1194
80.1078
80.085
80.0522
80.0111
79.9644
79.9159
79.8707
79.8351
79.8152
80.1194
80.1078
80.085
80.0522
80.0111
79.9644
79.9159
79.8707
79.8351
79.8152
80.1194
80.1078
80.0851
80.0523
80.0112
79.9644
79.9159
79.8707
79.8351
79.8152
80.1194
80.1078
80.0851
80.0523
80.0112
79.9644
79.9159
79.8707
79.8351
79.8152
73.8416
73.8274
73.7993
73.7584
73.7062
73.6454
73.5804
73.5177
73.4663
73.4367
73.8416
73.8274
73.7993
73.7584
73.7062
73.6454
73.5804
73.5177
73.4663
73.4366
73.8416
73.8273
73.7993
73.7584
73.7062
73.6454
73.5804
73.5177
73.4663
73.4366
73.8416
73.8273
73.7993
73.7583
73.7061
73.6454
73.5803
73.5176
73.4663
73.4366
73.8415
73.8273
73.7993
73.7583
73.7061
73.6454
73.5803
73.5176
73.4662
73.4366
73.8415
73.8273
73.7993
73.7583
73.7061
73.6453
73.5803
73.5176
73.4662
73.4366
73.8415
73.8273
73.7993
73.7583
73.7061
73.6454
73.5803
73.5176
73.4663
73.4366
73.8415
73.8273
73.7993
73.7583
73.7061
73.6454
73.5804
73.5176
73.4663
73.4366
73.8416
73.8273
73.7993
73.7584
73.7062
73.6454
73.5804
73.5177
73.4663
73.4366
73.8416
73.8273
73.7993
73.7584
73.7062
73.6454
73.5804
73.5177
73.4663
73.4367
67.7745
67.758
67.7253
67.6768
67.6136
67.5376
67.4528
67.3666
67.2916
67.2455
67.7745
67.758
67.7253
67.6768
67.6135
67.5375
67.4528
67.3666
67.2915
67.2455
67.7745
67.758
67.7252
67.6767
67.6135
67.5375
67.4527
67.3666
67.2915
67.2455
67.7745
67.758
67.7252
67.6767
67.6135
67.5375
67.4527
67.3665
67.2915
67.2455
67.7744
67.758
67.7252
67.6767
67.6135
67.5375
67.4527
67.3665
67.2915
67.2455
67.7744
67.7579
67.7252
67.6767
67.6135
67.5375
67.4527
67.3665
67.2915
67.2455
67.7744
67.758
67.7252
67.6767
67.6135
67.5375
67.4527
67.3665
67.2915
67.2455
67.7745
67.758
67.7252
67.6767
67.6135
67.5375
67.4527
67.3666
67.2915
67.2455
67.7745
67.758
67.7252
67.6768
67.6135
67.5375
67.4528
67.3666
67.2915
67.2455
67.7745
67.758
67.7253
67.6768
67.6135
67.5376
67.4528
67.3666
67.2916
67.2455
61.9501
61.9322
61.8962
61.842
61.7694
61.6786
61.5713
61.4536
61.3408
61.2635
61.9501
61.9321
61.8962
61.842
61.7694
61.6786
61.5713
61.4536
61.3407
61.2635
61.95
61.9321
61.8961
61.842
61.7694
61.6785
61.5713
61.4536
61.3407
61.2635
61.95
61.9321
61.8961
61.8419
61.7693
61.6785
61.5712
61.4535
61.3407
61.2635
61.95
61.9321
61.8961
61.8419
61.7693
61.6785
61.5712
61.4535
61.3406
61.2634
61.95
61.9321
61.8961
61.8419
61.7693
61.6785
61.5712
61.4535
61.3406
61.2634
61.95
61.9321
61.8961
61.8419
61.7693
61.6785
61.5712
61.4535
61.3407
61.2635
61.95
61.9321
61.8961
61.8419
61.7693
61.6785
61.5713
61.4536
61.3407
61.2635
61.95
61.9321
61.8962
61.842
61.7694
61.6785
61.5713
61.4536
61.3407
61.2635
61.9501
61.9321
61.8962
61.842
61.7694
61.6786
61.5713
61.4536
61.3407
61.2635
56.3965
56.3785
56.3421
56.2862
56.2088
56.1071
55.9779
55.8199
55.6442
55.4979
56.3965
56.3785
56.3421
56.2861
56.2087
56.1071
55.9778
55.8199
55.6441
55.4978
56.3965
56.3784
56.342
56.2861
56.2087
56.1071
55.9778
55.8199
55.6441
55.4978
56.3964
56.3784
56.342
56.2861
56.2087
56.107
55.9777
55.8198
55.6441
55.4978
56.3964
56.3784
56.342
56.286
56.2087
56.107
55.9777
55.8198
55.6441
55.4978
56.3964
56.3784
56.342
56.286
56.2087
56.107
55.9777
55.8198
55.6441
55.4978
56.3964
56.3784
56.342
56.286
56.2087
56.107
55.9777
55.8198
55.6441
55.4978
56.3964
56.3784
56.342
56.2861
56.2087
56.107
55.9778
55.8198
55.6441
55.4978
56.3965
56.3785
56.342
56.2861
56.2087
56.1071
55.9778
55.8199
55.6441
55.4978
56.3965
56.3785
56.3421
56.2861
56.2088
56.1071
55.9778
55.8199
55.6442
55.4979
51.1374
51.1213
51.0886
51.0375
50.9644
50.8628
50.7213
50.5219
50.2452
49.9196
51.1373
51.1213
51.0886
51.0374
50.9643
50.8627
50.7212
50.5219
50.2452
49.9196
51.1373
51.1213
51.0885
51.0374
50.9643
50.8627
50.7212
50.5218
50.2451
49.9196
51.1373
51.1212
51.0885
51.0374
50.9643
50.8627
50.7212
50.5218
50.2451
49.9195
51.1372
51.1212
51.0885
51.0374
50.9643
50.8627
50.7212
50.5218
50.2451
49.9195
51.1372
51.1212
51.0885
51.0374
50.9643
50.8627
50.7212
50.5218
50.2451
49.9195
51.1372
51.1212
51.0885
51.0374
50.9643
50.8627
50.7212
50.5218
50.2451
49.9195
51.1373
51.1212
51.0885
51.0374
50.9643
50.8627
50.7212
50.5218
50.2451
49.9195
51.1373
51.1213
51.0886
51.0374
50.9643
50.8627
50.7212
50.5218
50.2452
49.9196
51.1373
51.1213
51.0886
51.0375
50.9644
50.8628
50.7213
50.5219
50.2452
49.9196
46.1906
46.1791
46.1556
46.1184
46.0637
45.9832
45.859
45.6511
45.2601
44.3945
46.1906
46.1791
46.1555
46.1183
46.0636
45.9831
45.8589
45.6511
45.2601
44.3944
46.1905
46.179
46.1555
46.1183
46.0636
45.9831
45.8589
45.651
45.26
44.3943
46.1905
46.179
46.1555
46.1183
46.0636
45.983
45.8588
45.651
45.26
44.3943
46.1905
46.179
46.1555
46.1183
46.0635
45.983
45.8588
45.651
45.26
44.3943
46.1905
46.179
46.1555
46.1183
46.0635
45.983
45.8588
45.651
45.26
44.3943
46.1905
46.179
46.1555
46.1183
46.0635
45.983
45.8588
45.651
45.26
44.3943
46.1905
46.179
46.1555
46.1183
46.0636
45.983
45.8589
45.651
45.26
44.3943
46.1905
46.179
46.1555
46.1183
46.0636
45.9831
45.8589
45.651
45.2601
44.3944
46.1906
46.1791
46.1556
46.1184
46.0637
45.9831
45.8589
45.6511
45.2601
44.3944
41.5679
41.5637
41.5553
41.5424
41.5234
41.4933
41.4409
41.3422
41.1517
40.8042
41.5678
41.5636
41.5553
41.5424
41.5233
41.4933
41.4408
41.3421
41.1516
40.8041
41.5678
41.5636
41.5552
41.5423
41.5233
41.4932
41.4408
41.3421
41.1516
40.8041
41.5678
41.5636
41.5552
41.5423
41.5233
41.4932
41.4408
41.342
41.1516
40.804
41.5678
41.5635
41.5552
41.5423
41.5232
41.4932
41.4407
41.342
41.1515
40.804
41.5678
41.5635
41.5552
41.5423
41.5232
41.4932
41.4407
41.342
41.1515
40.804
41.5678
41.5636
41.5552
41.5423
41.5232
41.4932
41.4408
41.342
41.1515
40.804
41.5678
41.5636
41.5552
41.5423
41.5233
41.4932
41.4408
41.3421
41.1516
40.804
41.5678
41.5636
41.5552
41.5424
41.5233
41.4932
41.4408
41.3421
41.1516
40.8041
41.5679
41.5636
41.5553
41.5424
41.5234
41.4933
41.4409
41.3421
41.1517
40.8041
37.2742
37.2796
37.2916
37.3122
37.3437
37.3886
37.4486
37.5254
37.6274
37.7961
37.2742
37.2796
37.2916
37.3121
37.3436
37.3886
37.4485
37.5254
37.6273
37.796
37.2741
37.2796
37.2915
37.3121
37.3436
37.3885
37.4485
37.5253
37.6273
37.796
37.2741
37.2795
37.2915
37.312
37.3436
37.3885
37.4485
37.5253
37.6272
37.7959
37.2741
37.2795
37.2915
37.312
37.3436
37.3885
37.4485
37.5253
37.6272
37.7959
37.2741
37.2795
37.2915
37.312
37.3436
37.3885
37.4485
37.5253
37.6272
37.7959
37.2741
37.2795
37.2915
37.312
37.3436
37.3885
37.4485
37.5253
37.6272
37.7959
37.2741
37.2795
37.2915
37.3121
37.3436
37.3885
37.4485
37.5253
37.6273
37.7959
37.2741
37.2796
37.2916
37.3121
37.3436
37.3885
37.4485
37.5253
37.6273
37.796
37.2742
37.2796
37.2916
37.3121
37.3437
37.3886
37.4486
37.5254
37.6274
37.7961
33.3082
33.3248
33.3604
33.4199
33.5107
33.6432
33.832
34.0984
34.4787
35.0412
33.3081
33.3247
33.3603
33.4198
33.5106
33.6432
33.8319
34.0983
34.4786
35.0412
33.3081
33.3247
33.3603
33.4198
33.5106
33.6431
33.8319
34.0983
34.4786
35.0411
33.3081
33.3246
33.3603
33.4197
33.5106
33.6431
33.8318
34.0982
34.4785
35.0411
33.3081
33.3246
33.3602
33.4197
33.5105
33.6431
33.8318
34.0982
34.4785
35.041
33.3081
33.3246
33.3602
33.4197
33.5105
33.6431
33.8318
34.0982
34.4785
35.041
33.3081
33.3246
33.3602
33.4197
33.5106
33.6431
33.8318
34.0982
34.4785
35.0411
33.3081
33.3247
33.3603
33.4198
33.5106
33.6431
33.8318
34.0982
34.4786
35.0411
33.3081
33.3247
33.3603
33.4198
33.5106
33.6432
33.8319
34.0983
34.4786
35.0411
33.3081
33.3247
33.3603
33.4199
33.5107
33.6432
33.8319
34.0983
34.4787
35.0412
29.6629
29.691
29.7509
29.8504
30.0017
30.2225
30.5373
30.9801
31.5981
32.4574
29.6629
29.6909
29.7508
29.8504
30.0017
30.2225
30.5373
30.9801
31.598
32.4573
29.6628
29.6909
29.7508
29.8503
30.0016
30.2224
30.5372
30.98
31.598
32.4573
29.6628
29.6909
29.7508
29.8503
30.0016
30.2224
30.5372
30.98
31.598
32.4573
29.6628
29.6909
29.7508
29.8503
30.0016
30.2224
30.5372
30.98
31.5979
32.4572
29.6628
29.6908
29.7508
29.8503
30.0016
30.2224
30.5372
30.98
31.5979
32.4572
29.6628
29.6909
29.7508
29.8503
30.0016
30.2224
30.5372
30.98
31.598
32.4572
29.6628
29.6909
29.7508
29.8503
30.0016
30.2224
30.5372
30.98
31.598
32.4573
29.6628
29.6909
29.7508
29.8503
30.0017
30.2225
30.5373
30.9801
31.598
32.4573
29.6629
29.691
29.7509
29.8504
30.0017
30.2225
30.5373
30.9801
31.5981
32.4574
26.3274
26.366
26.4482
26.5842
26.7903
27.0902
27.5164
28.1116
28.9286
30.0261
26.3274
26.366
26.4482
26.5841
26.7902
27.0901
27.5163
28.1116
28.9285
30.0261
26.3273
26.3659
26.4481
26.5841
26.7902
27.0901
27.5163
28.1115
28.9285
30.026
26.3273
26.3659
26.4481
26.5841
26.7902
27.0901
27.5163
28.1115
28.9284
30.026
26.3273
26.3659
26.4481
26.5841
26.7902
27.09
27.5163
28.1115
28.9284
30.026
26.3273
26.3659
26.4481
26.5841
26.7902
27.09
27.5163
28.1115
28.9284
30.026
26.3273
26.3659
26.4481
26.5841
26.7902
27.0901
27.5163
28.1115
28.9284
30.026
26.3273
26.3659
26.4481
26.5841
26.7902
27.0901
27.5163
28.1115
28.9285
30.026
26.3273
26.366
26.4482
26.5841
26.7902
27.0901
27.5163
28.1116
28.9285
30.0261
26.3274
26.366
26.4482
26.5842
26.7903
27.0902
27.5164
28.1116
28.9286
30.0261
23.288
23.3351
23.435
23.5999
23.8491
24.2109
24.7251
25.4434
26.4279
27.739
23.288
23.335
23.435
23.5998
23.849
24.2109
24.725
25.4433
26.4278
27.7389
23.2879
23.335
23.435
23.5998
23.849
24.2108
24.725
25.4433
26.4278
27.7389
23.2879
23.335
23.4349
23.5998
23.8489
24.2108
24.725
25.4432
26.4277
27.7388
23.2879
23.335
23.4349
23.5998
23.8489
24.2108
24.7249
25.4432
26.4277
27.7388
23.2879
23.335
23.4349
23.5998
23.8489
24.2108
24.7249
25.4432
26.4277
27.7388
23.2879
23.335
23.4349
23.5998
23.8489
24.2108
24.725
25.4432
26.4277
27.7388
23.2879
23.335
23.4349
23.5998
23.849
24.2108
24.725
25.4433
26.4278
27.7389
23.2879
23.335
23.435
23.5998
23.849
24.2109
24.725
25.4433
26.4278
27.7389
23.288
23.3351
23.435
23.5999
23.849
24.2109
24.7251
25.4434
26.4279
27.739
20.5299
20.5824
20.6937
20.8766
21.1521
21.5516
22.1207
22.923
24.0422
25.5687
20.5298
20.5824
20.6937
20.8766
21.152
21.5516
22.1206
22.923
24.0421
25.5687
20.5298
20.5824
20.6937
20.8765
21.152
21.5515
22.1206
22.9229
24.0421
25.5686
20.5298
20.5823
20.6936
20.8765
21.1519
21.5515
22.1206
22.9229
24.0421
25.5686
20.5298
20.5823
20.6936
20.8765
21.1519
21.5515
22.1206
22.9229
24.042
25.5686
20.5298
20.5823
20.6936
20.8765
21.1519
21.5515
22.1206
22.9229
24.042
25.5686
20.5298
20.5823
20.6936
20.8765
21.1519
21.5515
22.1206
22.9229
24.0421
25.5686
20.5298
20.5824
20.6936
20.8765
21.152
21.5515
22.1206
22.9229
24.0421
25.5686
20.5298
20.5824
20.6937
20.8766
21.152
21.5516
22.1207
22.923
24.0421
25.5687
20.5299
20.5824
20.6937
20.8766
21.1521
21.5516
22.1207
22.923
24.0422
25.5687
18.0384
18.093
18.2081
18.3961
18.6775
19.0837
19.6623
20.4874
21.6782
23.4212
18.0384
18.0929
18.208
18.396
18.6774
19.0836
19.6622
20.4873
21.6782
23.4212
18.0383
18.0929
18.208
18.396
18.6774
19.0836
19.6622
20.4873
21.6781
23.4211
18.0383
18.0929
18.208
18.396
18.6774
19.0836
19.6622
20.4873
21.6781
23.4211
18.0383
18.0929
18.208
18.396
18.6774
19.0836
19.6621
20.4873
21.6781
23.4211
18.0383
18.0929
18.208
18.396
18.6774
19.0836
19.6621
20.4873
21.6781
23.4211
18.0383
18.0929
18.208
18.396
18.6774
19.0836
19.6622
20.4873
21.6781
23.4211
18.0383
18.0929
18.208
18.396
18.6774
19.0836
19.6622
20.4873
21.6781
23.4211
18.0384
18.0929
18.208
18.396
18.6774
19.0836
19.6622
20.4874
21.6782
23.4212
18.0384
18.093
18.2081
18.3961
18.6775
19.0837
19.6623
20.4874
21.6782
23.4212
15.8001
15.8533
15.9646
16.1449
16.4111
16.7896
17.3204
18.0703
19.1728
20.9789
15.8001
15.8532
15.9646
16.1448
16.4111
16.7896
17.3204
18.0702
19.1728
20.9788
15.8001
15.8532
15.9646
16.1448
16.4111
16.7896
17.3203
18.0702
19.1727
20.9788
15.8
15.8532
15.9645
16.1448
16.411
16.7895
17.3203
18.0701
19.1727
20.9787
15.8
15.8532
15.9645
16.1447
16.411
16.7895
17.3203
18.0701
19.1727
20.9787
15.8
15.8532
15.9645
16.1447
16.411
16.7895
17.3203
18.0701
19.1727
20.9787
15.8
15.8532
15.9645
16.1448
16.411
16.7895
17.3203
18.0701
19.1727
20.9787
15.8001
15.8532
15.9646
16.1448
16.4111
16.7896
17.3204
18.0702
19.1728
20.9788
15.8001
15.8532
15.9646
16.1448
16.4111
16.7896
17.3204
18.0702
19.1728
20.9788
15.8001
15.8533
15.9646
16.1449
16.4111
16.7897
17.3204
18.0703
19.1729
20.9789
42.0294
41.8549
43.2524
46.0269
50.1743
55.8191
63.2208
72.8396
85.5116
102.916
42.0293
41.8548
43.2524
46.0268
50.1742
55.819
63.2207
72.8395
85.5114
102.916
42.0292
41.8547
43.2523
46.0267
50.1741
55.8189
63.2206
72.8394
85.5114
102.916
42.0292
41.8547
43.2522
46.0267
50.174
55.8188
63.2206
72.8393
85.5113
102.916
42.0292
41.8546
43.2522
46.0266
50.174
55.8188
63.2205
72.8393
85.5113
102.916
42.0292
41.8546
43.2522
46.0266
50.174
55.8188
63.2205
72.8393
85.5113
102.916
42.0292
41.8547
43.2522
46.0267
50.174
55.8188
63.2206
72.8393
85.5113
102.916
42.0292
41.8547
43.2523
46.0267
50.1741
55.8189
63.2206
72.8394
85.5113
102.916
42.0292
41.8547
43.2523
46.0267
50.1741
55.8189
63.2207
72.8394
85.5114
102.916
42.0293
41.8548
43.2524
46.0268
50.1742
55.819
63.2207
72.8395
85.5115
102.916
40.3362
40.831
42.4687
45.2883
49.3492
54.7695
61.7425
70.5523
81.5664
95.0831
40.3361
40.8309
42.4686
45.2882
49.3491
54.7694
61.7424
70.5521
81.5663
95.083
40.3361
40.8308
42.4685
45.2881
49.349
54.7693
61.7423
70.552
81.5662
95.0829
40.336
40.8308
42.4685
45.288
49.349
54.7692
61.7422
70.552
81.5661
95.0828
40.336
40.8308
42.4685
45.288
49.3489
54.7692
61.7422
70.552
81.5661
95.0828
40.336
40.8307
42.4684
45.288
49.3489
54.7692
61.7422
70.552
81.5661
95.0828
40.336
40.8308
42.4685
45.288
49.349
54.7692
61.7422
70.552
81.5661
95.0828
40.3361
40.8308
42.4685
45.2881
49.349
54.7692
61.7423
70.552
81.5662
95.0829
40.3361
40.8308
42.4686
45.2881
49.3491
54.7693
61.7423
70.5521
81.5662
95.083
40.3362
40.8309
42.4686
45.2882
49.3491
54.7694
61.7424
70.5522
81.5663
95.0831
38.1872
39.2158
41.0973
43.9426
47.8367
52.8736
59.1654
66.826
75.9069
86.214
38.1871
39.2157
41.0972
43.9425
47.8366
52.8735
59.1652
66.8258
75.9068
86.2139
38.1871
39.2156
41.0971
43.9425
47.8365
52.8734
59.1652
66.8258
75.9067
86.2138
38.187
39.2156
41.0971
43.9424
47.8365
52.8734
59.1651
66.8257
75.9066
86.2137
38.187
39.2155
41.0971
43.9424
47.8364
52.8734
59.1651
66.8257
75.9066
86.2137
38.187
39.2155
41.097
43.9424
47.8364
52.8734
59.1651
66.8257
75.9066
86.2137
38.187
39.2155
41.0971
43.9424
47.8365
52.8734
59.1651
66.8257
75.9066
86.2137
38.187
39.2156
41.0971
43.9424
47.8365
52.8734
59.1651
66.8257
75.9067
86.2137
38.1871
39.2156
41.0972
43.9425
47.8366
52.8735
59.1652
66.8258
75.9067
86.2138
38.1872
39.2157
41.0972
43.9426
47.8367
52.8736
59.1653
66.8259
75.9069
86.2139
35.9151
37.3024
39.3571
42.182
45.8519
50.4278
55.9553
62.4431
69.8088
77.7816
35.9151
37.3024
39.357
42.1819
45.8518
50.4277
55.9552
62.443
69.8087
77.7815
35.915
37.3023
39.3569
42.1818
45.8517
50.4276
55.9551
62.4429
69.8086
77.7814
35.915
37.3022
39.3569
42.1818
45.8517
50.4275
55.9551
62.4428
69.8085
77.7813
35.9149
37.3022
39.3569
42.1817
45.8516
50.4275
55.9551
62.4428
69.8085
77.7813
35.9149
37.3022
39.3569
42.1817
45.8516
50.4275
55.9551
62.4428
69.8085
77.7813
35.915
37.3022
39.3569
42.1817
45.8516
50.4275
55.9551
62.4428
69.8085
77.7813
35.915
37.3023
39.3569
42.1818
45.8517
50.4276
55.9551
62.4429
69.8086
77.7814
35.915
37.3023
39.357
42.1819
45.8518
50.4276
55.9552
62.4429
69.8087
77.7815
35.9151
37.3024
39.3571
42.1819
45.8519
50.4277
55.9553
62.4431
69.8088
77.7816
33.6481
35.2781
37.4413
40.2085
43.6292
47.7321
52.518
57.9428
63.8884
70.1255
33.648
35.278
37.4412
40.2084
43.6291
47.732
52.5179
57.9427
63.8882
70.1254
33.648
35.2779
37.4411
40.2083
43.629
47.7319
52.5178
57.9426
63.8882
70.1253
33.6479
35.2779
37.4411
40.2083
43.629
47.7319
52.5177
57.9425
63.8881
70.1253
33.6479
35.2779
37.441
40.2082
43.629
47.7318
52.5177
57.9425
63.8881
70.1252
33.6479
35.2779
37.441
40.2082
43.629
47.7318
52.5177
57.9425
63.8881
70.1252
33.6479
35.2779
37.4411
40.2083
43.629
47.7319
52.5177
57.9425
63.8881
70.1252
33.6479
35.2779
37.4411
40.2083
43.629
47.7319
52.5178
57.9426
63.8882
70.1253
33.648
35.278
37.4412
40.2084
43.6291
47.732
52.5179
57.9427
63.8882
70.1254
33.6481
35.2781
37.4413
40.2085
43.6292
47.7321
52.518
57.9428
63.8884
70.1255
31.4604
33.2759
35.5141
38.2109
41.3892
45.0514
49.1701
53.6776
58.4561
63.3344
31.4603
33.2758
35.514
38.2108
41.3891
45.0513
49.17
53.6775
58.456
63.3343
31.4603
33.2758
35.514
38.2107
41.389
45.0512
49.1699
53.6774
58.4559
63.3342
31.4602
33.2757
35.5139
38.2107
41.389
45.0512
49.1698
53.6773
58.4559
63.3342
31.4602
33.2757
35.5139
38.2106
41.389
45.0512
49.1698
53.6773
58.4559
63.3341
31.4602
33.2757
35.5139
38.2106
41.389
45.0512
49.1698
53.6773
58.4559
63.3341
31.4602
33.2757
35.5139
38.2107
41.389
45.0512
49.1698
53.6773
58.4559
63.3342
31.4602
33.2758
35.514
38.2107
41.389
45.0512
49.1699
53.6774
58.4559
63.3342
31.4603
33.2758
35.514
38.2108
41.3891
45.0513
49.1699
53.6775
58.456
63.3343
31.4604
33.2759
35.5141
38.2109
41.3892
45.0514
49.1701
53.6776
58.4561
63.3344
29.407
31.4032
33.7177
36.3574
39.3259
42.6075
46.1564
49.891
53.6971
57.4458
29.4069
31.4031
33.7176
36.3573
39.3258
42.6074
46.1563
49.8909
53.697
57.4456
29.4068
31.403
33.7175
36.3572
39.3257
42.6073
46.1562
49.8908
53.6969
57.4456
29.4068
31.403
33.7175
36.3571
39.3257
42.6073
46.1561
49.8907
53.6969
57.4455
29.4068
31.403
33.7175
36.3571
39.3256
42.6073
46.1561
49.8907
53.6968
57.4455
29.4068
31.403
33.7175
36.3571
39.3256
42.6073
46.1561
49.8907
53.6968
57.4455
29.4068
31.403
33.7175
36.3571
39.3257
42.6073
46.1561
49.8907
53.6969
57.4455
29.4068
31.403
33.7175
36.3572
39.3257
42.6073
46.1562
49.8908
53.6969
57.4456
29.4069
31.4031
33.7176
36.3573
39.3258
42.6074
46.1563
49.8909
53.697
57.4457
29.407
31.4032
33.7177
36.3573
39.3259
42.6075
46.1564
49.891
53.6971
57.4458
27.5346
29.759
32.1806
34.7962
37.6054
40.5846
43.6742
46.7757
49.7603
52.5035
27.5345
29.7589
32.1806
34.7961
37.6053
40.5845
43.6741
46.7756
49.7602
52.5034
27.5345
29.7589
32.1805
34.796
37.6053
40.5844
43.6741
46.7755
49.7601
52.5033
27.5344
29.7588
32.1805
34.796
37.6052
40.5844
43.674
46.7755
49.76
52.5033
27.5344
29.7588
32.1804
34.7959
37.6052
40.5844
43.674
46.7755
49.76
52.5032
27.5344
29.7588
32.1804
34.796
37.6052
40.5844
43.674
46.7755
49.76
52.5032
27.5344
29.7588
32.1805
34.796
37.6052
40.5844
43.674
46.7755
49.76
52.5033
27.5345
29.7589
32.1805
34.796
37.6053
40.5845
43.6741
46.7755
49.7601
52.5033
27.5345
29.7589
32.1806
34.7961
37.6053
40.5845
43.6741
46.7756
49.7602
52.5034
27.5346
29.759
32.1807
34.7962
37.6054
40.5846
43.6742
46.7757
49.7603
52.5035
25.9041
28.4578
31.029
33.6579
36.3666
39.1348
41.892
44.5136
46.8209
48.6089
25.9041
28.4577
31.0289
33.6578
36.3665
39.1347
41.8919
44.5135
46.8208
48.6088
25.904
28.4577
31.0289
33.6578
36.3664
39.1346
41.8919
44.5134
46.8207
48.6087
25.904
28.4576
31.0288
33.6577
36.3664
39.1346
41.8918
44.5134
46.8207
48.6087
25.904
28.4576
31.0288
33.6577
36.3664
39.1345
41.8918
44.5133
46.8206
48.6087
25.904
28.4576
31.0288
33.6577
36.3664
39.1345
41.8918
44.5133
46.8206
48.6087
25.904
28.4576
31.0289
33.6577
36.3664
39.1346
41.8918
44.5134
46.8207
48.6087
25.904
28.4577
31.0289
33.6578
36.3664
39.1346
41.8919
44.5134
46.8207
48.6088
25.9041
28.4577
31.029
33.6578
36.3665
39.1347
41.892
44.5135
46.8208
48.6088
25.9041
28.4578
31.029
33.6579
36.3666
39.1348
41.8921
44.5136
46.8209
48.6089
24.6922
27.6721
30.3942
33.0526
35.7163
38.3755
40.953
43.2962
45.1492
46.0738
24.6922
27.6721
30.3941
33.0526
35.7162
38.3754
40.9529
43.2961
45.1491
46.0737
24.6921
27.672
30.3941
33.0525
35.7161
38.3754
40.9528
43.2961
45.149
46.0736
24.6921
27.672
30.394
33.0525
35.7161
38.3753
40.9528
43.296
45.149
46.0736
24.6921
27.672
30.394
33.0525
35.7161
38.3753
40.9528
43.296
45.149
46.0736
24.6921
27.672
30.394
33.0525
35.7161
38.3753
40.9528
43.296
45.149
46.0736
24.6921
27.672
30.394
33.0525
35.7161
38.3753
40.9528
43.296
45.149
46.0736
24.6921
27.672
30.3941
33.0525
35.7162
38.3754
40.9529
43.2961
45.1491
46.0737
24.6922
27.6721
30.3941
33.0526
35.7162
38.3755
40.9529
43.2962
45.1492
46.0737
24.6923
27.6722
30.3942
33.0527
35.7163
38.3756
40.953
43.2963
45.1493
46.0738
128.956
141.425
149.131
154.566
158.617
161.676
163.955
165.58
166.625
167.138
128.956
141.425
149.13
154.566
158.617
161.676
163.955
165.579
166.625
167.138
128.956
141.425
149.13
154.566
158.616
161.676
163.955
165.579
166.625
167.138
128.956
141.425
149.13
154.566
158.616
161.676
163.955
165.579
166.625
167.138
128.956
141.425
149.13
154.566
158.616
161.676
163.955
165.579
166.625
167.138
128.956
141.425
149.13
154.566
158.616
161.676
163.955
165.579
166.625
167.138
128.956
141.425
149.13
154.566
158.616
161.676
163.955
165.579
166.625
167.138
128.956
141.425
149.13
154.566
158.616
161.676
163.955
165.579
166.625
167.138
128.956
141.425
149.13
154.566
158.616
161.676
163.955
165.579
166.625
167.138
128.956
141.425
149.13
154.566
158.617
161.676
163.955
165.58
166.625
167.138
110.441
121.653
129.623
135.444
139.791
143.057
145.477
147.193
148.294
148.833
110.441
121.653
129.623
135.444
139.791
143.057
145.477
147.193
148.294
148.833
110.441
121.653
129.623
135.444
139.791
143.057
145.476
147.193
148.294
148.833
110.441
121.653
129.623
135.444
139.791
143.057
145.476
147.192
148.294
148.833
110.441
121.653
129.623
135.444
139.791
143.057
145.476
147.192
148.294
148.833
110.441
121.653
129.623
135.444
139.791
143.057
145.476
147.192
148.294
148.833
110.441
121.653
129.623
135.444
139.791
143.057
145.476
147.192
148.294
148.833
110.441
121.653
129.623
135.444
139.791
143.057
145.476
147.193
148.294
148.833
110.441
121.653
129.623
135.444
139.791
143.057
145.477
147.193
148.294
148.833
110.441
121.653
129.623
135.444
139.791
143.057
145.477
147.193
148.294
148.833
96.8914
105.95
113.104
118.642
122.901
126.148
128.57
130.293
131.401
131.944
96.8913
105.949
113.104
118.642
122.901
126.148
128.57
130.293
131.401
131.944
96.8912
105.949
113.104
118.642
122.901
126.148
128.569
130.293
131.401
131.944
96.8912
105.949
113.104
118.641
122.901
126.148
128.569
130.293
131.401
131.944
96.8911
105.949
113.104
118.641
122.901
126.148
128.569
130.293
131.401
131.944
96.8911
105.949
113.104
118.641
122.901
126.148
128.569
130.293
131.401
131.944
96.8911
105.949
113.104
118.641
122.901
126.148
128.569
130.293
131.401
131.944
96.8912
105.949
113.104
118.642
122.901
126.148
128.569
130.293
131.401
131.944
96.8913
105.949
113.104
118.642
122.901
126.148
128.57
130.293
131.401
131.944
96.8914
105.95
113.104
118.642
122.901
126.148
128.57
130.293
131.401
131.944
85.7836
92.9861
99.0503
103.976
107.891
110.939
113.243
114.896
115.964
116.488
85.7835
92.986
99.0502
103.976
107.891
110.939
113.242
114.896
115.964
116.488
85.7834
92.9859
99.0501
103.976
107.891
110.939
113.242
114.896
115.964
116.488
85.7833
92.9858
99.05
103.976
107.891
110.938
113.242
114.896
115.964
116.488
85.7833
92.9858
99.05
103.976
107.891
110.938
113.242
114.896
115.964
116.488
85.7833
92.9858
99.05
103.976
107.891
110.938
113.242
114.896
115.964
116.488
85.7833
92.9858
99.05
103.976
107.891
110.938
113.242
114.896
115.964
116.488
85.7834
92.9859
99.0501
103.976
107.891
110.939
113.242
114.896
115.964
116.488
85.7835
92.986
99.0502
103.976
107.891
110.939
113.242
114.896
115.964
116.488
85.7836
92.9861
99.0503
103.976
107.891
110.939
113.243
114.896
115.964
116.489
76.2981
81.9985
86.9849
91.184
94.6193
97.3527
99.4515
100.974
101.965
102.453
76.298
81.9984
86.9848
91.1838
94.6191
97.3525
99.4514
100.974
101.965
102.453
76.2979
81.9983
86.9847
91.1838
94.6191
97.3525
99.4513
100.974
101.965
102.453
76.2979
81.9983
86.9847
91.1837
94.619
97.3524
99.4512
100.974
101.965
102.453
76.2978
81.9982
86.9846
91.1837
94.619
97.3524
99.4512
100.974
101.964
102.453
76.2978
81.9982
86.9846
91.1837
94.619
97.3524
99.4512
100.974
101.965
102.453
76.2979
81.9983
86.9847
91.1837
94.619
97.3524
99.4512
100.974
101.965
102.453
76.2979
81.9983
86.9847
91.1838
94.6191
97.3525
99.4513
100.974
101.965
102.453
76.298
81.9984
86.9848
91.1839
94.6192
97.3526
99.4514
100.974
101.965
102.453
76.2981
81.9985
86.985
91.184
94.6193
97.3527
99.4515
100.974
101.965
102.453
68.103
72.5581
76.5531
80.0126
82.9162
85.2761
87.1181
88.4705
89.3576
89.7968
68.1029
72.558
76.553
80.0125
82.9161
85.276
87.118
88.4704
89.3575
89.7967
68.1028
72.5579
76.5529
80.0124
82.916
85.2759
87.1179
88.4703
89.3574
89.7966
68.1027
72.5578
76.5528
80.0123
82.916
85.2758
87.1178
88.4702
89.3574
89.7966
68.1027
72.5578
76.5528
80.0123
82.9159
85.2758
87.1178
88.4702
89.3573
89.7965
68.1027
72.5578
76.5528
80.0123
82.9159
85.2758
87.1178
88.4702
89.3573
89.7966
68.1027
72.5578
76.5528
80.0123
82.916
85.2759
87.1178
88.4702
89.3574
89.7966
68.1028
72.5579
76.5529
80.0124
82.916
85.2759
87.1179
88.4703
89.3575
89.7967
68.1029
72.558
76.553
80.0125
82.9161
85.276
87.118
88.4704
89.3576
89.7968
68.103
72.5581
76.5531
80.0126
82.9163
85.2762
87.1181
88.4705
89.3577
89.7969
61.0308
64.4015
67.4929
70.2437
72.6128
74.5809
76.144
77.3066
78.076
78.4589
61.0307
64.4014
67.4928
70.2436
72.6127
74.5808
76.1439
77.3064
78.0759
78.4588
61.0306
64.4013
67.4927
70.2435
72.6126
74.5807
76.1438
77.3064
78.0758
78.4587
61.0306
64.4012
67.4926
70.2434
72.6126
74.5807
76.1437
77.3063
78.0757
78.4586
61.0306
64.4012
67.4926
70.2434
72.6125
74.5806
76.1437
77.3063
78.0757
78.4586
61.0306
64.4012
67.4926
70.2434
72.6125
74.5806
76.1437
77.3063
78.0757
78.4586
61.0306
64.4013
67.4926
70.2434
72.6126
74.5807
76.1438
77.3063
78.0758
78.4587
61.0306
64.4013
67.4927
70.2435
72.6126
74.5807
76.1438
77.3064
78.0758
78.4588
61.0307
64.4014
67.4928
70.2436
72.6127
74.5808
76.1439
77.3065
78.0759
78.4589
61.0309
64.4015
67.4929
70.2437
72.6129
74.581
76.144
77.3066
78.0761
78.459
54.9709
57.3345
59.5945
61.6871
63.5494
65.1367
66.4221
67.3918
68.0399
68.3642
54.9707
57.3344
59.5943
61.687
63.5493
65.1366
66.422