/*--------------------------------*- C++ -*----------------------------------*\
  =========                 |
  \\      /  F ield         | OpenFOAM: The Open Source CFD Toolbox
   \\    /   O peration     | Website:  https://openfoam.org
    \\  /    A nd           | Version:  6
     \\/     M anipulation  |
\*---------------------------------------------------------------------------*/
FoamFile
{
    version     2.0;
    format      ascii;
    class       volScalarField;
    location    "0.805";
    object      T;
}
// * * * * * * * * * * * * * * * * * * * * * * * * * * * * * * * * * * * * * //

dimensions      [0 0 0 1 0 0 0];

internalField   nonuniform List<scalar> 
7000
(
106.432
106.431
106.427
106.423
106.417
106.411
106.406
106.4
106.396
106.394
106.432
106.431
106.427
106.423
106.417
106.411
106.406
106.4
106.396
106.394
106.432
106.431
106.427
106.423
106.417
106.411
106.406
106.4
106.396
106.394
106.432
106.431
106.427
106.423
106.417
106.411
106.406
106.4
106.396
106.394
106.432
106.431
106.427
106.423
106.417
106.411
106.406
106.4
106.396
106.394
106.432
106.431
106.427
106.423
106.417
106.411
106.406
106.4
106.396
106.394
106.432
106.431
106.427
106.423
106.417
106.411
106.406
106.4
106.396
106.394
106.432
106.431
106.427
106.423
106.417
106.411
106.406
106.4
106.396
106.394
106.432
106.431
106.427
106.423
106.417
106.411
106.406
106.4
106.396
106.394
106.432
106.431
106.427
106.423
106.417
106.411
106.406
106.4
106.396
106.394
99.3199
99.3149
99.3051
99.2914
99.2746
99.2562
99.2379
99.2217
99.2095
99.2029
99.3199
99.3148
99.3051
99.2913
99.2746
99.2562
99.2379
99.2217
99.2095
99.2029
99.3199
99.3148
99.3051
99.2913
99.2746
99.2562
99.2379
99.2217
99.2095
99.2029
99.3199
99.3148
99.3051
99.2913
99.2745
99.2562
99.2379
99.2217
99.2095
99.2029
99.3199
99.3148
99.3051
99.2913
99.2745
99.2562
99.2379
99.2217
99.2095
99.2029
99.3199
99.3148
99.3051
99.2913
99.2745
99.2562
99.2379
99.2217
99.2095
99.2029
99.3199
99.3148
99.3051
99.2913
99.2745
99.2562
99.2379
99.2217
99.2095
99.2029
99.3199
99.3148
99.3051
99.2913
99.2745
99.2562
99.2379
99.2217
99.2095
99.2029
99.3199
99.3148
99.3051
99.2913
99.2746
99.2562
99.2379
99.2217
99.2095
99.2029
99.3199
99.3148
99.3051
99.2913
99.2746
99.2562
99.2379
99.2217
99.2095
99.2029
92.2758
92.2672
92.2505
92.2268
92.1978
92.1658
92.1337
92.105
92.0833
92.0715
92.2757
92.2671
92.2505
92.2268
92.1978
92.1658
92.1337
92.105
92.0832
92.0715
92.2757
92.2671
92.2505
92.2268
92.1978
92.1658
92.1337
92.105
92.0832
92.0715
92.2757
92.2671
92.2504
92.2268
92.1978
92.1657
92.1337
92.105
92.0832
92.0715
92.2757
92.2671
92.2504
92.2268
92.1978
92.1657
92.1337
92.105
92.0832
92.0715
92.2757
92.2671
92.2504
92.2268
92.1978
92.1657
92.1337
92.105
92.0832
92.0715
92.2757
92.2671
92.2504
92.2268
92.1978
92.1657
92.1337
92.105
92.0832
92.0715
92.2757
92.2671
92.2504
92.2268
92.1978
92.1657
92.1337
92.105
92.0832
92.0715
92.2757
92.2671
92.2504
92.2268
92.1978
92.1658
92.1337
92.105
92.0832
92.0715
92.2757
92.2671
92.2505
92.2268
92.1978
92.1658
92.1337
92.105
92.0833
92.0715
85.3446
85.3321
85.3079
85.2734
85.2306
85.1829
85.1345
85.0906
85.0569
85.0384
85.3446
85.3321
85.3079
85.2733
85.2306
85.1829
85.1345
85.0906
85.0568
85.0384
85.3445
85.3321
85.3079
85.2733
85.2306
85.1829
85.1345
85.0906
85.0568
85.0384
85.3445
85.3321
85.3079
85.2733
85.2306
85.1829
85.1345
85.0906
85.0568
85.0384
85.3445
85.3321
85.3079
85.2733
85.2306
85.1829
85.1345
85.0905
85.0568
85.0383
85.3445
85.3321
85.3079
85.2733
85.2306
85.1829
85.1345
85.0905
85.0568
85.0383
85.3445
85.3321
85.3079
85.2733
85.2306
85.1829
85.1345
85.0905
85.0568
85.0384
85.3445
85.3321
85.3079
85.2733
85.2306
85.1829
85.1345
85.0906
85.0568
85.0384
85.3445
85.3321
85.3079
85.2733
85.2306
85.1829
85.1345
85.0906
85.0568
85.0384
85.3446
85.3321
85.3079
85.2733
85.2306
85.1829
85.1345
85.0906
85.0568
85.0384
78.5697
78.5531
78.5207
78.474
78.4156
78.3494
78.2809
78.2173
78.1674
78.1397
78.5697
78.5531
78.5207
78.474
78.4156
78.3493
78.2808
78.2173
78.1674
78.1396
78.5696
78.5531
78.5206
78.474
78.4155
78.3493
78.2808
78.2173
78.1674
78.1396
78.5696
78.553
78.5206
78.4739
78.4155
78.3493
78.2808
78.2173
78.1674
78.1396
78.5696
78.553
78.5206
78.4739
78.4155
78.3493
78.2808
78.2173
78.1674
78.1396
78.5696
78.553
78.5206
78.4739
78.4155
78.3493
78.2808
78.2173
78.1674
78.1396
78.5696
78.553
78.5206
78.4739
78.4155
78.3493
78.2808
78.2173
78.1674
78.1396
78.5696
78.553
78.5206
78.4739
78.4155
78.3493
78.2808
78.2173
78.1674
78.1396
78.5696
78.5531
78.5206
78.474
78.4156
78.3493
78.2808
78.2173
78.1674
78.1396
78.5697
78.5531
78.5207
78.474
78.4156
78.3494
78.2808
78.2173
78.1674
78.1397
71.9925
71.9715
71.9304
71.8705
71.7943
71.7061
71.6123
71.5225
71.4494
71.4075
71.9924
71.9715
71.9304
71.8704
71.7943
71.7061
71.6123
71.5225
71.4494
71.4075
71.9924
71.9715
71.9303
71.8704
71.7942
71.706
71.6122
71.5224
71.4494
71.4075
71.9924
71.9715
71.9303
71.8704
71.7942
71.706
71.6122
71.5224
71.4494
71.4075
71.9924
71.9714
71.9303
71.8704
71.7942
71.706
71.6122
71.5224
71.4494
71.4074
71.9924
71.9714
71.9303
71.8704
71.7942
71.706
71.6122
71.5224
71.4494
71.4074
71.9924
71.9714
71.9303
71.8704
71.7942
71.706
71.6122
71.5224
71.4494
71.4075
71.9924
71.9715
71.9303
71.8704
71.7942
71.706
71.6122
71.5224
71.4494
71.4075
71.9924
71.9715
71.9303
71.8704
71.7943
71.706
71.6123
71.5224
71.4494
71.4075
71.9924
71.9715
71.9304
71.8704
71.7943
71.7061
71.6123
71.5225
71.4494
71.4075
65.6517
65.6265
65.5766
65.5028
65.4073
65.2935
65.168
65.042
64.9337
64.8682
65.6517
65.6265
65.5765
65.5028
65.4073
65.2935
65.1679
65.0419
64.9337
64.8681
65.6516
65.6264
65.5765
65.5028
65.4072
65.2934
65.1679
65.0419
64.9337
64.8681
65.6516
65.6264
65.5765
65.5028
65.4072
65.2934
65.1679
65.0419
64.9337
64.8681
65.6516
65.6264
65.5764
65.5027
65.4072
65.2934
65.1679
65.0419
64.9336
64.8681
65.6516
65.6264
65.5764
65.5027
65.4072
65.2934
65.1679
65.0419
64.9336
64.8681
65.6516
65.6264
65.5765
65.5027
65.4072
65.2934
65.1679
65.0419
64.9336
64.8681
65.6516
65.6264
65.5765
65.5028
65.4072
65.2934
65.1679
65.0419
64.9337
64.8681
65.6516
65.6264
65.5765
65.5028
65.4072
65.2935
65.1679
65.0419
64.9337
64.8681
65.6517
65.6265
65.5765
65.5028
65.4073
65.2935
65.1679
65.0419
64.9337
64.8682
59.583
59.554
59.4961
59.4093
59.2943
59.1524
58.9882
58.8121
58.6474
58.5373
59.5829
59.5539
59.496
59.4093
59.2942
59.1524
58.9881
58.812
58.6473
58.5373
59.5829
59.5539
59.496
59.4092
59.2942
59.1524
58.9881
58.812
58.6473
58.5372
59.5829
59.5539
59.496
59.4092
59.2941
59.1523
58.9881
58.812
58.6473
58.5372
59.5829
59.5539
59.4959
59.4092
59.2941
59.1523
58.9881
58.812
58.6473
58.5372
59.5829
59.5539
59.4959
59.4092
59.2941
59.1523
58.9881
58.8119
58.6473
58.5372
59.5829
59.5539
59.496
59.4092
59.2941
59.1523
58.9881
58.812
58.6473
58.5372
59.5829
59.5539
59.496
59.4092
59.2942
59.1523
58.9881
58.812
58.6473
58.5372
59.5829
59.5539
59.496
59.4093
59.2942
59.1524
58.9881
58.812
58.6473
58.5373
59.5829
59.554
59.496
59.4093
59.2942
59.1524
58.9882
58.812
58.6474
58.5373
53.8176
53.786
53.7223
53.6255
53.4939
53.3252
53.1178
52.8747
52.6159
52.4095
53.8176
53.7859
53.7223
53.6255
53.4938
53.3252
53.1178
52.8746
52.6159
52.4094
53.8175
53.7859
53.7222
53.6254
53.4938
53.3251
53.1177
52.8746
52.6158
52.4094
53.8175
53.7859
53.7222
53.6254
53.4938
53.3251
53.1177
52.8746
52.6158
52.4094
53.8175
53.7859
53.7222
53.6254
53.4938
53.3251
53.1177
52.8745
52.6158
52.4094
53.8175
53.7859
53.7222
53.6254
53.4938
53.3251
53.1177
52.8745
52.6158
52.4094
53.8175
53.7859
53.7222
53.6254
53.4938
53.3251
53.1177
52.8746
52.6158
52.4094
53.8175
53.7859
53.7222
53.6254
53.4938
53.3251
53.1177
52.8746
52.6158
52.4094
53.8175
53.7859
53.7222
53.6254
53.4938
53.3251
53.1177
52.8746
52.6159
52.4094
53.8176
53.786
53.7223
53.6255
53.4939
53.3252
53.1178
52.8747
52.6159
52.4095
48.3818
48.3495
48.284
48.1832
48.0431
47.8565
47.6114
47.2905
46.8788
46.4285
48.3817
48.3494
48.284
48.1832
48.0431
47.8564
47.6114
47.2904
46.8788
46.4285
48.3817
48.3494
48.2839
48.1832
48.043
47.8564
47.6113
47.2904
46.8787
46.4284
48.3817
48.3494
48.2839
48.1831
48.043
47.8564
47.6113
47.2904
46.8787
46.4284
48.3816
48.3493
48.2839
48.1831
48.043
47.8563
47.6113
47.2903
46.8787
46.4284
48.3816
48.3493
48.2839
48.1831
48.043
47.8563
47.6113
47.2903
46.8787
46.4284
48.3816
48.3493
48.2839
48.1831
48.043
47.8563
47.6113
47.2904
46.8787
46.4284
48.3817
48.3494
48.2839
48.1831
48.043
47.8564
47.6113
47.2904
46.8787
46.4284
48.3817
48.3494
48.2839
48.1832
48.043
47.8564
47.6114
47.2904
46.8788
46.4284
48.3817
48.3494
48.284
48.1832
48.0431
47.8565
47.6114
47.2905
46.8788
46.4285
43.2954
43.265
43.2034
43.1081
42.9739
42.7904
42.5365
42.1659
41.5642
40.3948
43.2953
43.265
43.2034
43.108
42.9738
42.7904
42.5365
42.1659
41.5641
40.3947
43.2953
43.2649
43.2033
43.108
42.9738
42.7903
42.5364
42.1658
41.5641
40.3947
43.2952
43.2649
43.2033
43.108
42.9738
42.7903
42.5364
42.1658
41.5641
40.3947
43.2952
43.2649
43.2033
43.108
42.9737
42.7903
42.5364
42.1658
41.564
40.3946
43.2952
43.2649
43.2033
43.108
42.9737
42.7903
42.5364
42.1658
41.564
40.3946
43.2952
43.2649
43.2033
43.108
42.9737
42.7903
42.5364
42.1658
41.5641
40.3947
43.2952
43.2649
43.2033
43.108
42.9738
42.7903
42.5364
42.1658
41.5641
40.3947
43.2953
43.265
43.2034
43.108
42.9738
42.7903
42.5364
42.1658
41.5641
40.3947
43.2953
43.265
43.2034
43.1081
42.9739
42.7904
42.5365
42.1659
41.5642
40.3948
38.5711
38.5458
38.4947
38.4162
38.3068
38.1589
37.9567
37.6688
37.237
36.5739
38.5711
38.5457
38.4946
38.4161
38.3068
38.1589
37.9566
37.6688
37.2369
36.5739
38.571
38.5457
38.4946
38.4161
38.3067
38.1588
37.9566
37.6687
37.2369
36.5738
38.571
38.5457
38.4945
38.4161
38.3067
38.1588
37.9566
37.6687
37.2368
36.5738
38.571
38.5457
38.4945
38.416
38.3067
38.1588
37.9566
37.6687
37.2368
36.5738
38.571
38.5457
38.4945
38.416
38.3067
38.1588
37.9566
37.6687
37.2368
36.5738
38.571
38.5457
38.4945
38.416
38.3067
38.1588
37.9566
37.6687
37.2368
36.5738
38.571
38.5457
38.4945
38.4161
38.3067
38.1588
37.9566
37.6687
37.2368
36.5738
38.5711
38.5457
38.4946
38.4161
38.3068
38.1589
37.9566
37.6687
37.2369
36.5738
38.5711
38.5458
38.4946
38.4162
38.3068
38.1589
37.9567
37.6688
37.2369
36.5739
34.2143
34.1967
34.1622
34.1112
34.0443
33.9606
33.8578
33.7319
33.584
33.4486
34.2142
34.1967
34.1621
34.1112
34.0442
33.9606
33.8578
33.7319
33.5839
33.4485
34.2142
34.1967
34.1621
34.1111
34.0442
33.9605
33.8577
33.7318
33.5838
33.4485
34.2142
34.1966
34.1621
34.1111
34.0441
33.9605
33.8577
33.7318
33.5838
33.4484
34.2141
34.1966
34.162
34.1111
34.0441
33.9605
33.8577
33.7318
33.5838
33.4484
34.2141
34.1966
34.162
34.1111
34.0441
33.9605
33.8577
33.7318
33.5838
33.4484
34.2142
34.1966
34.162
34.1111
34.0441
33.9605
33.8577
33.7318
33.5838
33.4484
34.2142
34.1966
34.1621
34.1111
34.0441
33.9605
33.8577
33.7318
33.5838
33.4485
34.2142
34.1967
34.1621
34.1112
34.0442
33.9605
33.8578
33.7318
33.5839
33.4485
34.2142
34.1967
34.1622
34.1112
34.0442
33.9606
33.8578
33.7319
33.5839
33.4486
30.2226
30.2149
30.2013
30.1853
30.1721
30.1693
30.1879
30.2453
30.3745
30.6429
30.2226
30.2149
30.2013
30.1852
30.172
30.1693
30.1878
30.2453
30.3745
30.6428
30.2225
30.2148
30.2012
30.1852
30.172
30.1692
30.1878
30.2452
30.3744
30.6428
30.2225
30.2148
30.2012
30.1852
30.172
30.1692
30.1877
30.2452
30.3744
30.6427
30.2225
30.2148
30.2012
30.1851
30.1719
30.1692
30.1877
30.2452
30.3743
30.6427
30.2225
30.2148
30.2012
30.1851
30.1719
30.1692
30.1877
30.2452
30.3743
30.6427
30.2225
30.2148
30.2012
30.1852
30.172
30.1692
30.1877
30.2452
30.3744
30.6427
30.2225
30.2148
30.2012
30.1852
30.172
30.1692
30.1878
30.2452
30.3744
30.6428
30.2225
30.2149
30.2013
30.1852
30.172
30.1692
30.1878
30.2453
30.3744
30.6428
30.2226
30.2149
30.2013
30.1853
30.1721
30.1693
30.1879
30.2453
30.3745
30.6429
26.5875
26.5906
26.5999
26.6216
26.666
26.7481
26.8892
27.1205
27.4874
28.0575
26.5875
26.5905
26.5998
26.6216
26.666
26.748
26.8891
27.1204
27.4873
28.0574
26.5874
26.5905
26.5998
26.6215
26.6659
26.748
26.8891
27.1204
27.4873
28.0573
26.5874
26.5905
26.5997
26.6215
26.6659
26.7479
26.8891
27.1203
27.4873
28.0573
26.5874
26.5905
26.5997
26.6215
26.6659
26.7479
26.8891
27.1203
27.4872
28.0573
26.5874
26.5905
26.5997
26.6215
26.6659
26.7479
26.8891
27.1203
27.4872
28.0573
26.5874
26.5905
26.5997
26.6215
26.6659
26.7479
26.8891
27.1203
27.4873
28.0573
26.5874
26.5905
26.5998
26.6215
26.6659
26.748
26.8891
27.1204
27.4873
28.0573
26.5874
26.5905
26.5998
26.6216
26.666
26.748
26.8891
27.1204
27.4873
28.0574
26.5875
26.5906
26.5999
26.6216
26.666
26.7481
26.8892
27.1205
27.4874
28.0574
23.2953
23.3088
23.3402
23.3981
23.4968
23.6575
23.9094
24.2925
24.8579
25.6659
23.2953
23.3088
23.3401
23.398
23.4968
23.6574
23.9094
24.2925
24.8578
25.6658
23.2952
23.3087
23.3401
23.398
23.4968
23.6574
23.9093
24.2924
24.8578
25.6658
23.2952
23.3087
23.34
23.398
23.4967
23.6573
23.9093
24.2924
24.8578
25.6657
23.2952
23.3087
23.34
23.3979
23.4967
23.6573
23.9093
24.2924
24.8577
25.6657
23.2952
23.3087
23.34
23.3979
23.4967
23.6573
23.9093
24.2924
24.8577
25.6657
23.2952
23.3087
23.34
23.398
23.4967
23.6573
23.9093
24.2924
24.8578
25.6657
23.2952
23.3087
23.3401
23.398
23.4967
23.6574
23.9093
24.2924
24.8578
25.6657
23.2952
23.3088
23.3401
23.398
23.4968
23.6574
23.9094
24.2925
24.8578
25.6658
23.2953
23.3088
23.3401
23.3981
23.4968
23.6575
23.9094
24.2925
24.8579
25.6659
20.3288
20.3513
20.4015
20.4898
20.6337
20.8588
21.2011
21.7087
22.4405
23.4564
20.3288
20.3513
20.4014
20.4898
20.6337
20.8588
21.2011
21.7087
22.4404
23.4563
20.3288
20.3513
20.4014
20.4897
20.6337
20.8587
21.201
21.7086
22.4404
23.4563
20.3287
20.3512
20.4014
20.4897
20.6336
20.8587
21.201
21.7086
22.4403
23.4563
20.3287
20.3512
20.4013
20.4897
20.6336
20.8587
21.201
21.7086
22.4403
23.4562
20.3287
20.3512
20.4013
20.4897
20.6336
20.8587
21.201
21.7086
22.4403
23.4562
20.3287
20.3512
20.4013
20.4897
20.6336
20.8587
21.201
21.7086
22.4403
23.4563
20.3287
20.3512
20.4014
20.4897
20.6337
20.8587
21.201
21.7086
22.4404
23.4563
20.3288
20.3513
20.4014
20.4898
20.6337
20.8588
21.2011
21.7087
22.4404
23.4563
20.3288
20.3513
20.4015
20.4898
20.6337
20.8588
21.2011
21.7087
22.4405
23.4564
17.6691
17.6982
17.7619
17.8718
18.0469
18.3155
18.7192
19.316
20.1826
21.4031
17.6691
17.6982
17.7619
17.8718
18.0468
18.3155
18.7191
19.3159
20.1825
21.403
17.669
17.6981
17.7619
17.8718
18.0468
18.3154
18.7191
19.3159
20.1825
21.403
17.669
17.6981
17.7618
17.8717
18.0467
18.3154
18.7191
19.3159
20.1824
21.4029
17.669
17.6981
17.7618
17.8717
18.0467
18.3154
18.7191
19.3158
20.1824
21.4029
17.669
17.6981
17.7618
17.8717
18.0467
18.3154
18.7191
19.3158
20.1824
21.4029
17.669
17.6981
17.7618
17.8717
18.0467
18.3154
18.7191
19.3159
20.1824
21.4029
17.669
17.6981
17.7619
17.8718
18.0468
18.3154
18.7191
19.3159
20.1825
21.403
17.669
17.6982
17.7619
17.8718
18.0468
18.3155
18.7191
19.3159
20.1825
21.403
17.6691
17.6982
17.7619
17.8718
18.0469
18.3155
18.7192
19.316
20.1826
21.4031
15.2966
15.3294
15.4005
15.521
15.7096
15.995
16.4204
17.0528
17.9986
19.4231
15.2966
15.3294
15.4004
15.5209
15.7096
15.9949
16.4203
17.0527
17.9986
19.423
15.2966
15.3294
15.4004
15.5209
15.7095
15.9949
16.4203
17.0527
17.9985
19.423
15.2965
15.3293
15.4004
15.5209
15.7095
15.9949
16.4203
17.0526
17.9985
19.4229
15.2965
15.3293
15.4003
15.5208
15.7095
15.9949
16.4203
17.0526
17.9985
19.4229
15.2965
15.3293
15.4003
15.5208
15.7095
15.9949
16.4203
17.0526
17.9985
19.4229
15.2965
15.3293
15.4004
15.5209
15.7095
15.9949
16.4203
17.0526
17.9985
19.4229
15.2966
15.3294
15.4004
15.5209
15.7095
15.9949
16.4203
17.0527
17.9985
19.423
15.2966
15.3294
15.4004
15.5209
15.7096
15.9949
16.4203
17.0527
17.9986
19.423
15.2966
15.3294
15.4004
15.521
15.7096
15.995
16.4204
17.0528
17.9987
19.4231
13.1927
13.2262
13.298
13.4179
13.6018
13.874
14.2713
14.8544
15.7423
17.2408
13.1926
13.2262
13.298
13.4178
13.6018
13.874
14.2713
14.8544
15.7422
17.2407
13.1926
13.2261
13.2979
13.4178
13.6017
13.8739
14.2712
14.8543
15.7422
17.2407
13.1926
13.2261
13.2979
13.4178
13.6017
13.8739
14.2712
14.8543
15.7422
17.2406
13.1926
13.2261
13.2979
13.4178
13.6017
13.8739
14.2712
14.8543
15.7422
17.2406
13.1926
13.2261
13.2979
13.4178
13.6017
13.8739
14.2712
14.8543
15.7422
17.2406
13.1926
13.2261
13.2979
13.4178
13.6017
13.8739
14.2712
14.8543
15.7422
17.2406
13.1926
13.2261
13.2979
13.4178
13.6017
13.8739
14.2713
14.8543
15.7422
17.2407
13.1926
13.2262
13.298
13.4178
13.6018
13.874
14.2713
14.8544
15.7422
17.2407
13.1927
13.2262
13.298
13.4179
13.6018
13.874
14.2713
14.8544
15.7423
17.2408
37.4661
36.826
37.8052
40.1904
43.972
49.2746
56.3611
65.6981
78.1316
95.358
37.466
36.8259
37.8052
40.1903
43.9719
49.2745
56.361
65.6979
78.1315
95.3579
37.4659
36.8259
37.8051
40.1903
43.9718
49.2744
56.3609
65.6978
78.1314
95.3578
37.4659
36.8258
37.805
40.1902
43.9718
49.2743
56.3608
65.6978
78.1313
95.3577
37.4659
36.8258
37.805
40.1902
43.9717
49.2743
56.3608
65.6977
78.1312
95.3577
37.4659
36.8258
37.805
40.1902
43.9717
49.2743
56.3608
65.6977
78.1312
95.3577
37.4659
36.8258
37.805
40.1902
43.9718
49.2743
56.3608
65.6977
78.1313
95.3577
37.4659
36.8258
37.805
40.1902
43.9718
49.2743
56.3609
65.6978
78.1313
95.3578
37.466
36.8259
37.8051
40.1903
43.9718
49.2744
56.3609
65.6979
78.1314
95.3578
37.466
36.8259
37.8052
40.1904
43.9719
49.2745
56.361
65.6979
78.1315
95.3579
35.6937
35.7756
37.0161
39.4562
43.1565
48.2374
54.8965
63.4233
74.1923
87.5093
35.6936
35.7755
37.016
39.4561
43.1564
48.2373
54.8964
63.4231
74.1921
87.5092
35.6936
35.7754
37.0159
39.456
43.1563
48.2372
54.8963
63.423
74.192
87.5091
35.6935
35.7754
37.0159
39.456
43.1563
48.2372
54.8962
63.423
74.192
87.509
35.6935
35.7753
37.0158
39.4559
43.1562
48.2371
54.8962
63.4229
74.1919
87.509
35.6935
35.7753
37.0158
39.4559
43.1562
48.2371
54.8962
63.4229
74.1919
87.509
35.6935
35.7754
37.0159
39.4559
43.1562
48.2372
54.8962
63.423
74.192
87.509
35.6935
35.7754
37.0159
39.456
43.1563
48.2372
54.8963
63.423
74.192
87.5091
35.6936
35.7754
37.0159
39.456
43.1563
48.2373
54.8963
63.4231
74.1921
87.5092
35.6937
35.7755
37.016
39.4561
43.1564
48.2374
54.8964
63.4232
74.1922
87.5093
33.4839
34.1379
35.6444
38.123
41.6644
46.3671
52.3479
59.7258
68.5567
78.6498
33.4838
34.1378
35.6443
38.1229
41.6643
46.367
52.3478
59.7256
68.5566
78.6497
33.4837
34.1378
35.6442
38.1229
41.6642
46.3669
52.3477
59.7255
68.5565
78.6496
33.4837
34.1377
35.6442
38.1228
41.6641
46.3669
52.3477
59.7255
68.5564
78.6495
33.4836
34.1377
35.6441
38.1228
41.6641
46.3668
52.3476
59.7254
68.5564
78.6495
33.4836
34.1377
35.6441
38.1228
41.6641
46.3668
52.3476
59.7254
68.5564
78.6495
33.4837
34.1377
35.6442
38.1228
41.6641
46.3669
52.3477
59.7255
68.5564
78.6495
33.4837
34.1377
35.6442
38.1228
41.6642
46.3669
52.3477
59.7255
68.5564
78.6496
33.4837
34.1378
35.6443
38.1229
41.6642
46.367
52.3478
59.7256
68.5565
78.6497
33.4838
34.1379
35.6443
38.123
41.6643
46.3671
52.3479
59.7257
68.5566
78.6498
31.1856
32.2209
33.9167
36.3862
39.7116
43.9598
49.1815
55.3898
62.5058
70.2602
31.1855
32.2208
33.9166
36.3861
39.7115
43.9596
49.1814
55.3897
62.5056
70.2601
31.1855
32.2207
33.9166
36.3861
39.7114
43.9596
49.1813
55.3896
62.5055
70.26
31.1854
32.2207
33.9165
36.386
39.7114
43.9595
49.1812
55.3895
62.5055
70.2599
31.1854
32.2207
33.9165
36.386
39.7113
43.9595
49.1812
55.3895
62.5055
70.2599
31.1854
32.2207
33.9165
36.386
39.7113
43.9595
49.1812
55.3895
62.5055
70.2599
31.1854
32.2207
33.9165
36.386
39.7114
43.9595
49.1812
55.3895
62.5055
70.2599
31.1855
32.2207
33.9166
36.386
39.7114
43.9595
49.1813
55.3895
62.5055
70.26
31.1855
32.2208
33.9166
36.3861
39.7115
43.9596
49.1814
55.3896
62.5056
70.2601
31.1856
32.2209
33.9167
36.3862
39.7116
43.9597
49.1815
55.3897
62.5057
70.2602
28.927
30.2156
32.0291
34.4487
37.5319
41.3139
45.801
50.9532
56.6552
62.6786
28.9269
30.2155
32.029
34.4486
37.5318
41.3138
45.8008
50.9531
56.6551
62.6785
28.9269
30.2154
32.029
34.4485
37.5317
41.3137
45.8008
50.953
56.655
62.6784
28.9268
30.2154
32.0289
34.4485
37.5317
41.3137
45.8007
50.9529
56.6549
62.6783
28.9268
30.2154
32.0289
34.4484
37.5316
41.3137
45.8007
50.9529
56.6549
62.6783
28.9268
30.2154
32.0289
34.4484
37.5316
41.3137
45.8007
50.9529
56.6549
62.6783
28.9268
30.2154
32.0289
34.4485
37.5317
41.3137
45.8007
50.9529
56.6549
62.6783
28.9268
30.2154
32.029
34.4485
37.5317
41.3137
45.8008
50.953
56.655
62.6784
28.9269
30.2155
32.029
34.4486
37.5318
41.3138
45.8008
50.9531
56.6551
62.6785
28.927
30.2156
32.0291
34.4487
37.5319
41.3139
45.8009
50.9532
56.6552
62.6786
26.7791
28.2542
30.1447
32.4972
35.3429
38.6909
42.5192
46.7644
51.3112
55.9885
26.7791
28.2541
30.1446
32.4971
35.3428
38.6908
42.5191
46.7643
51.3111
55.9884
26.779
28.254
30.1446
32.497
35.3427
38.6907
42.519
46.7642
51.311
55.9883
26.779
28.254
30.1445
32.497
35.3427
38.6906
42.5189
46.7641
51.3109
55.9882
26.7789
28.2539
30.1445
32.4969
35.3426
38.6906
42.5189
46.7641
51.3109
55.9882
26.7789
28.2539
30.1445
32.4969
35.3426
38.6906
42.5189
46.7641
51.3109
55.9882
26.779
28.254
30.1445
32.497
35.3426
38.6906
42.5189
46.7641
51.3109
55.9882
26.779
28.254
30.1446
32.497
35.3427
38.6907
42.519
46.7642
51.311
55.9883
26.779
28.2541
30.1446
32.4971
35.3428
38.6908
42.5191
46.7642
51.3111
55.9884
26.7791
28.2541
30.1447
32.4972
35.3429
38.6909
42.5192
46.7644
51.3112
55.9885
24.7934
26.4401
28.4015
30.6955
33.3337
36.307
39.5748
43.0602
46.6516
50.22
24.7933
26.44
28.4014
30.6954
33.3336
36.3069
39.5747
43.06
46.6515
50.2199
24.7933
26.44
28.4014
30.6953
33.3336
36.3068
39.5746
43.06
46.6514
50.2198
24.7932
26.4399
28.4013
30.6953
33.3335
36.3068
39.5746
43.0599
46.6513
50.2197
24.7932
26.4399
28.4013
30.6952
33.3335
36.3068
39.5746
43.0599
46.6513
50.2197
24.7932
26.4399
28.4013
30.6952
33.3335
36.3068
39.5746
43.0599
46.6513
50.2197
24.7932
26.4399
28.4013
30.6953
33.3335
36.3068
39.5746
43.0599
46.6513
50.2197
24.7933
26.44
28.4014
30.6953
33.3336
36.3068
39.5746
43.06
46.6514
50.2198
24.7933
26.44
28.4014
30.6954
33.3336
36.3069
39.5747
43.0601
46.6515
50.2199
24.7934
26.4401
28.4015
30.6955
33.3337
36.307
39.5748
43.0602
46.6516
50.22
23.013
24.8663
26.9215
29.1854
31.6641
34.3396
37.1574
40.0243
42.8156
45.4079
23.0129
24.8662
26.9214
29.1853
31.664
34.3395
37.1573
40.0242
42.8155
45.4078
23.0128
24.8662
26.9214
29.1852
31.664
34.3394
37.1573
40.0242
42.8154
45.4077
23.0128
24.8661
26.9213
29.1852
31.6639
34.3394
37.1572
40.0241
42.8153
45.4076
23.0128
24.8661
26.9213
29.1851
31.6639
34.3393
37.1572
40.0241
42.8153
45.4076
23.0128
24.8661
26.9213
29.1851
31.6639
34.3393
37.1572
40.0241
42.8153
45.4076
23.0128
24.8661
26.9213
29.1852
31.6639
34.3394
37.1572
40.0241
42.8154
45.4076
23.0128
24.8662
26.9214
29.1852
31.664
34.3394
37.1573
40.0242
42.8154
45.4077
23.0129
24.8662
26.9215
29.1853
31.6641
34.3395
37.1574
40.0243
42.8155
45.4078
23.013
24.8663
26.9215
29.1854
31.6642
34.3396
37.1575
40.0244
42.8156
45.4079
21.4923
23.6366
25.8211
28.0892
30.4654
32.9329
35.4264
37.8275
39.9651
41.6405
21.4923
23.6366
25.821
28.0892
30.4653
32.9328
35.4263
37.8274
39.965
41.6404
21.4922
23.6365
25.821
28.0891
30.4653
32.9328
35.4263
37.8273
39.9649
41.6403
21.4922
23.6365
25.8209
28.0891
30.4652
32.9327
35.4262
37.8273
39.9648
41.6403
21.4922
23.6365
25.8209
28.089
30.4652
32.9327
35.4262
37.8273
39.9648
41.6403
21.4922
23.6365
25.8209
28.089
30.4652
32.9327
35.4262
37.8273
39.9648
41.6403
21.4922
23.6365
25.821
28.0891
30.4652
32.9327
35.4262
37.8273
39.9648
41.6403
21.4922
23.6365
25.821
28.0891
30.4653
32.9328
35.4263
37.8274
39.9649
41.6403
21.4923
23.6366
25.8211
28.0892
30.4654
32.9329
35.4264
37.8274
39.965
41.6404
21.4923
23.6367
25.8211
28.0893
30.4655
32.933
35.4265
37.8276
39.9651
41.6406
20.3865
22.9038
25.2186
27.5084
29.8375
32.1975
34.5161
36.6485
38.3508
39.2053
20.3865
22.9037
25.2186
27.5084
29.8374
32.1975
34.516
36.6484
38.3508
39.2052
20.3864
22.9037
25.2185
27.5083
29.8373
32.1974
34.5159
36.6484
38.3507
39.2051
20.3864
22.9037
25.2185
27.5083
29.8373
32.1974
34.5159
36.6483
38.3506
39.2051
20.3864
22.9036
25.2185
27.5083
29.8373
32.1973
34.5159
36.6483
38.3506
39.205
20.3864
22.9036
25.2185
27.5083
29.8373
32.1973
34.5159
36.6483
38.3506
39.205
20.3864
22.9037
25.2185
27.5083
29.8373
32.1974
34.5159
36.6483
38.3507
39.2051
20.3865
22.9037
25.2185
27.5083
29.8374
32.1974
34.516
36.6484
38.3507
39.2051
20.3865
22.9038
25.2186
27.5084
29.8374
32.1975
34.516
36.6485
38.3508
39.2052
20.3866
22.9038
25.2187
27.5085
29.8375
32.1976
34.5162
36.6486
38.3509
39.2053
121.313
133.692
141.305
146.653
150.621
153.608
155.827
157.405
158.419
158.915
121.313
133.691
141.305
146.652
150.621
153.608
155.827
157.404
158.418
158.915
121.313
133.691
141.305
146.652
150.621
153.608
155.827
157.404
158.418
158.915
121.313
133.691
141.305
146.652
150.621
153.608
155.827
157.404
158.418
158.915
121.313
133.691
141.305
146.652
150.621
153.608
155.827
157.404
158.418
158.915
121.313
133.691
141.305
146.652
150.621
153.608
155.827
157.404
158.418
158.915
121.313
133.691
141.305
146.652
150.621
153.608
155.827
157.404
158.418
158.915
121.313
133.691
141.305
146.652
150.621
153.608
155.827
157.404
158.418
158.915
121.313
133.691
141.305
146.652
150.621
153.608
155.827
157.404
158.418
158.915
121.313
133.691
141.305
146.652
150.621
153.608
155.827
157.405
158.419
158.915
102.717
113.798
121.651
127.366
131.619
134.804
137.157
138.822
139.889
140.41
102.716
113.798
121.651
127.366
131.619
134.804
137.157
138.822
139.889
140.41
102.716
113.798
121.651
127.366
131.619
134.804
137.157
138.822
139.889
140.41
102.716
113.798
121.651
127.366
131.619
134.804
137.157
138.822
139.889
140.41
102.716
113.798
121.651
127.365
131.619
134.804
137.157
138.822
139.889
140.41
102.716
113.798
121.651
127.365
131.619
134.804
137.157
138.822
139.889
140.41
102.716
113.798
121.651
127.366
131.619
134.804
137.157
138.822
139.889
140.41
102.716
113.798
121.651
127.366
131.619
134.804
137.157
138.822
139.889
140.41
102.716
113.798
121.651
127.366
131.619
134.804
137.157
138.822
139.889
140.41
102.717
113.798
121.651
127.366
131.619
134.804
137.157
138.822
139.889
140.41
89.1484
98.053
105.073
110.493
114.65
117.81
120.161
121.831
122.902
123.426
89.1482
98.0529
105.073
110.493
114.65
117.81
120.161
121.83
122.902
123.426
89.1481
98.0527
105.073
110.493
114.65
117.81
120.161
121.83
122.902
123.426
89.148
98.0527
105.073
110.493
114.65
117.81
120.161
121.83
122.902
123.426
89.148
98.0526
105.073
110.493
114.65
117.81
120.161
121.83
122.902
123.426
89.148
98.0526
105.073
110.493
114.65
117.81
120.161
121.83
122.902
123.426
89.148
98.0527
105.073
110.493
114.65
117.81
120.161
121.83
122.902
123.426
89.1481
98.0527
105.073
110.493
114.65
117.81
120.161
121.83
122.902
123.426
89.1482
98.0528
105.073
110.493
114.65
117.81
120.161
121.831
122.902
123.426
89.1483
98.053
105.073
110.493
114.65
117.81
120.161
121.831
122.902
123.427
78.0739
85.1135
91.0361
95.839
99.6476
102.606
104.837
106.436
107.467
107.973
78.0738
85.1134
91.0359
95.8388
99.6474
102.606
104.837
106.435
107.467
107.972
78.0737
85.1133
91.0358
95.8387
99.6473
102.606
104.837
106.435
107.467
107.972
78.0736
85.1132
91.0358
95.8386
99.6473
102.606
104.837
106.435
107.467
107.972
78.0736
85.1132
91.0357
95.8386
99.6472
102.606
104.837
106.435
107.467
107.972
78.0736
85.1132
91.0357
95.8386
99.6472
102.606
104.837
106.435
107.467
107.972
78.0736
85.1132
91.0358
95.8387
99.6473
102.606
104.837
106.435
107.467
107.972
78.0737
85.1133
91.0358
95.8387
99.6473
102.606
104.837
106.435
107.467
107.972
78.0738
85.1134
91.0359
95.8388
99.6474
102.606
104.837
106.435
107.467
107.973
78.0739
85.1135
91.0361
95.839
99.6476
102.606
104.837
106.436
107.467
107.973
68.6656
74.205
79.0514
83.1288
86.4595
89.1049
91.1324
92.6008
93.5551
94.0249
68.6655
74.2049
79.0513
83.1287
86.4593
89.1047
91.1322
92.6007
93.5549
94.0248
68.6654
74.2048
79.0512
83.1286
86.4592
89.1046
91.1321
92.6006
93.5549
94.0247
68.6653
74.2047
79.0511
83.1285
86.4592
89.1045
91.1321
92.6005
93.5548
94.0247
68.6653
74.2047
79.0511
83.1285
86.4591
89.1045
91.132
92.6005
93.5548
94.0246
68.6653
74.2047
79.0511
83.1285
86.4591
89.1045
91.132
92.6005
93.5548
94.0247
68.6653
74.2047
79.0511
83.1285
86.4592
89.1046
91.1321
92.6005
93.5548
94.0247
68.6654
74.2048
79.0512
83.1286
86.4593
89.1046
91.1321
92.6006
93.5549
94.0248
68.6655
74.2049
79.0513
83.1287
86.4594
89.1047
91.1323
92.6007
93.555
94.0249
68.6656
74.205
79.0514
83.1288
86.4595
89.1049
91.1324
92.6009
93.5552
94.025
60.5842
64.8898
68.7545
72.1003
74.9057
77.1824
78.9568
80.2577
81.1101
81.5318
60.5841
64.8897
68.7544
72.1002
74.9055
77.1823
78.9567
80.2576
81.11
81.5317
60.584
64.8896
68.7543
72.1001
74.9054
77.1822
78.9566
80.2575
81.1099
81.5316
60.5839
64.8895
68.7542
72.1
74.9054
77.1821
78.9565
80.2574
81.1099
81.5316
60.5839
64.8895
68.7542
72.1
74.9053
77.1821
78.9565
80.2574
81.1098
81.5316
60.5839
64.8895
68.7542
72.1
74.9053
77.1821
78.9565
80.2574
81.1098
81.5316
60.5839
64.8895
68.7542
72.1
74.9054
77.1821
78.9565
80.2575
81.1099
81.5316
60.584
64.8896
68.7543
72.1001
74.9055
77.1822
78.9566
80.2575
81.11
81.5317
60.5841
64.8897
68.7544
72.1002
74.9056
77.1823
78.9567
80.2576
81.1101
81.5318
60.5842
64.8898
68.7545
72.1003
74.9057
77.1825
78.9569
80.2578
81.1102
81.5319
53.6549
56.8967
59.8749
62.5254
64.8067
66.6995
68.2009
69.3162
70.0536
70.4203
53.6547
56.8966
59.8747
62.5253
64.8065
66.6994
68.2008
69.3161
70.0534
70.4202
53.6546
56.8965
59.8746
62.5252
64.8064
66.6993
68.2007
69.316
70.0534
70.4201
53.6546
56.8964
59.8746
62.5251
64.8064
66.6993
68.2006
69.3159
70.0533
70.4201
53.6546
56.8964
59.8746
62.5251
64.8064
66.6992
68.2006
69.3159
70.0533
70.42
53.6546
56.8964
59.8746
62.5251
64.8064
66.6992
68.2006
69.3159
70.0533
70.42
53.6546
56.8964
59.8746
62.5252
64.8064
66.6993
68.2006
69.3159
70.0533
70.4201
53.6547
56.8965
59.8747
62.5252
64.8065
66.6993
68.2007
69.316
70.0534
70.4202
53.6547
56.8966
59.8748
62.5253
64.8066
66.6994
68.2008
69.3161
70.0535
70.4203
53.6549
56.8967
59.8749
62.5255
64.8067
66.6996
68.201
69.3163
70.0537
70.4204
47.7601
50.0252
52.1952
54.2053
55.993
57.515
58.7461
59.6738
60.2932