/*--------------------------------*- C++ -*----------------------------------*\
  =========                 |
  \\      /  F ield         | OpenFOAM: The Open Source CFD Toolbox
   \\    /   O peration     | Website:  https://openfoam.org
    \\  /    A nd           | Version:  6
     \\/     M anipulation  |
\*---------------------------------------------------------------------------*/
FoamFile
{
    version     2.0;
    format      ascii;
    class       volScalarField;
    location    "0.34";
    object      T;
}
// * * * * * * * * * * * * * * * * * * * * * * * * * * * * * * * * * * * * * //

dimensions      [0 0 0 1 0 0 0];

internalField   nonuniform List<scalar> 
7000
(
104.654
104.653
104.651
104.647
104.644
104.639
104.635
104.63
104.627
104.626
104.654
104.653
104.651
104.647
104.644
104.639
104.635
104.63
104.627
104.626
104.654
104.653
104.651
104.647
104.644
104.639
104.635
104.63
104.627
104.626
104.654
104.653
104.651
104.647
104.643
104.639
104.635
104.63
104.627
104.626
104.654
104.653
104.651
104.647
104.643
104.639
104.635
104.63
104.627
104.626
104.654
104.653
104.651
104.647
104.643
104.639
104.635
104.63
104.627
104.626
104.654
104.653
104.651
104.647
104.643
104.639
104.635
104.63
104.627
104.626
104.654
104.653
104.651
104.647
104.643
104.639
104.635
104.63
104.627
104.626
104.654
104.653
104.651
104.647
104.644
104.639
104.635
104.63
104.627
104.626
104.654
104.653
104.651
104.647
104.644
104.639
104.635
104.63
104.627
104.626
94.04
94.0365
94.0297
94.0198
94.0073
93.9933
93.9789
93.9657
93.9556
93.9501
94.04
94.0365
94.0296
94.0197
94.0073
93.9933
93.9789
93.9657
93.9556
93.9501
94.04
94.0364
94.0296
94.0197
94.0073
93.9932
93.9788
93.9657
93.9556
93.95
94.0399
94.0364
94.0296
94.0197
94.0073
93.9932
93.9788
93.9657
93.9555
93.95
94.0399
94.0364
94.0296
94.0197
94.0072
93.9932
93.9788
93.9656
93.9555
93.95
94.0399
94.0364
94.0296
94.0197
94.0072
93.9932
93.9788
93.9656
93.9555
93.95
94.0399
94.0364
94.0296
94.0197
94.0072
93.9932
93.9788
93.9657
93.9555
93.95
94.0399
94.0364
94.0296
94.0197
94.0073
93.9932
93.9788
93.9657
93.9556
93.95
94.04
94.0364
94.0296
94.0197
94.0073
93.9932
93.9788
93.9657
93.9556
93.9501
94.04
94.0365
94.0296
94.0197
94.0073
93.9933
93.9789
93.9657
93.9556
93.9501
83.657
83.6507
83.6384
83.6206
83.598
83.5722
83.5454
83.5206
83.5014
83.4908
83.6569
83.6507
83.6384
83.6205
83.5979
83.5721
83.5453
83.5206
83.5013
83.4907
83.6569
83.6506
83.6383
83.6205
83.5979
83.5721
83.5453
83.5205
83.5013
83.4907
83.6569
83.6506
83.6383
83.6204
83.5978
83.572
83.5452
83.5205
83.5012
83.4907
83.6568
83.6506
83.6383
83.6204
83.5978
83.572
83.5452
83.5205
83.5012
83.4907
83.6568
83.6506
83.6383
83.6204
83.5978
83.572
83.5452
83.5205
83.5012
83.4907
83.6568
83.6506
83.6383
83.6204
83.5978
83.572
83.5452
83.5205
83.5012
83.4907
83.6569
83.6506
83.6383
83.6204
83.5979
83.572
83.5453
83.5205
83.5013
83.4907
83.6569
83.6506
83.6383
83.6205
83.5979
83.5721
83.5453
83.5206
83.5013
83.4907
83.6569
83.6507
83.6384
83.6205
83.5979
83.5721
83.5453
83.5206
83.5014
83.4908
73.6478
73.6381
73.6191
73.5913
73.5556
73.5141
73.4703
73.4292
73.3965
73.3783
73.6477
73.6381
73.6191
73.5912
73.5555
73.514
73.4703
73.4291
73.3965
73.3783
73.6476
73.638
73.619
73.5911
73.5554
73.514
73.4702
73.429
73.3964
73.3782
73.6476
73.638
73.619
73.5911
73.5554
73.5139
73.4702
73.429
73.3964
73.3782
73.6476
73.6379
73.6189
73.5911
73.5554
73.5139
73.4702
73.429
73.3964
73.3782
73.6476
73.6379
73.6189
73.5911
73.5554
73.5139
73.4702
73.429
73.3964
73.3782
73.6476
73.6379
73.619
73.5911
73.5554
73.5139
73.4702
73.429
73.3964
73.3782
73.6476
73.638
73.619
73.5911
73.5554
73.514
73.4702
73.429
73.3964
73.3783
73.6476
73.638
73.619
73.5911
73.5555
73.514
73.4703
73.4291
73.3965
73.3783
73.6477
73.6381
73.6191
73.5912
73.5555
73.5141
73.4703
73.4291
73.3965
73.3784
64.1396
64.1258
64.0984
64.0576
64.0046
63.9417
63.8737
63.8079
63.7545
63.724
64.1395
64.1257
64.0983
64.0575
64.0045
63.9416
63.8736
63.8078
63.7544
63.7239
64.1394
64.1256
64.0982
64.0575
64.0044
63.9416
63.8735
63.8078
63.7543
63.7239
64.1394
64.1256
64.0982
64.0574
64.0044
63.9415
63.8735
63.8077
63.7543
63.7239
64.1394
64.1256
64.0981
64.0574
64.0044
63.9415
63.8735
63.8077
63.7543
63.7238
64.1394
64.1256
64.0981
64.0574
64.0044
63.9415
63.8735
63.8077
63.7543
63.7238
64.1394
64.1256
64.0982
64.0574
64.0044
63.9415
63.8735
63.8077
63.7543
63.7239
64.1394
64.1256
64.0982
64.0574
64.0044
63.9416
63.8735
63.8078
63.7543
63.7239
64.1395
64.1257
64.0983
64.0575
64.0045
63.9416
63.8736
63.8078
63.7544
63.724
64.1395
64.1257
64.0983
64.0576
64.0046
63.9417
63.8737
63.8079
63.7545
63.7241
55.2394
55.2206
55.1827
55.1256
55.0498
54.9575
54.8543
54.7509
54.6636
54.6121
55.2393
55.2205
55.1826
55.1255
55.0497
54.9574
54.8543
54.7509
54.6635
54.612
55.2392
55.2204
55.1825
55.1254
55.0496
54.9573
54.8542
54.7508
54.6634
54.612
55.2392
55.2203
55.1825
55.1254
55.0495
54.9573
54.8541
54.7507
54.6634
54.612
55.2392
55.2203
55.1824
55.1253
55.0495
54.9572
54.8541
54.7507
54.6634
54.6119
55.2392
55.2203
55.1824
55.1253
55.0495
54.9572
54.8541
54.7507
54.6634
54.6119
55.2392
55.2203
55.1825
55.1254
55.0495
54.9573
54.8541
54.7508
54.6634
54.612
55.2392
55.2204
55.1825
55.1254
55.0496
54.9573
54.8542
54.7508
54.6635
54.612
55.2393
55.2204
55.1826
55.1255
55.0497
54.9574
54.8543
54.7509
54.6635
54.6121
55.2393
55.2205
55.1827
55.1256
55.0497
54.9575
54.8544
54.751
54.6636
54.6122
47.0307
47.0059
46.9556
46.8785
46.7736
46.6418
46.4885
46.3269
46.1825
46.0925
47.0306
47.0058
46.9555
46.8784
46.7735
46.6417
46.4884
46.3268
46.1824
46.0924
47.0305
47.0057
46.9554
46.8783
46.7734
46.6417
46.4883
46.3267
46.1823
46.0924
47.0304
47.0056
46.9554
46.8783
46.7734
46.6416
46.4883
46.3267
46.1823
46.0923
47.0304
47.0056
46.9553
46.8782
46.7734
46.6416
46.4882
46.3267
46.1822
46.0923
47.0304
47.0056
46.9553
46.8782
46.7734
46.6416
46.4882
46.3267
46.1823
46.0923
47.0304
47.0056
46.9554
46.8783
46.7734
46.6416
46.4883
46.3267
46.1823
46.0923
47.0305
47.0057
46.9554
46.8783
46.7734
46.6417
46.4883
46.3268
46.1823
46.0924
47.0305
47.0057
46.9555
46.8784
46.7735
46.6418
46.4884
46.3268
46.1824
46.0925
47.0306
47.0058
46.9556
46.8785
46.7736
46.6419
46.4885
46.3269
46.1825
46.0926
39.5717
39.5404
39.4762
39.3761
39.2362
39.0538
38.8308
38.5799
38.3364
38.1698
39.5716
39.5403
39.4761
39.376
39.2361
39.0537
38.8307
38.5798
38.3364
38.1697
39.5715
39.5402
39.476
39.3759
39.236
39.0537
38.8306
38.5798
38.3363
38.1696
39.5714
39.5401
39.476
39.3759
39.236
39.0536
38.8306
38.5797
38.3363
38.1696
39.5714
39.5401
39.476
39.3758
39.2359
39.0536
38.8305
38.5797
38.3362
38.1696
39.5714
39.5401
39.476
39.3758
39.2359
39.0536
38.8305
38.5797
38.3362
38.1696
39.5714
39.5401
39.476
39.3759
39.236
39.0536
38.8306
38.5797
38.3363
38.1696
39.5714
39.5402
39.476
39.3759
39.236
39.0537
38.8306
38.5798
38.3363
38.1697
39.5715
39.5402
39.4761
39.376
39.2361
39.0538
38.8307
38.5799
38.3364
38.1698
39.5716
39.5403
39.4762
39.3761
39.2362
39.0539
38.8308
38.58
38.3365
38.1699
32.8952
32.8575
32.7792
32.6549
32.4765
32.2345
31.921
31.538
31.1196
30.7823
32.8951
32.8574
32.7791
32.6548
32.4764
32.2344
31.9209
31.5379
31.1195
30.7822
32.8951
32.8573
32.7791
32.6547
32.4763
32.2343
31.9208
31.5378
31.1194
30.7822
32.895
32.8572
32.779
32.6547
32.4763
32.2343
31.9208
31.5378
31.1194
30.7821
32.895
32.8572
32.779
32.6547
32.4763
32.2343
31.9207
31.5377
31.1193
30.7821
32.895
32.8572
32.779
32.6547
32.4763
32.2343
31.9207
31.5377
31.1193
30.7821
32.895
32.8572
32.779
32.6547
32.4763
32.2343
31.9208
31.5378
31.1194
30.7822
32.895
32.8573
32.7791
32.6548
32.4764
32.2344
31.9208
31.5378
31.1194
30.7822
32.8951
32.8574
32.7791
32.6548
32.4764
32.2344
31.9209
31.5379
31.1195
30.7823
32.8952
32.8575
32.7792
32.655
32.4765
32.2345
31.921
31.538
31.1196
30.7824
27.0098
26.9664
26.8758
26.7296
26.5147
26.2121
25.7962
25.2368
24.5177
23.7475
27.0097
26.9663
26.8757
26.7295
26.5146
26.212
25.7961
25.2367
24.5176
23.7475
27.0096
26.9663
26.8756
26.7294
26.5145
26.2119
25.796
25.2366
24.5176
23.7474
27.0096
26.9662
26.8756
26.7294
26.5145
26.2119
25.796
25.2366
24.5175
23.7474
27.0096
26.9662
26.8756
26.7294
26.5145
26.2118
25.796
25.2366
24.5175
23.7474
27.0096
26.9662
26.8756
26.7294
26.5145
26.2118
25.796
25.2366
24.5175
23.7474
27.0096
26.9662
26.8756
26.7294
26.5145
26.2119
25.796
25.2366
24.5176
23.7474
27.0096
26.9663
26.8756
26.7295
26.5145
26.2119
25.7961
25.2367
24.5176
23.7474
27.0097
26.9663
26.8757
26.7295
26.5146
26.212
25.7962
25.2368
24.5177
23.7475
27.0098
26.9664
26.8758
26.7296
26.5147
26.2121
25.7963
25.2369
24.5178
23.7476
21.9013
21.8541
21.755
21.5936
21.3526
21.0046
20.5048
19.7722
18.6309
16.5954
21.9012
21.854
21.7549
21.5935
21.3525
21.0045
20.5047
19.7721
18.6308
16.5953
21.9011
21.8539
21.7548
21.5934
21.3524
21.0044
20.5046
19.772
18.6307
16.5953
21.9011
21.8539
21.7548
21.5934
21.3524
21.0044
20.5046
19.772
18.6307
16.5953
21.901
21.8539
21.7547
21.5933
21.3524
21.0044
20.5046
19.772
18.6307
16.5952
21.901
21.8539
21.7547
21.5934
21.3524
21.0044
20.5046
19.772
18.6307
16.5953
21.9011
21.8539
21.7548
21.5934
21.3524
21.0044
20.5046
19.772
18.6307
16.5953
21.9011
21.8539
21.7548
21.5934
21.3525
21.0045
20.5047
19.7721
18.6307
16.5953
21.9012
21.854
21.7549
21.5935
21.3525
21.0045
20.5048
19.7722
18.6308
16.5954
21.9012
21.8541
21.755
21.5936
21.3526
21.0046
20.5049
19.7723
18.6309
16.5955
17.5358
17.4873
17.3853
17.219
16.9701
16.6101
16.094
15.3488
14.2528
12.6193
17.5357
17.4872
17.3852
17.2189
16.97
16.61
16.0939
15.3487
14.2527
12.6192
17.5356
17.4871
17.3852
17.2189
16.97
16.61
16.0939
15.3487
14.2527
12.6191
17.5356
17.4871
17.3851
17.2188
16.9699
16.6099
16.0938
15.3486
14.2526
12.6191
17.5355
17.4871
17.3851
17.2188
16.9699
16.6099
16.0938
15.3486
14.2526
12.6191
17.5355
17.4871
17.3851
17.2188
16.9699
16.6099
16.0938
15.3486
14.2526
12.6191
17.5356
17.4871
17.3851
17.2188
16.9699
16.6099
16.0939
15.3487
14.2526
12.6191
17.5356
17.4871
17.3852
17.2189
16.97
16.61
16.0939
15.3487
14.2527
12.6192
17.5357
17.4872
17.3853
17.219
16.9701
16.6101
16.094
15.3488
14.2528
12.6192
17.5357
17.4873
17.3854
17.219
16.9702
16.6102
16.0941
15.3489
14.2529
12.6193
13.8632
13.8161
13.7174
13.5571
13.3193
12.9805
12.5074
11.8556
10.9742
9.83602
13.8631
13.816
13.7173
13.557
13.3192
12.9804
12.5073
11.8556
10.9742
9.83596
13.8631
13.816
13.7172
13.5569
13.3192
12.9804
12.5073
11.8555
10.9741
9.83591
13.863
13.8159
13.7172
13.5569
13.3191
12.9803
12.5072
11.8555
10.9741
9.83588
13.863
13.8159
13.7172
13.5569
13.3191
12.9803
12.5072
11.8555
10.9741
9.83587
13.863
13.8159
13.7172
13.5569
13.3191
12.9803
12.5072
11.8555
10.9741
9.83587
13.863
13.816
13.7172
13.5569
13.3192
12.9803
12.5073
11.8555
10.9741
9.8359
13.8631
13.816
13.7173
13.557
13.3192
12.9804
12.5073
11.8555
10.9741
9.83594
13.8631
13.8161
13.7173
13.557
13.3193
12.9805
12.5074
11.8556
10.9742
9.836
13.8632
13.8161
13.7174
13.5571
13.3194
12.9805
12.5075
11.8557
10.9743
9.83608
10.8214
10.7781
10.6876
10.5422
10.3298
10.0341
9.63534
9.11374
8.45949
7.69717
10.8213
10.778
10.6875
10.5421
10.3297
10.034
9.63528
9.11368
8.45943
7.69711
10.8213
10.7779
10.6875
10.5421
10.3297
10.034
9.63524
9.11364
8.45939
7.69707
10.8212
10.7779
10.6875
10.5421
10.3297
10.034
9.63521
9.11361
8.45936
7.69704
10.8212
10.7779
10.6875
10.5421
10.3297
10.0339
9.6352
9.1136
8.45935
7.69703
10.8212
10.7779
10.6875
10.5421
10.3297
10.034
9.6352
9.11361
8.45936
7.69704
10.8212
10.7779
10.6875
10.5421
10.3297
10.034
9.63523
9.11363
8.45938
7.69706
10.8213
10.778
10.6875
10.5421
10.3297
10.034
9.63527
9.11367
8.45942
7.6971
10.8213
10.778
10.6876
10.5422
10.3298
10.0341
9.63533
9.11373
8.45948
7.69715
10.8214
10.7781
10.6877
10.5423
10.3299
10.0342
9.63541
9.11381
8.45955
7.69722
8.34061
8.30261
8.22385
8.09878
7.91944
7.67629
7.36018
6.96657
6.50369
6.00582
8.34055
8.30254
8.22379
8.09872
7.91938
7.67623
7.36012
6.96652
6.50364
6.00576
8.3405
8.3025
8.22375
8.09868
7.91934
7.67619
7.36008
6.96648
6.5036
6.00573
8.34048
8.30247
8.22372
8.09865
7.91931
7.67617
7.36006
6.96646
6.50358
6.0057
8.34046
8.30246
8.22371
8.09864
7.91931
7.67616
7.36005
6.96645
6.50357
6.00569
8.34047
8.30247
8.22371
8.09865
7.91931
7.67616
7.36006
6.96646
6.50358
6.0057
8.34049
8.30249
8.22373
8.09867
7.91933
7.67618
7.36008
6.96648
6.5036
6.00572
8.34052
8.30252
8.22377
8.09871
7.91937
7.67622
7.36012
6.96651
6.50363
6.00575
8.34056
8.30257
8.22382
8.09876
7.91942
7.67628
7.36017
6.96656
6.50368
6.0058
8.34062
8.30264
8.22389
8.09883
7.91949
7.67634
7.36024
6.96663
6.50375
6.00587
6.34788
6.31599
6.25044
6.14775
6.00345
5.81315
5.5747
5.29158
4.97807
4.6653
6.34783
6.31594
6.25039
6.1477
6.0034
5.81311
5.57465
5.29153
4.97802
4.66525
6.34779
6.31591
6.25035
6.14767
6.00336
5.81307
5.57462
5.2915
4.97799
4.66522
6.34777
6.31588
6.25033
6.14765
6.00334
5.81305
5.5746
5.29148
4.97797
4.6652
6.34776
6.31588
6.25032
6.14764
6.00334
5.81304
5.57459
5.29147
4.97797
4.66519
6.34776
6.31588
6.25033
6.14764
6.00334
5.81305
5.5746
5.29148
4.97797
4.66519
6.34778
6.3159
6.25034
6.14766
6.00336
5.81307
5.57462
5.2915
4.97799
4.66521
6.34781
6.31593
6.25038
6.1477
6.00339
5.8131
5.57465
5.29153
4.97802
4.66524
6.34785
6.31597
6.25042
6.14774
6.00344
5.81315
5.57469
5.29157
4.97806
4.66529
6.3479
6.31603
6.25048
6.1478
6.0035
5.81321
5.57475
5.29163
4.97812
4.66534
4.77092
4.74521
4.69282
4.61194
4.50069
4.35822
4.18655
3.99308
3.79344
3.61348
4.77087
4.74517
4.69278
4.6119
4.50065
4.35818
4.18651
3.99304
3.7934
3.61344
4.77084
4.74514
4.69275
4.61187
4.50062
4.35815
4.18649
3.99301
3.79337
3.61342
4.77082
4.74512
4.69273
4.61185
4.5006
4.35813
4.18647
3.993
3.79336
3.6134
4.77082
4.74511
4.69272
4.61185
4.5006
4.35813
4.18646
3.99299
3.79335
3.61339
4.77082
4.74512
4.69273
4.61185
4.5006
4.35813
4.18647
3.993
3.79336
3.6134
4.77083
4.74513
4.69274
4.61187
4.50062
4.35815
4.18649
3.99301
3.79337
3.61341
4.77086
4.74516
4.69277
4.6119
4.50065
4.35818
4.18651
3.99304
3.7934
3.61344
4.77089
4.7452
4.69281
4.61194
4.50069
4.35822
4.18655
3.99308
3.79344
3.61348
4.77093
4.74524
4.69286
4.61199
4.50074
4.35827
4.1866
3.99313
3.79348
3.61352
3.54113
3.52115
3.4808
3.41946
3.337
3.2348
3.11729
2.99391
2.88104
2.80208
3.54109
3.52112
3.48077
3.41943
3.33697
3.23477
3.11726
2.99387
2.881
2.80204
3.54107
3.5211
3.48074
3.4194
3.33695
3.23475
3.11723
2.99385
2.88098
2.80202
3.54105
3.52108
3.48073
3.41939
3.33693
3.23473
3.11722
2.99384
2.88097
2.802
3.54105
3.52107
3.48072
3.41939
3.33693
3.23473
3.11722
2.99383
2.88096
2.802
3.54105
3.52108
3.48073
3.41939
3.33693
3.23473
3.11722
2.99384
2.88097
2.802
3.54106
3.52109
3.48074
3.4194
3.33695
3.23475
3.11723
2.99385
2.88098
2.80202
3.54109
3.52111
3.48076
3.41943
3.33697
3.23477
3.11726
2.99388
2.881
2.80204
3.54111
3.52114
3.48079
3.41946
3.337
3.2348
3.11729
2.99391
2.88104
2.80207
3.54115
3.52118
3.48084
3.4195
3.33705
3.23485
3.11733
2.99395
2.88108
2.80211
2.5958
2.58078
2.55073
2.50578
2.44684
2.37648
2.30034
2.22912
2.18133
2.18566
2.59577
2.58076
2.5507
2.50575
2.44681
2.37645
2.30031
2.2291
2.1813
2.18563
2.59575
2.58074
2.55068
2.50573
2.44679
2.37643
2.30029
2.22908
2.18128
2.18561
2.59574
2.58072
2.55067
2.50572
2.44678
2.37642
2.30028
2.22907
2.18127
2.1856
2.59574
2.58072
2.55067
2.50572
2.44678
2.37642
2.30028
2.22906
2.18127
2.18559
2.59574
2.58072
2.55067
2.50572
2.44678
2.37642
2.30028
2.22907
2.18127
2.1856
2.59575
2.58073
2.55068
2.50573
2.44679
2.37643
2.30029
2.22908
2.18128
2.18561
2.59577
2.58075
2.5507
2.50575
2.44681
2.37645
2.30031
2.2291
2.1813
2.18563
2.59579
2.58078
2.55073
2.50578
2.44684
2.37648
2.30034
2.22913
2.18133
2.18566
2.59582
2.58081
2.55076
2.50581
2.44687
2.37651
2.30037
2.22916
2.18136
2.18569
1.87936
1.8684
1.84667
1.8147
1.77383
1.72695
1.67968
1.64244
1.63515
1.70216
1.87934
1.86838
1.84665
1.81468
1.77381
1.72693
1.67966
1.64242
1.63513
1.70214
1.87932
1.86836
1.84664
1.81467
1.7738
1.72692
1.67964
1.6424
1.63512
1.70212
1.87931
1.86835
1.84663
1.81466
1.77379
1.72691
1.67964
1.64239
1.63511
1.70211
1.87931
1.86835
1.84663
1.81466
1.77379
1.7269
1.67963
1.64239
1.63511
1.70211
1.87931
1.86835
1.84663
1.81466
1.77379
1.72691
1.67964
1.64239
1.63511
1.70211
1.87932
1.86836
1.84664
1.81467
1.7738
1.72692
1.67965
1.6424
1.63512
1.70212
1.87933
1.86838
1.84665
1.81468
1.77381
1.72693
1.67966
1.64242
1.63514
1.70214
1.87935
1.8684
1.84667
1.81471
1.77384
1.72696
1.67968
1.64244
1.63516
1.70216
1.87937
1.86842
1.8467
1.81473
1.77386
1.72698
1.67971
1.64247
1.63519
1.70219
11.9758
9.54742
8.48142
8.4848
9.50308
11.6349
15.1276
20.4331
28.3642
40.5131
11.9757
9.54734
8.48134
8.48471
9.50297
11.6347
15.1274
20.4329
28.364
40.5129
11.9757
9.54729
8.48128
8.48464
9.5029
11.6346
15.1273
20.4328
28.3638
40.5127
11.9756
9.54725
8.48124
8.4846
9.50285
11.6346
15.1273
20.4327
28.3637
40.5126
11.9756
9.54724
8.48122
8.48457
9.50282
11.6346
15.1272
20.4327
28.3637
40.5125
11.9756
9.54724
8.48122
8.48457
9.50282
11.6346
15.1272
20.4327
28.3637
40.5125
11.9756
9.54726
8.48124
8.48459
9.50284
11.6346
15.1272
20.4327
28.3637
40.5126
11.9757
9.5473
8.48128
8.48463
9.50288
11.6346
15.1273
20.4327
28.3638
40.5127
11.9757
9.54735
8.48133
8.48468
9.50293
11.6347
15.1274
20.4328
28.3639
40.5128
11.9758
9.54741
8.48139
8.48474
9.503
11.6348
15.1275
20.4329
28.364
40.513
10.3358
8.72532
7.96753
8.06739
9.05767
11.0436
14.2198
18.8856
25.4415
34.2615
10.3358
8.72524
7.96745
8.0673
9.05757
11.0434
14.2197
18.8855
25.4413
34.2613
10.3357
8.72519
7.9674
8.06724
9.05749
11.0434
14.2196
18.8853
25.4412
34.2611
10.3357
8.72515
7.96736
8.06719
9.05744
11.0433
14.2195
18.8853
25.4411
34.261
10.3357
8.72514
7.96734
8.06717
9.05742
11.0433
14.2195
18.8852
25.4411
34.2609
10.3357
8.72514
7.96734
8.06717
9.05742
11.0433
14.2195
18.8852
25.4411
34.2609
10.3357
8.72516
7.96736
8.06719
9.05744
11.0433
14.2195
18.8852
25.4411
34.261
10.3357
8.7252
7.9674
8.06723
9.05748
11.0433
14.2196
18.8853
25.4412
34.2611
10.3358
8.72525
7.96745
8.06729
9.05754
11.0434
14.2197
18.8854
25.4413
34.2612
10.3359
8.72533
7.96752
8.06736
9.05762
11.0435
14.2198
18.8855
25.4414
34.2614
8.54704
7.57144
7.13499
7.34065
8.26638
10.0091
12.6981
16.4847
21.4867
27.6291
8.54697
7.57137
7.13491
7.34057
8.26629
10.009
12.698
16.4846
21.4865
27.6289
8.54692
7.57132
7.13486
7.34051
8.26622
10.0089
12.6979
16.4844
21.4864
27.6288
8.54689
7.57129
7.13482
7.34047
8.26617
10.0088
12.6979
16.4844
21.4863
27.6287
8.54688
7.57128
7.13481
7.34045
8.26615
10.0088
12.6978
16.4843
21.4863
27.6286
8.54688
7.57128
7.13481
7.34045
8.26615
10.0088
12.6978
16.4843
21.4863
27.6286
8.54691
7.5713
7.13483
7.34047
8.26617
10.0088
12.6979
16.4844
21.4863
27.6287
8.54695
7.57134
7.13486
7.34051
8.26621
10.0089
12.6979
16.4844
21.4864
27.6288
8.547
7.57139
7.13492
7.34057
8.26628
10.0089
12.698
16.4845
21.4865
27.6289
8.54708
7.57147
7.13499
7.34065
8.26636
10.009
12.6981
16.4847
21.4867
27.6291
6.92979
6.36681
6.16942
6.44447
7.27365
8.7339
10.9012
13.8335
17.5241
21.8123
6.92973
6.36675
6.16935
6.4444
7.27356
8.7338
10.9011
13.8334
17.524
21.8122
6.92969
6.3667
6.1693
6.44434
7.2735
8.73373
10.901
13.8333
17.5238
21.812
6.92966
6.36668
6.16927
6.44431
7.27346
8.73368
10.9009
13.8333
17.5238
21.8119
6.92965
6.36666
6.16925
6.44429
7.27344
8.73365
10.9009
13.8332
17.5237
21.8119
6.92965
6.36667
6.16926
6.44429
7.27344
8.73365
10.9009
13.8332
17.5237
21.8119
6.92967
6.36669
6.16927
6.44431
7.27346
8.73368
10.9009
13.8333
17.5238
21.8119
6.92971
6.36672
6.16931
6.44435
7.2735
8.73372
10.901
13.8333
17.5238
21.812
6.92976
6.36677
6.16936
6.4444
7.27356
8.73379
10.9011
13.8334
17.524
21.8122
6.92983
6.36684
6.16943
6.44448
7.27364
8.73388
10.9012
13.8335
17.5241
21.8123
5.54808
5.24449
5.20168
5.50443
6.21988
7.40272
9.09277
11.3009
13.9809
16.9924
5.54802
5.24444
5.20162
5.50436
6.2198
7.40263
9.09266
11.3007
13.9808
16.9922
5.54798
5.2444
5.20157
5.50431
6.21975
7.40257
9.09259
11.3006
13.9807
16.9921
5.54796
5.24437
5.20155
5.50428
6.21971
7.40252
9.09254
11.3006
13.9806
16.992
5.54795
5.24436
5.20153
5.50426
6.21969
7.4025
9.09252
11.3006
13.9806
16.992
5.54795
5.24436
5.20154
5.50426
6.21969
7.40251
9.09252
11.3006
13.9806
16.992
5.54797
5.24438
5.20155
5.50428
6.21971
7.40253
9.09254
11.3006
13.9806
16.9921
5.54801
5.24441
5.20159
5.50432
6.21975
7.40257
9.09259
11.3007
13.9807
16.9921
5.54805
5.24446
5.20164
5.50437
6.21981
7.40264
9.09267
11.3007
13.9808
16.9923
5.54812
5.24453
5.2017
5.50444
6.21989
7.40272
9.09277
11.3009
13.9809
16.9924
4.40502
4.26522
4.3153
4.61624
5.21728
6.15407
7.44421
9.07773
11.0036
13.1181
4.40497
4.26517
4.31524
4.61618
5.21721
6.15399
7.44412
9.07763
11.0035
13.118
4.40494
4.26513
4.3152
4.61614
5.21716
6.15394
7.44405
9.07755
11.0034
13.1179
4.40492
4.26511
4.31518
4.61611
5.21713
6.1539
7.44401
9.0775
11.0034
13.1179
4.40491
4.2651
4.31517
4.6161
5.21711
6.15388
7.44399
9.07748
11.0034
13.1178
4.40491
4.2651
4.31517
4.6161
5.21711
6.15388
7.44399
9.07748
11.0034
13.1178
4.40493
4.26512
4.31519
4.61612
5.21713
6.15391
7.44402
9.07751
11.0034
13.1179
4.40496
4.26515
4.31522
4.61615
5.21717
6.15395
7.44406
9.07757
11.0034
13.1179
4.405
4.2652
4.31526
4.6162
5.21722
6.15401
7.44413
9.07764
11.0035
13.118
4.40506
4.26525
4.31532
4.61626
5.21729
6.15409
7.44422
9.07775
11.0037
13.1182
3.48804
3.45589
3.56113
3.84612
4.34517
5.07996
6.05471
7.25042
8.61995
10.0885
3.488
3.45584
3.56108
3.84606
4.34511
5.0799
6.05463
7.25034
8.61986
10.0884
3.48797
3.45581
3.56105
3.84602
4.34507
5.07985
6.05457
7.25027
8.61979
10.0884
3.48795
3.45579
3.56103
3.846
4.34504
5.07981
6.05454
7.25023
8.61974
10.0883
3.48794
3.45578
3.56102
3.84599
4.34503
5.0798
6.05452
7.25021
8.61972
10.0883
3.48795
3.45579
3.56102
3.84599
4.34503
5.0798
6.05452
7.25022
8.61972
10.0883
3.48796
3.4558
3.56104
3.84601
4.34505
5.07982
6.05455
7.25024
8.61975
10.0883
3.48799
3.45583
3.56106
3.84604
4.34508
5.07986
6.05459
7.25029
8.61981
10.0884
3.48803
3.45587
3.5611
3.84608
4.34513
5.07991
6.05465
7.25036
8.61989
10.0885
3.48807
3.45592
3.56116
3.84614
4.34519
5.07998
6.05473
7.25045
8.61999
10.0886
2.78138
2.8282
2.96968
3.23704
3.65524
4.23687
4.97765
5.85271
6.81538
7.80404
2.78135
2.82816
2.96963
3.23699
3.65519
4.23681
4.97758
5.85263
6.81529
7.80395
2.78132
2.82813
2.9696
3.23696
3.65515
4.23676
4.97753
5.85258
6.81523
7.80388
2.78131
2.82811
2.96958
3.23694
3.65513
4.23673
4.9775
5.85254
6.8152
7.80384
2.7813
2.82811
2.96957
3.23693
3.65512
4.23672
4.97748
5.85253
6.81518
7.80382
2.7813
2.82811
2.96958
3.23693
3.65512
4.23673
4.97749
5.85253
6.81518
7.80383
2.78132
2.82813
2.96959
3.23695
3.65514
4.23674
4.97751
5.85255
6.81521
7.80386
2.78134
2.82815
2.96962
3.23698
3.65517
4.23678
4.97755
5.8526
6.81526
7.80391
2.78138
2.82819
2.96965
3.23702
3.65521
4.23683
4.9776
5.85266
6.81533
7.80399
2.78142
2.82823
2.9697
3.23707
3.65527
4.23689
4.97768
5.85274
6.81542
7.80409
2.27331
2.39008
2.56055
2.81625
3.17951
3.65823
4.24237
4.90015
5.57557
6.19299
2.27328
2.39004
2.56051
2.81621
3.17946
3.65818
4.24231
4.90009
5.5755
6.19292
2.27326
2.39002
2.56048
2.81618
3.17943
3.65814
4.24226
4.90004
5.57545
6.19286
2.27325
2.39
2.56046
2.81616
3.1794
3.65812
4.24224
4.90001
5.57542
6.19283
2.27324
2.39
2.56046
2.81616
3.1794
3.65811
4.24223
4.9
5.5754
6.19282
2.27324
2.39
2.56046
2.81616
3.1794
3.65811
4.24223
4.9
5.57541
6.19282
2.27326
2.39001
2.56048
2.81617
3.17942
3.65813
4.24225
4.90003
5.57543
6.19285
2.27328
2.39004
2.5605
2.8162
3.17944
3.65816
4.24229
4.90007
5.57548
6.1929
2.27331
2.39007
2.56053
2.81624
3.17949
3.65821
4.24234
4.90012
5.57554
6.19297
2.27334
2.39011
2.56058
2.81628
3.17954
3.65827
4.2424
4.9002
5.57562
6.19306
1.97196
2.15615
2.34935
2.60105
2.93697
3.36385
3.86818
4.41128
4.91914
5.25907
1.97193
2.15613
2.34932
2.60102
2.93693
3.36381
3.86814
4.41123
4.91909
5.25901
1.97192
2.15611
2.3493
2.60099
2.9369
3.36377
3.8681
4.41119
4.91905
5.25897
1.97191
2.15609
2.34928
2.60097
2.93688
3.36375
3.86808
4.41116
4.91902
5.25894
1.9719
2.15609
2.34928
2.60097
2.93688
3.36374
3.86807
4.41115
4.91901
5.25893
1.9719
2.15609
2.34928
2.60097
2.93688
3.36375
3.86807
4.41116
4.91901
5.25894
1.97192
2.15611
2.34929
2.60098
2.9369
3.36377
3.86809
4.41118
4.91904
5.25896
1.97194
2.15613
2.34932
2.60101
2.93692
3.3638
3.86812
4.41122
4.91908
5.259
1.97196
2.15616
2.34935
2.60104
2.93696
3.36384
3.86817
4.41127
4.91914
5.25907
1.972
2.15619
2.34939
2.60109
2.93701
3.3639
3.86824
4.41134
4.91921
5.25915
60.4835
69.3767
74.379
77.5769
79.7414
81.2346
82.2592
82.94
83.3554
83.5523
60.4832
69.3764
74.3786
77.5765
79.741
81.2342
82.2588
82.9396
83.355
83.5519
60.483
69.3761
74.3784
77.5763
79.7407
81.2339
82.2586
82.9393
83.3548
83.5517
60.4828
69.376
74.3782
77.5761
79.7406
81.2338
82.2584
82.9392
83.3546
83.5516
60.4828
69.3759
74.3782
77.576
79.7405
81.2337
82.2583
82.9391
83.3546
83.5515
60.4828
69.3759
74.3782
77.5761
79.7405
81.2337
82.2584
82.9391
83.3546
83.5516
60.4828
69.376
74.3782
77.5762
79.7406
81.2338
82.2585
82.9393
83.3548
83.5517
60.483
69.3761
74.3784
77.5763
79.7408
81.234
82.2587
82.9395
83.355
83.5519
60.4831
69.3763
74.3786
77.5766
79.7411
81.2343
82.259
82.9398
83.3553
83.5522
60.4834
69.3766
74.3789
77.5769
79.7414
81.2346
82.2593
82.9401
83.3556
83.5526
44.9218
52.3741
57.3124
60.6308
62.9009
64.4654
65.535
66.243
66.6738
66.8776
44.9216
52.3738
57.3121
60.6305
62.9006
64.465
65.5346
66.2426
66.6735
66.8774
44.9214
52.3736
57.3119
60.6303
62.9003
64.4648
65.5344
66.2424
66.6733
66.8772
44.9212
52.3734
57.3118
60.6301
62.9002
64.4647
65.5342
66.2423
66.6731
66.877
44.9212
52.3734
57.3117
60.63
62.9001
64.4646
65.5342
66.2422
66.6731
66.877
44.9212
52.3734
57.3117
60.6301
62.9001
64.4646
65.5342
66.2423
66.6731
66.877
44.9212
52.3734
57.3118
60.6301
62.9002
64.4647
65.5343
66.2424
66.6732
66.8772
44.9214
52.3736
57.3119
60.6303
62.9004
64.4649
65.5345
66.2426
66.6734
66.8774
44.9215
52.3738
57.3122
60.6305
62.9006
64.4652
65.5348
66.2428
66.6737
66.8776
44.9218
52.374
57.3124
60.6309
62.901
64.4655
65.5351
66.2432
66.6741
66.878
34.2743
39.7818
43.9081
46.889
49.0116
50.5068
51.5415
52.231
52.6521
52.8517
34.2741
39.7816
43.9078
46.8887
49.0113
50.5065
51.5412
52.2307
52.6518
52.8515
34.2739
39.7814
43.9076
46.8885
49.0111
50.5063
51.541
52.2305
52.6516
52.8513
34.2738
39.7813
43.9075
46.8883
49.0109
50.5062
51.5409
52.2304
52.6515
52.8512
34.2738
39.7812
43.9075
46.8883
49.0109
50.5061
51.5408
52.2303
52.6515
52.8512
34.2738
39.7812
43.9075
46.8883
49.0109
50.5062
51.5408
52.2304
52.6515
52.8512
34.2738
39.7813
43.9076
46.8884
49.011
50.5063
51.5409
52.2305
52.6516
52.8513
34.2739
39.7814
43.9077
46.8885
49.0112
50.5064
51.5411
52.2306
52.6518
52.8515
34.2741
39.7816
43.9079
46.8888
49.0114
50.5067
51.5414
52.2309
52.6521
52.8518
34.2743
39.7819
43.9082
46.889
49.0117
50.507
51.5417
52.2312
52.6524
52.8521
26.2722
30.2443
33.46
35.9275
37.7612
39.0908
40.0288
40.6619
41.0516
41.2371
26.272
30.2441
33.4597
35.9273
37.7609
39.0906
40.0285
40.6616
41.0514
41.2369
26.2718
30.2439
33.4596
35.9271
37.7608
39.0904
40.0284
40.6614
41.0512
41.2368
26.2717
30.2438
33.4595
35.927
37.7606
39.0903
40.0282
40.6613
41.0511
41.2367
26.2717
30.2438
33.4594
35.927
37.7606
39.0902
40.0282
40.6613
41.0511
41.2367
26.2717
30.2438
33.4594
35.927
37.7606
39.0902
40.0282
40.6613
41.0511
41.2367
26.2718
30.2438
33.4595
35.9271
37.7607
39.0903
40.0283
40.6614
41.0512
41.2368
26.2719
30.244
33.4596
35.9272
37.7608
39.0905
40.0285
40.6616
41.0514
41.237
26.272
30.2441
33.4598
35.9274
37.7611
39.0907
40.0287
40.6618
41.0516
41.2372
26.2722
30.2443
33.46
35.9277
37.7613
39.091
40.029
40.6621
41.0519
41.2375
20.0784
22.9237
25.342
27.2844
28.7828
29.9012
30.7072
31.2595
31.603
31.7675
20.0782
22.9235
25.3418
27.2842
28.7826
29.901
30.7069
31.2593
31.6028
31.7673
20.0781
22.9234
25.3417
27.2841
28.7825
29.9008
30.7068
31.2591
31.6027
31.7672
20.078
22.9233
25.3416
27.284
28.7824
29.9007
30.7067
31.259
31.6026
31.7671
20.078
22.9233
25.3416
27.2839
28.7824
29.9007
30.7067
31.259
31.6026
31.7671
20.078
22.9233
25.3416
27.284
28.7824
29.9007
30.7067
31.259
31.6026
31.7671
20.078
22.9233
25.3416
27.284
28.7824
29.9008
30.7068
31.2591
31.6027
31.7672
20.0781
22.9234
25.3417
27.2841
28.7826
29.9009
30.7069
31.2593
31.6028
31.7674
20.0782
22.9236
25.3419
27.2843
28.7828
29.9011
30.7071
31.2595
31.603
31.7676
20.0784
22.9238
25.3421
27.2845
28.783
29.9014
30.7074
31.2597
31.6033
31.7679
15.2684
17.2889
19.0623
20.537
21.711
22.6107
23.273
23.7341
24.0241
24.1638
15.2683
17.2887
19.0622
20.5368
21.7108
22.6106
23.2728
23.7339
24.0239
24.1637
15.2682
17.2886
19.0621
20.5367
21.7107
22.6104
23.2727
23.7338
24.0238
24.1636
15.2681
17.2885
19.062
20.5366
21.7106
22.6104
23.2726
23.7337
24.0237
24.1635
15.2681
17.2885
19.062
20.5366
21.7106
22.6103
23.2726
23.7337
24.0237
24.1635
15.2681
17.2885
19.062
20.5366
21.7106
22.6103
23.2726
23.7337
24.0237
24.1635
15.2681
17.2886
19.062
20.5366
21.7107
22.6104
23.2727
23.7338
24.0238
24.1636
15.2682
17.2887
19.0621
20.5367
21.7108
22.6105
23.2728
23.7339
24.0239
24.1638
15.2683
17.2888
19.0623
20.5369
21.7109
22.6107
23.273
23.7341
24.0241
24.1639
15.2685
17.2889
19.0625
20.5371
21.7111
22.6109
23.2732
23.7344
24.0244
24.1642
11.5665
12.9725
14.2381
15.3217
16.2089
16.9059
17.4294
17.7997
18.0352
18.1495
11.5664
12.9723
14.238
15.3215
16.2088
16.9057
17.4293
17.7996
18.0351
18.1494
11.5663
12.9722
14.2379
15.3214
16.2087
16.9056
17.4292
17.7995
18.035
18.1493
11.5663
12.9722
14.2378
15.3214
16.2086
16.9056
17.4291
17.7994
18.0349
18.1493
11.5662
12.9722
14.2378
15.3213
16.2086
16.9055
17.4291
17.7994
18.0349
18.1493
11.5662
12.9722
14.2378
15.3214
16.2086
16.9056
17.4291
17.7994
18.035
18.1493
11.5663
12.9722
14.2379
15.3214
16.2087
16.9056
17.4292
17.7995
18.035
18.1494
11.5663
12.9723
14.2379
15.3215
16.2088
16.9057
17.4293
17.7996
18.0351
18.1495
11.5664
12.9724
14.2381
15.3216
16.2089
16.9059
17.4294
17.7998
18.0353
18.1496
11.5666
12.9725
14.2382
15.3218
16.2091
16.9061
17.4296
17.8
18.0355
18.1498
8.76611
9.69787
10.5647
11.332
11.9791
12.5003
12.8999
13.1871
13.3718
13.462
8.76601
9.69776
10.5646
11.3319
11.979
12.5002
12.8998