/*--------------------------------*- C++ -*----------------------------------*\
  =========                 |
  \\      /  F ield         | OpenFOAM: The Open Source CFD Toolbox
   \\    /   O peration     | Website:  https://openfoam.org
    \\  /    A nd           | Version:  6
     \\/     M anipulation  |
\*---------------------------------------------------------------------------*/
FoamFile
{
    version     2.0;
    format      ascii;
    class       surfaceScalarField;
    location    "0.05";
    object      phi;
}
// * * * * * * * * * * * * * * * * * * * * * * * * * * * * * * * * * * * * * //

dimensions      [0 3 -1 0 0 0 0];

internalField   nonuniform List<scalar> 
140400
(
7.67712e-14
8.50885e-13
1.1383e-06
9.41204e-13
1.39576e-12
2.51957e-06
2.768e-12
1.2603e-12
3.49476e-06
5.33245e-12
1.13235e-12
4.2301e-06
8.37453e-12
8.22457e-13
4.79743e-06
1.15609e-11
5.67242e-13
5.23462e-06
1.44701e-11
3.80007e-13
5.5644e-06
1.67885e-11
2.10899e-13
5.80122e-06
1.82549e-11
9.025e-14
5.95447e-06
1.86963e-11
-4.38439e-15
6.02975e-06
1.80651e-11
-9.71492e-14
6.02974e-06
1.64271e-11
-1.97042e-13
5.95442e-06
1.39749e-11
-3.27557e-13
5.80118e-06
1.09885e-11
-5.08734e-13
5.5643e-06
7.79554e-12
-7.06843e-13
5.23452e-06
4.82135e-12
-9.67767e-13
4.7973e-06
2.38826e-12
-1.2693e-12
4.22995e-06
7.24704e-13
-1.37161e-12
3.49462e-06
3.2975e-15
-1.45471e-12
2.51945e-06
-8.52286e-13
1.13824e-06
1.00092e-12
1.9579e-12
2.51957e-06
4.19332e-12
3.40263e-12
6.1742e-06
9.87157e-12
3.46634e-12
8.9335e-06
1.73201e-11
3.05783e-12
1.10677e-05
2.58389e-11
2.36279e-12
1.27318e-05
3.45417e-11
1.70472e-12
1.40207e-05
4.24205e-11
1.14349e-12
1.49955e-05
4.86657e-11
6.66365e-13
1.56967e-05
5.26152e-11
2.93075e-13
1.61508e-05
5.38352e-11
-1.95357e-14
1.6374e-05
5.21984e-11
-3.21311e-13
1.63739e-05
4.78694e-11
-6.49487e-13
1.61507e-05
4.13223e-11
-1.05128e-12
1.56966e-05
3.32596e-11
-1.5637e-12
1.49953e-05
2.45237e-11
-2.15763e-12
1.40204e-05
1.61356e-11
-2.83251e-12
1.27315e-05
8.96455e-12
-3.50737e-12
1.10673e-05
3.65161e-12
-3.84109e-12
8.93319e-06
8.02331e-13
-3.63584e-12
6.17395e-06
-2.01622e-12
2.51945e-06
2.02503e-12
2.89579e-12
3.49477e-06
7.74187e-12
5.29007e-12
8.93351e-06
1.71806e-11
5.62955e-12
1.32067e-05
2.91476e-11
5.0697e-12
1.65847e-05
4.25414e-11
4.05226e-12
1.92507e-05
5.60555e-11
3.00016e-12
2.13303e-05
6.81925e-11
2.04416e-12
2.29097e-05
7.77786e-11
1.21893e-12
2.40486e-05
8.38439e-11
5.4181e-13
2.47874e-05
8.57492e-11
-4.50979e-14
2.51508e-05
8.33061e-11
-6.13784e-13
2.51507e-05
7.67468e-11
-1.22853e-12
2.47873e-05
6.67595e-11
-1.95622e-12
2.40485e-05
5.43666e-11
-2.8439e-12
2.29094e-05
4.07888e-11
-3.85737e-12
2.13299e-05
2.75474e-11
-4.9379e-12
1.92503e-05
1.59364e-11
-5.92103e-12
1.65842e-05
6.9865e-12
-6.3542e-12
1.32063e-05
1.74508e-12
-5.77616e-12
8.93316e-06
-3.05958e-12
3.4946e-06
3.0185e-12
3.4412e-12
4.23013e-06
1.10232e-11
6.50734e-12
1.10677e-05
2.38436e-11
7.16051e-12
1.65847e-05
3.9838e-11
6.5751e-12
2.10228e-05
5.75192e-11
5.39305e-12
2.45657e-05
7.51813e-11
4.06816e-12
2.73492e-05
9.09573e-11
2.80869e-12
2.94736e-05
1.03385e-10
1.70145e-12
3.10102e-05
1.11248e-10
7.60002e-13
3.20087e-05
1.1375e-10
-7.59085e-14
3.25005e-05
1.10655e-10
-8.8937e-13
3.25005e-05
1.02242e-10
-1.76399e-12
3.20087e-05
8.93591e-11
-2.77549e-12
3.101e-05
7.32801e-11
-3.96879e-12
2.94733e-05
5.55256e-11
-5.30614e-12
2.7349e-05
3.79983e-11
-6.66733e-12
2.45652e-05
2.23992e-11
-7.80196e-12
2.10223e-05
1.01398e-11
-8.21699e-12
1.65842e-05
2.6909e-12
-7.24304e-12
1.10673e-05
-3.71628e-12
4.22993e-06
3.82874e-12
3.55461e-12
4.79746e-06
1.38051e-11
6.91472e-12
1.27319e-05
2.95341e-11
7.78924e-12
1.92508e-05
4.8984e-11
7.28414e-12
2.45657e-05
7.02999e-11
6.08105e-12
2.88491e-05
9.1454e-11
4.6493e-12
3.22372e-05
1.10289e-10
3.24771e-12
3.48348e-05
1.25095e-10
1.98822e-12
3.67192e-05
1.34461e-10
8.88395e-13
3.79465e-05
1.37472e-10
-1.04491e-13
3.85515e-05
1.3385e-10
-1.07483e-12
3.85515e-05
1.23912e-10
-2.11307e-12
3.79462e-05
1.08622e-10
-3.29475e-12
3.67191e-05
8.9454e-11
-4.65425e-12
3.48343e-05
6.81829e-11
-6.14515e-12
3.22367e-05
4.70128e-11
-7.61675e-12
2.88485e-05
2.79746e-11
-8.7639e-12
2.45651e-05
1.2846e-11
-9.07227e-12
1.92503e-05
3.47264e-12
-7.82529e-12
1.27314e-05
-3.91053e-12
4.79725e-06
4.46716e-12
3.29678e-12
5.23467e-06
1.60348e-11
6.5461e-12
1.40208e-05
3.41324e-11
7.50457e-12
2.13304e-05
5.64061e-11
7.114e-12
2.73495e-05
8.07001e-11
6.0124e-12
3.22372e-05
1.04718e-10
4.6465e-12
3.61252e-05
1.26056e-10
3.27606e-12
3.91179e-05
1.42802e-10
2.01909e-12
4.12955e-05
1.53395e-10
9.00611e-13
4.27157e-05
1.56826e-10
-1.21479e-13
4.34168e-05
1.52784e-10
-1.12429e-12
4.34167e-05
1.41612e-10
-2.19269e-12
4.27157e-05
1.24369e-10
-3.39455e-12
4.12953e-05
1.02678e-10
-4.75289e-12
3.91175e-05
7.85224e-11
-6.21306e-12
3.61247e-05
5.43626e-11
-7.61786e-12
3.22368e-05
3.25051e-11
-8.66159e-12
2.73488e-05
1.50293e-11
-8.85149e-12
2.13298e-05
4.09283e-12
-7.51111e-12
1.40203e-05
-3.68178e-12
5.23445e-06
4.94368e-12
2.73171e-12
5.56446e-06
1.77215e-11
5.50765e-12
1.49957e-05
3.76496e-11
6.39334e-12
2.29098e-05
6.21283e-11
6.12178e-12
2.94738e-05
8.87591e-11
5.22295e-12
3.48348e-05
1.15025e-10
4.0701e-12
3.9118e-05
1.38324e-10
2.88868e-12
4.24255e-05
1.56592e-10
1.78802e-12
4.4838e-05
1.68149e-10
7.95667e-13
4.6414e-05
1.71911e-10
-1.19668e-13
4.71925e-05
1.67542e-10
-1.02073e-12
4.71925e-05
1.55408e-10
-1.97731e-12
4.6414e-05
1.36636e-10
-3.04376e-12
4.48378e-05
1.12969e-10
-4.23418e-12
4.24253e-05
8.65503e-11
-5.4946e-12
3.91175e-05
6.00424e-11
-6.68095e-12
3.48343e-05
3.59798e-11
-7.52724e-12
2.94731e-05
1.66853e-11
-7.61876e-12
2.29092e-05
4.55672e-12
-6.38965e-12
1.49951e-05
-3.08699e-12
5.56423e-06
5.27309e-12
1.94203e-12
5.80132e-06
1.89167e-11
3.95701e-12
1.56969e-05
4.0172e-11
4.63236e-12
2.40489e-05
6.6262e-11
4.46739e-12
3.10105e-05
9.46066e-11
3.83625e-12
3.67195e-05
1.22523e-10
3.00568e-12
4.12955e-05
1.47266e-10
2.14211e-12
4.4838e-05
1.66655e-10
1.32925e-12
4.74264e-05
1.78922e-10
5.89736e-13
4.91195e-05
1.8293e-10
-9.69474e-14
4.99563e-05
1.78322e-10
-7.7454e-13
4.99562e-05
1.65479e-10
-1.49202e-12
4.91192e-05
1.45582e-10
-2.28678e-12
4.74261e-05
1.20462e-10
-3.16635e-12
4.48378e-05
9.23797e-11
-4.08836e-12
4.1295e-05
6.41491e-11
-4.94319e-12
3.6719e-05
3.84734e-11
-5.53409e-12
3.10098e-05
1.7859e-11
-5.563e-12
2.40482e-05
4.87706e-12
-4.6282e-12
1.56963e-05
-2.21361e-12
5.80108e-06
5.47968e-12
1.00695e-12
5.95457e-06
1.96771e-11
2.06412e-12
1.6151e-05
4.17902e-11
2.42837e-12
2.47877e-05
6.89289e-11
2.35136e-12
3.2009e-05
9.83936e-11
2.02607e-12
3.79467e-05
1.27393e-10
1.59169e-12
4.2716e-05
1.53085e-10
1.13648e-12
4.64143e-05
1.7321e-10
7.05455e-13
4.91195e-05
1.85945e-10
3.11183e-13
5.08905e-05
1.90114e-10
-5.63568e-14
5.17663e-05
1.85349e-10
-4.19499e-13
5.17662e-05
1.72041e-10
-8.03397e-13
5.08902e-05
1.51404e-10
-1.22696e-12
4.91193e-05
1.25328e-10
-1.69325e-12
4.64138e-05
9.61556e-11
-2.17911e-12
4.27155e-05
6.67985e-11
-2.62574e-12
3.7946e-05
4.00727e-11
-2.92867e-12
3.20084e-05
1.86051e-11
-2.93191e-12
2.4787e-05
5.07759e-12
-2.4275e-12
1.61504e-05
-1.15426e-12
5.95431e-06
5.57909e-12
-3.675e-16
6.02988e-06
2.00454e-11
-7.8875e-16
1.63742e-05
4.25784e-11
-1.21125e-15
2.51511e-05
7.0233e-11
-1.82e-15
3.25008e-05
1.00251e-10
-2.55875e-15
3.85518e-05
1.29786e-10
-3.30625e-15
4.3417e-05
1.55948e-10
-3.98875e-15
4.71928e-05
1.76438e-10
-4.57875e-15
4.99563e-05
1.89403e-10
-5.06613e-15
5.17663e-05
1.93652e-10
-5.45236e-15
5.26615e-05
1.8881e-10
-5.73938e-15
5.26615e-05
1.75271e-10
-5.9225e-15
5.17661e-05
1.54268e-10
-5.99e-15
4.9956e-05
1.27719e-10
-5.92375e-15
4.71923e-05
9.80069e-11
-5.68625e-15
4.34165e-05
6.80936e-11
-5.2725e-15
3.8551e-05
4.08514e-11
-4.69125e-15
3.25001e-05
1.89662e-11
-3.88e-15
2.51505e-05
5.17389e-12
-2.6875e-15
1.63736e-05
-1.0175e-15
6.0296e-06
5.57909e-12
-1.00754e-12
6.02987e-06
2.00453e-11
-2.06535e-12
1.63742e-05
4.25782e-11
-2.4305e-12
2.51511e-05
7.02327e-11
-2.35483e-12
3.25007e-05
1.00251e-10
-2.03109e-12
3.85517e-05
1.29786e-10
-1.5982e-12
4.3417e-05
1.55948e-10
-1.14433e-12
4.71928e-05
1.76438e-10
-7.14456e-13
4.99562e-05
1.89404e-10
-3.21136e-13
5.17662e-05
1.93653e-10
4.56601e-14
5.26615e-05
1.8881e-10
4.0826e-13
5.26615e-05
1.75271e-10
7.91812e-13
5.17661e-05
1.54268e-10
1.21523e-12
4.9956e-05
1.27719e-10
1.68165e-12
4.71923e-05
9.8007e-11
2.168e-12
4.34165e-05
6.80936e-11
2.61543e-12
3.8551e-05
4.08514e-11
2.91941e-12
3.25001e-05
1.89661e-11
2.92411e-12
2.51505e-05
5.17385e-12
2.42202e-12
1.63737e-05
1.15217e-12
6.0296e-06
5.47963e-12
-1.94222e-12
5.95457e-06
1.96768e-11
-3.95749e-12
1.6151e-05
4.17897e-11
-4.63392e-12
2.47877e-05
6.89286e-11
-4.47057e-12
3.2009e-05
9.83937e-11
-3.84104e-12
3.79467e-05
1.27393e-10
-3.01189e-12
4.2716e-05
1.53086e-10
-2.14957e-12
4.64143e-05
1.73211e-10
-1.33779e-12
4.91195e-05
1.85945e-10
-5.99155e-13
5.08905e-05
1.90115e-10
8.68641e-14
5.17663e-05
1.8535e-10
7.6399e-13
5.17662e-05
1.72041e-10
1.48115e-12
5.08902e-05
1.51405e-10
2.27576e-12
4.91193e-05
1.25329e-10
3.15551e-12
4.64138e-05
9.6156e-11
4.07804e-12
4.27155e-05
6.67986e-11
4.9336e-12
3.7946e-05
4.00725e-11
5.52529e-12
3.20084e-05
1.86047e-11
5.5553e-12
2.4787e-05
5.07743e-12
4.62256e-12
1.61504e-05
2.21145e-12
5.95431e-06
5.27293e-12
-2.73155e-12
5.80133e-06
1.89162e-11
-5.50787e-12
1.56969e-05
4.01713e-11
-6.39491e-12
2.40489e-05
6.62615e-11
-6.12494e-12
3.10105e-05
9.46066e-11
-5.22746e-12
3.67195e-05
1.22524e-10
-4.07585e-12
4.12955e-05
1.47267e-10
-2.89553e-12
4.4838e-05
1.66656e-10
-1.79582e-12
4.74264e-05
1.78924e-10
-8.04224e-13
4.91195e-05
1.82932e-10
1.10563e-13
4.99563e-05
1.78324e-10
1.01124e-12
4.99563e-05
1.65481e-10
1.96754e-12
4.91193e-05
1.45584e-10
3.03389e-12
4.74261e-05
1.20463e-10
4.2245e-12
4.48378e-05
9.23805e-11
5.48544e-12
4.1295e-05
6.4149e-11
6.67251e-12
3.6719e-05
3.84726e-11
7.51953e-12
3.10098e-05
1.78582e-11
7.61189e-12
2.40482e-05
4.87677e-12
6.38453e-12
1.56963e-05
3.08501e-12
5.80108e-06
4.94344e-12
-3.297e-12
5.56446e-06
1.77206e-11
-6.54758e-12
1.49957e-05
3.76484e-11
-7.50727e-12
2.29098e-05
6.21273e-11
-7.11746e-12
2.94738e-05
8.87589e-11
-6.01659e-12
3.48348e-05
1.15025e-10
-4.65165e-12
3.9118e-05
1.38325e-10
-3.28216e-12
4.24256e-05
1.56593e-10
-2.02597e-12
4.4838e-05
1.6815e-10
-9.08066e-13
4.6414e-05
1.71913e-10
1.13616e-13
4.71925e-05
1.67545e-10
1.11612e-12
4.71925e-05
1.5541e-10
2.18432e-12
4.6414e-05
1.36638e-10
3.38616e-12
4.48378e-05
1.12971e-10
4.74466e-12
4.24253e-05
8.65511e-11
6.20525e-12
3.91175e-05
6.0042e-11
7.61088e-12
3.48343e-05
3.59784e-11
8.65574e-12
2.94731e-05
1.66841e-11
8.84685e-12
2.29092e-05
4.55642e-12
7.50796e-12
1.49951e-05
3.68061e-12
5.56423e-06
4.4669e-12
-3.55596e-12
5.23467e-06
1.60335e-11
-6.91823e-12
1.40208e-05
3.41304e-11
-7.79314e-12
2.13304e-05
5.64046e-11
-7.28765e-12
2.73495e-05
8.06997e-11
-6.0848e-12
3.22372e-05
1.04719e-10
-4.6539e-12
3.61252e-05
1.26057e-10
-3.25313e-12
3.91179e-05
1.42804e-10
-1.99417e-12
4.12955e-05
1.53398e-10
-8.94676e-13
4.27157e-05
1.56829e-10
9.79823e-14
4.34167e-05
1.52787e-10
1.06816e-12
4.34167e-05
1.41615e-10
2.10637e-12
4.27157e-05
1.24371e-10
3.28819e-12
4.12952e-05
1.0268e-10
4.64788e-12
3.91175e-05
7.85229e-11
6.13905e-12
3.61247e-05
5.43616e-11
7.61141e-12
3.22367e-05
3.25032e-11
8.76029e-12
2.73487e-05
1.50278e-11
9.07055e-12
2.13298e-05
4.09265e-12
7.82486e-12
1.40203e-05
3.91059e-12
5.23445e-06
3.82822e-12
-3.44279e-12
4.79746e-06
1.38032e-11
-6.51035e-12
1.27319e-05
2.95314e-11
-7.1632e-12
1.92508e-05
4.89818e-11
-6.57746e-12
2.45657e-05
7.02991e-11
-5.39624e-12
2.88491e-05
9.1455e-11
-4.0725e-12
3.22373e-05
1.10291e-10
-2.81372e-12
3.48348e-05
1.25098e-10
-1.7067e-12
3.67193e-05
1.34464e-10
-7.65239e-13
3.79465e-05
1.37475e-10
7.07223e-14
3.85515e-05
1.33853e-10
8.84261e-13
3.85515e-05
1.23915e-10
1.75912e-12
3.79464e-05
1.08625e-10
2.77115e-12
3.67191e-05
8.94559e-11
3.965e-12
3.48343e-05
6.81828e-11
5.30252e-12
3.22367e-05
4.70107e-11
6.66385e-12
2.88486e-05
2.7972e-11
7.79944e-12
2.45651e-05
1.28442e-11
8.21601e-12
1.92503e-05
3.47229e-12
7.24309e-12
1.27314e-05
3.71656e-12
4.79725e-06
3.01711e-12
-2.89483e-12
4.23013e-06
1.10203e-11
-5.28763e-12
1.10677e-05
2.38399e-11
-5.62722e-12
1.65847e-05
3.9835e-11
-5.06936e-12
2.10228e-05
5.75183e-11
-4.05472e-12
2.45657e-05
7.51824e-11
-3.00454e-12
2.73493e-05
9.09598e-11
-2.04919e-12
2.94736e-05
1.03388e-10
-1.22383e-12
3.10103e-05
1.11251e-10
-5.46287e-13
3.20088e-05
1.13753e-10
4.10708e-14
3.25005e-05
1.10658e-10
6.10224e-13
3.25005e-05
1.02246e-10
1.22567e-12
3.20088e-05
8.93626e-11
1.95449e-12
3.101e-05
7.3282e-11
2.84343e-12
2.94733e-05
5.55248e-11
3.85721e-12
2.7349e-05
3.7995e-11
4.93635e-12
2.45652e-05
2.23954e-11
5.91749e-12
2.10223e-05
1.01371e-11
6.34961e-12
1.65842e-05
2.68985e-12
5.77181e-12
1.10673e-05
3.05764e-12
4.22993e-06
2.02271e-12
-1.95326e-12
3.49477e-06
7.73721e-12
-3.39434e-12
8.93352e-06
1.71752e-11
-3.45911e-12
1.32067e-05
2.91433e-11
-3.05486e-12
1.65847e-05
4.25397e-11
-2.36407e-12
1.92507e-05
5.60566e-11
-1.70849e-12
2.13303e-05
6.81952e-11
-1.14798e-12
2.29097e-05
7.77819e-11
-6.70601e-13
2.40487e-05
8.3847e-11
-2.96669e-13
2.47874e-05
8.57522e-11
1.66899e-14
2.51507e-05
8.33095e-11
3.19323e-13
2.51507e-05
7.67509e-11
6.48624e-13
2.47873e-05
6.67635e-11
1.0519e-12
2.40485e-05
5.43685e-11
1.56586e-12
2.29094e-05
4.07869e-11
2.16004e-12
2.13299e-05
2.7542e-11
2.83229e-12
1.92503e-05
1.59301e-11
3.50262e-12
1.65842e-05
6.9819e-12
3.83253e-12
1.32063e-05
1.74317e-12
3.62653e-12
8.93317e-06
2.01117e-12
3.4946e-06
9.98804e-13
-8.45686e-13
2.51958e-06
4.18737e-12
-1.38731e-12
6.1742e-06
9.86375e-12
-1.25351e-12
8.9335e-06
1.73139e-11
-1.12946e-12
1.10677e-05
2.58362e-11
-8.22884e-13
1.27318e-05
3.45425e-11
-5.69489e-13
1.40207e-05
4.24231e-11
-3.82729e-13
1.49955e-05
4.86688e-11
-2.13402e-13
1.56967e-05
5.2618e-11
-9.22623e-14
1.61508e-05
5.38379e-11
2.96331e-15
1.6374e-05
5.22016e-11
9.64522e-14
1.6374e-05
4.78736e-11
1.9729e-13
1.61507e-05
4.13265e-11
3.28925e-13
1.56966e-05
3.32614e-11
5.11182e-13
1.49953e-05
2.45206e-11
7.09447e-13
1.40204e-05
1.61275e-11
9.68358e-13
1.27315e-05
8.9548e-12
1.26589e-12
1.10673e-05
3.64474e-12
1.36429e-12
8.93319e-06
8.00368e-13
1.44608e-12
6.17395e-06
8.47295e-13
2.51945e-06
7.54274e-14
1.1383e-06
9.36559e-13
2.51958e-06
2.76132e-12
3.49476e-06
5.32721e-12
4.2301e-06
8.37213e-12
4.79743e-06
1.1561e-11
5.23463e-06
1.44715e-11
5.5644e-06
1.67902e-11
5.80123e-06
1.82564e-11
5.95448e-06
1.86977e-11
6.02975e-06
1.80669e-11
6.02975e-06
1.64296e-11
5.95443e-06
1.39775e-11
5.80118e-06
1.09893e-11
5.56431e-06
7.79289e-12
5.23452e-06
4.81491e-12
4.7973e-06
2.38013e-12
4.22995e-06
7.19228e-13
3.49462e-06
2.10912e-15
2.51945e-06
1.13824e-06
-5.80811e-13
1.95893e-12
1.1383e-06
-8.71575e-14
3.46959e-12
2.51957e-06
2.2001e-12
3.55587e-12
3.49475e-06
6.23541e-12
3.26459e-12
4.23009e-06
1.1583e-11
2.62021e-12
4.79741e-06
1.75135e-11
1.97677e-12
5.23461e-06
2.31327e-11
1.4056e-12
5.56439e-06
2.76731e-11
8.78437e-13
5.80122e-06
3.05082e-11
4.2654e-13
5.95446e-06
3.12388e-11
1.75111e-14
6.02975e-06
2.97594e-11
-3.87541e-13
6.02975e-06
2.62565e-11
-8.12879e-13
5.95444e-06
2.12098e-11
-1.29402e-12
5.80118e-06
1.53173e-11
-1.85536e-12
5.56431e-06
9.39548e-12
-2.45326e-12
5.23452e-06
4.34485e-12
-3.09944e-12
4.7973e-06
8.38598e-13
-3.69832e-12
4.22996e-06
-8.2808e-13
-3.87872e-12
3.49462e-06
-8.10937e-13
-3.60411e-12
2.51946e-06
-1.91695e-12
1.13824e-06
4.1554e-13
4.84747e-12
2.51957e-06
4.37159e-12
9.05434e-12
6.1742e-06
1.32505e-11
9.91396e-12
8.93349e-06
2.64177e-11
9.2082e-12
1.10676e-05
4.2564e-11
7.66736e-12
1.27318e-05
5.97474e-11
5.94216e-12
1.40207e-05
7.57344e-11
4.2687e-12
1.49955e-05
8.85411e-11
2.71181e-12
1.56967e-05
9.65565e-11
1.30871e-12
1.61508e-05
9.87523e-11
-2.977e-16
1.6374e-05
9.48404e-11
-1.29744e-12
1.63739e-05
8.52854e-11
-2.65437e-12
1.61507e-05
7.12914e-11
-4.14222e-12
1.56966e-05
5.46304e-11
-5.79713e-12
1.49953e-05
3.74028e-11
-7.54579e-12
1.40205e-05
2.18703e-11
-9.27469e-12
1.27315e-05
9.8707e-12
-1.06866e-11
1.10674e-05
2.42937e-12
-1.10796e-11
8.9332e-06
-2.56709e-13
-9.71091e-12
6.17395e-06
-4.95284e-12
2.51945e-06
2.18593e-12
7.62773e-12
3.49477e-06
1.08716e-11
1.47308e-11
8.9335e-06
2.72683e-11
1.66097e-11
1.32067e-05
4.9926e-11
1.57352e-11
1.65846e-05
7.66406e-11
1.33997e-11
1.92507e-05
1.04455e-10
1.05662e-11
2.13302e-05
1.30012e-10
7.6767e-12
2.29096e-05
1.50372e-10
4.9176e-12
2.40486e-05
1.63138e-10
2.35515e-12
2.47874e-05
1.66771e-10
-8.08062e-14
2.51508e-05
1.6083e-10
-2.50408e-12
2.51507e-05
1.45982e-10
-5.02481e-12
2.47873e-05
1.23993e-10
-7.73613e-12
2.40485e-05
9.74758e-11
-1.06658e-11
2.29094e-05
6.95394e-11
-1.36836e-11
2.13299e-05
4.35979e-11
-1.65187e-11
1.92504e-05
2.24948e-11
-1.86298e-11
1.65842e-05
8.07596e-12
-1.89708e-11
1.32063e-05
1.19838e-12
-1.62239e-11
8.93319e-06
-8.06871e-12
3.49461e-06
4.20437e-12
9.53487e-12
4.23011e-06
1.78148e-11
1.88784e-11
1.10677e-05
4.17188e-11
2.17714e-11
1.65846e-05
7.35795e-11
2.09642e-11
2.10228e-05
1.10286e-10
1.81561e-11
2.45656e-05
1.47927e-10
1.45005e-11
2.73492e-05
1.8222e-10
1.0628e-11
2.94735e-05
2.0943e-10
6.8464e-12
3.10102e-05
2.2651e-10
3.25379e-12
3.20087e-05
2.3151e-10
-2.08896e-13
3.25005e-05
2.23857e-10
-3.66501e-12
3.25005e-05
2.04369e-10
-7.24421e-12
3.20087e-05
1.75252e-10
-1.10405e-11
3.101e-05
1.39802e-10
-1.50538e-11
2.94734e-05
1.01961e-10
-1.90971e-11
2.7349e-05
6.61025e-11
-2.27482e-11
2.45652e-05
3.60317e-11
-2.52474e-11
2.10224e-05
1.4457e-11
-2.53301e-11
1.65842e-05
3.01209e-12
-2.12481e-11
1.10673e-05
-1.03557e-11
4.22994e-06
6.06897e-12
1.02627e-11
4.79745e-06
2.43043e-11
2.07414e-11
1.27318e-05
5.5167e-11
2.43254e-11
1.92508e-05
9.5464e-11
2.37479e-11
2.45657e-05
1.41203e-10
2.08218e-11
2.8849e-05
1.87641e-10
1.67898e-11
3.22372e-05
2.2971e-10
1.23946e-11
3.48346e-05
2.62991e-10
8.01387e-12
3.67192e-05
2.83901e-10
3.77896e-12
3.79465e-05
2.9015e-10
-3.45023e-13
3.85515e-05
2.81054e-10
-4.47289e-12
3.85515e-05
2.57547e-10
-8.73224e-12
3.79464e-05
2.22184e-10
-1.3203e-11
3.67193e-05
1.78821e-10
-1.78502e-11
3.48344e-05
1.32115e-10
-2.24383e-11
3.22369e-05
8.7253e-11
-2.64578e-11
2.88486e-05
4.88872e-11
-2.90196e-11
2.45652e-05
2.05798e-11
-2.87509e-11
1.92503e-05
4.74368e-12
-2.3765e-11
1.27314e-05
-1.13794e-11
4.79726e-06
7.66264e-12
9.8209e-12
5.23467e-06
2.99011e-11
2.01603e-11
1.40208e-05
6.68001e-11
2.39495e-11
2.13303e-05
1.14405e-10
2.36273e-11
2.73494e-05
1.67951e-10
2.09054e-11
3.22372e-05
2.21971e-10
1.6984e-11
3.61252e-05
2.70718e-10
1.26078e-11
3.91178e-05
3.09202e-10
8.17079e-12
4.12954e-05
3.334e-10
3.82506e-12
4.27157e-05
3.40741e-10
-4.40106e-13
4.34168e-05
3.30445e-10
-4.71939e-12
4.34167e-05
3.0354e-10
-9.12194e-12
4.27157e-05
2.62863e-10
-1.37064e-11
4.12953e-05
2.12724e-10
-1.84114e-11
3.91175e-05
1.58378e-10
-2.29786e-11
3.61247e-05
1.05716e-10
-2.68801e-11
3.22368e-05
6.01269e-11
-2.92239e-11
2.73489e-05
2.59302e-11
-2.86746e-11
2.13298e-05
6.24724e-12
-2.3432e-11
1.40203e-05
-1.1066e-11
5.23446e-06
8.93139e-12
8.33731e-12
5.56445e-06
3.44027e-11
1.73158e-11
1.49956e-05
7.62193e-11
2.07645e-11
2.29098e-05
1.29804e-10
2.06454e-11
2.94738e-05
1.89746e-10
1.8393e-11
3.48348e-05
2.49971e-10
1.50278e-11
3.91179e-05
3.04179e-10
1.12005e-11
4.24255e-05
3.46914e-10
7.2694e-12
4.4838e-05
3.73799e-10
3.38221e-12
4.6414e-05
3.82041e-10
-4.55619e-13
4.71925e-05
3.70783e-10
-4.31332e-12
4.71925e-05
3.41121e-10
-8.27301e-12
4.6414e-05
2.96119e-10
-1.23714e-11
4.48378e-05
2.40452e-10
-1.65385e-11
4.24253e-05
1.79854e-10
-2.05315e-11
3.91175e-05
1.20792e-10
-2.38734e-11
3.48343e-05
6.92753e-11
-2.57821e-11
2.94733e-05
3.02597e-11
-2.51144e-11
2.29092e-05
7.45198e-12
-2.03489e-11
1.49952e-05
-9.50913e-12
5.56423e-06
9.86235e-12
6.03031e-12
5.80131e-06
3.77542e-11
1.2626e-11
1.56968e-05
8.32841e-11
1.52386e-11
2.40488e-05
1.41404e-10
1.52343e-11
3.10105e-05
2.06208e-10
1.36367e-11
3.67195e-05
2.71153e-10
1.11844e-11
4.12955e-05
3.29516e-10
8.3582e-12
4.4838e-05
3.75487e-10
5.42934e-12
4.74262e-05
4.0442e-10
2.51397e-12
4.91194e-05
4.13352e-10
-3.76441e-13
4.99563e-05
4.01366e-10
-3.28561e-12
4.99562e-05
3.69614e-10
-6.26684e-12
4.91192e-05
3.21326e-10
-9.33933e-12
4.74263e-05
2.61454e-10
-1.2443e-11
4.48378e-05
1.961e-10
-1.53905e-11
4.1295e-05
1.32171e-10
-1.78218e-11
3.6719e-05
7.61515e-11
-1.91575e-11
3.10098e-05
3.34897e-11
-1.8566e-11
2.40482e-05
8.33703e-12
-1.49545e-11
1.56964e-05
-6.93684e-12
5.80108e-06
1.04707e-11
3.15874e-12
5.95456e-06
3.99652e-11
6.6448e-12
1.6151e-05
8.7971e-11
8.05016e-12
2.47876e-05
1.49128e-10
8.07343e-12
3.2009e-05
2.17195e-10
7.24625e-12
3.79466e-05
2.85312e-10
5.95587e-12
4.2716e-05
3.46471e-10
4.45739e-12
4.64141e-05
3.9462e-10
2.89628e-12
4.91195e-05
4.24931e-10
1.33623e-12
5.08905e-05
4.3433e-10
-2.14271e-13
5.17663e-05
4.21855e-10
-1.77599e-12
5.17662e-05
3.88697e-10
-3.37483e-12
5.08902e-05
3.38201e-10
-5.01839e-12
4.91193e-05
2.75501e-10
-6.67213e-12
4.64139e-05
2.06949e-10
-8.23427e-12
4.27155e-05
1.39752e-10
-9.51178e-12
3.79461e-05
8.07155e-11
-1.01969e-11
3.20085e-05
3.56208e-11
-9.85227e-12
2.4787e-05
8.91485e-12
-7.90808e-12
1.61505e-05
-3.65235e-12
5.95433e-06
1.07706e-11
-1.175e-16
6.02986e-06
4.10612e-11
-1.75e-16
1.63742e-05
9.03029e-11
-3.375e-16
2.5151e-05
1.52981e-10
-7.625e-16
3.25008e-05
2.22685e-10
-1.35e-15
3.85516e-05
2.92396e-10
-2e-15
4.34169e-05
3.54959e-10
-2.59625e-15
4.71926e-05
4.04203e-10
-3.13e-15
4.99563e-05
4.35208e-10
-3.5825e-15
5.17663e-05
4.4484e-10
-3.94912e-15
5.26615e-05
4.3212e-10
-4.22875e-15
5.26615e-05
3.98256e-10
-4.4175e-15
5.17663e-05
3.46649e-10
-4.5125e-15
4.9956e-05
2.82527e-10
-4.4875e-15
4.71924e-05
2.1237e-10
-4.3375e-15
4.34165e-05
1.43532e-10
-4.0625e-15
3.85511e-05
8.29858e-11
-3.6625e-15
3.25003e-05
3.66767e-11
-3.0875e-15
2.51505e-05
9.19937e-12
-2.175e-15
1.63737e-05
-8.2375e-16
6.0296e-06
1.07706e-11
-3.15884e-12
6.02986e-06
4.10611e-11
-6.64486e-12
1.63742e-05
9.03026e-11
-8.05063e-12
2.5151e-05
1.52981e-10
-8.07486e-12
3.25007e-05
2.22684e-10
-7.24894e-12
3.85516e-05
2.92396e-10
-5.95984e-12
4.3417e-05
3.5496e-10
-4.46254e-12
4.71926e-05
4.04204e-10
-2.90246e-12
4.99562e-05
4.35207e-10
-1.34329e-12
5.17662e-05
4.4484e-10
2.06498e-13
5.26615e-05
4.3212e-10
1.7677e-12
5.26615e-05
3.98256e-10
3.36616e-12
5.17662e-05
3.46649e-10
5.00954e-12
4.99561e-05
2.82527e-10
6.66331e-12
4.71924e-05
2.1237e-10
8.22579e-12
4.34165e-05
1.43532e-10
9.50383e-12
3.85511e-05
8.29856e-11
1.01897e-11
3.25003e-05
3.66766e-11
9.84604e-12
2.51505e-05
9.19933e-12
7.9036e-12
1.63737e-05
3.65065e-12
6.0296e-06
1.04707e-11
-6.03009e-12
5.95456e-06
3.99649e-11
-1.26255e-11
1.6151e-05
8.79706e-11
-1.52387e-11
2.47876e-05
1.49128e-10
-1.52356e-11
3.2009e-05
2.17195e-10
-1.36394e-11
3.79466e-05
2.85312e-10
-1.11882e-11
4.2716e-05
3.46471e-10
-8.36319e-12
4.64141e-05
3.94621e-10
-5.43529e-12
4.91195e-05
4.24934e-10
-2.52074e-12
5.08905e-05
4.34332e-10
3.69043e-13
5.17663e-05
4.21857e-10
3.27777e-12
5.17662e-05
3.88699e-10
6.25865e-12
5.08904e-05
3.38201e-10
9.33096e-12
4.91193e-05
2.75501e-10
1.24347e-11
4.64139e-05
2.0695e-10
1.53826e-11
4.27155e-05
1.39752e-10
1.78144e-11
3.79461e-05
8.07151e-11
1.91506e-11
3.20085e-05
3.56204e-11
1.85598e-11
2.4787e-05
8.9147e-12
1.49499e-11
1.61505e-05
6.93508e-12
5.95433e-06
9.86225e-12
-8.33686e-12
5.80131e-06
3.77536e-11
-1.73152e-11
1.56969e-05
8.32834e-11
-2.07649e-11
2.40488e-05
1.41404e-10
-2.06471e-11
3.10105e-05
2.06208e-10
-1.83958e-11
3.67195e-05
2.71153e-10
-1.50315e-11
4.12955e-05
3.29516e-10
-1.12052e-11
4.4838e-05
3.75488e-10
-7.27496e-12
4.74263e-05
4.04421e-10
-3.38849e-12
4.91195e-05
4.13355e-10
4.48843e-13
4.99563e-05
4.01368e-10
4.30619e-12
4.99563e-05
3.69615e-10
8.26557e-12
4.91193e-05
3.21328e-10
1.23639e-11
4.74263e-05
2.61455e-10
1.65311e-11
4.48378e-05
1.96101e-10
2.05245e-11
4.1295e-05
1.32171e-10
2.38669e-11
3.6719e-05
7.61508e-11
2.5776e-11
3.10098e-05
3.34889e-11
2.5109e-11
2.40482e-05
8.33678e-12
2.03447e-11
1.56964e-05
9.50755e-12
5.80108e-06
8.9312e-12
-9.82096e-12
5.56445e-06
3.44018e-11
-2.01612e-11
1.49956e-05
7.62181e-11
-2.39513e-11
2.29098e-05
1.29803e-10
-2.36295e-11
2.94738e-05
1.89746e-10
-2.09081e-11
3.48348e-05
2.49971e-10
-1.69875e-11
3.91179e-05
3.0418e-10
-1.26121e-11
4.24255e-05
3.46916e-10
-8.17585e-12
4.4838e-05
3.73801e-10
-3.83066e-12
4.6414e-05
3.82044e-10
4.34148e-13
4.71925e-05
3.70785e-10
4.71315e-12
4.71925e-05
3.41124e-10
9.11551e-12
4.6414e-05
2.96121e-10
1.36999e-11
4.48378e-05
2.40454e-10
1.8405e-11
4.24253e-05
1.79855e-10
2.29725e-11
3.91175e-05
1.20792e-10
2.68748e-11
3.48343e-05
6.9274e-11
2.92194e-11
2.94733e-05
3.02586e-11
2.86712e-11
2.29092e-05
7.45171e-12
2.34297e-11
1.49952e-05
1.10652e-11
5.56423e-06
7.66239e-12
-1.0264e-11
5.23467e-06
2.98998e-11
-2.07444e-11
1.40208e-05
6.67982e-11
-2.43285e-11
2.13303e-05
1.14404e-10
-2.37504e-11
2.73494e-05
1.67951e-10
-2.08245e-11
3.22372e-05
2.21972e-10
-1.67931e-11
3.61252e-05
2.7072e-10
-1.23986e-11
3.91177e-05
3.09205e-10
-8.01845e-12
4.12954e-05
3.33402e-10
-3.78381e-12
4.27157e-05
3.40744e-10
3.39978e-13
4.34167e-05
3.30447e-10
4.4677e-12
4.34167e-05
3.03542e-10
8.72705e-12
4.27157e-05
2.62866e-10
1.3198e-11
4.12952e-05
2.12726e-10
1.78452e-11
3.91175e-05
1.58379e-10
2.24336e-11
3.61247e-05
1.05715e-10
2.64538e-11
3.22367e-05
6.0125e-11
2.9017e-11
2.73489e-05
2.59289e-11
2.875e-11
2.13298e-05
6.24705e-12
2.37652e-11
1.40203e-05
1.13797e-11
5.23446e-06
6.06846e-12
-9.53634e-12
4.79745e-06
2.43026e-11
-1.88809e-11
1.27318e-05
5.51645e-11
-2.17734e-11
1.92508e-05
9.54619e-11
-2.09659e-11
2.45657e-05
1.41203e-10
-1.81585e-11
2.8849e-05
1.87642e-10
-1.45039e-11
3.22373e-05
2.29712e-10
-1.06321e-11
3.48346e-05
2.62994e-10
-6.85066e-12
3.67193e-05
2.83904e-10
-3.258e-12
3.79465e-05
2.90154e-10
2.04758e-13
3.85515e-05
2.81058e-10
3.66097e-12
3.85515e-05
2.5755e-10
7.24045e-12
3.79465e-05
2.22187e-10
1.10373e-11
3.67193e-05
1.78823e-10
1.50511e-11
3.48344e-05
1.32115e-10
1.90944e-11
3.22369e-05
8.72513e-11
2.27456e-11
2.88488e-05
4.88847e-11
2.52456e-11
2.45652e-05
2.0578e-11
2.53297e-11
1.92503e-05
4.74328e-12
2.12486e-11
1.27314e-05
1.03561e-11
4.79726e-06
4.20304e-12
-7.62669e-12
4.23011e-06
1.7812e-11
-1.4728e-11
1.10677e-05
4.17151e-11
-1.66069e-11
1.65847e-05
7.35766e-11
-1.57345e-11
2.10228e-05
1.10285e-10
-1.34017e-11
2.45656e-05
1.47928e-10
-1.057e-11
2.73493e-05
1.82223e-10
-7.68109e-12
2.94735e-05
2.09433e-10
-4.92188e-12
3.10103e-05
2.26513e-10
-2.35898e-12
3.20088e-05
2.31513e-10
7.7451e-14
3.25005e-05
2.23861e-10
2.50122e-12
3.25005e-05
2.04374e-10
5.02269e-12
3.20088e-05
1.75256e-10
7.73511e-12
3.101e-05
1.39804e-10
1.0666e-11
2.94734e-05
1.0196e-10
1.3684e-11
2.7349e-05
6.60993e-11
1.65176e-11
2.45653e-05
3.6028e-11
1.86267e-11
2.10224e-05
1.44544e-11
1.89666e-11
1.65842e-05
3.01102e-12
1.62198e-11
1.10673e-05
8.06688e-12
4.22994e-06
2.1837e-12
-4.84276e-12
3.49477e-06
1.0867e-11
-9.04573e-12
8.93351e-06
2.7263e-11
-9.9066e-12
1.32067e-05
4.9922e-11
-9.20506e-12
1.65846e-05
7.6639e-11
-7.66842e-12
1.92507e-05
1.04456e-10
-5.94567e-12
2.13302e-05
1.30015e-10
-4.2729e-12
2.29096e-05
1.50375e-10
-2.71574e-12
2.40486e-05
1.63141e-10
-1.31198e-12
2.47874e-05
1.66774e-10
-2.20215e-15
2.51507e-05
1.60834e-10
1.29581e-12
2.51507e-05
1.45986e-10
2.65388e-12
2.47873e-05
1.23997e-10
4.14321e-12
2.40485e-05
9.74779e-11
5.79962e-12
2.29094e-05
6.95376e-11
7.54845e-12
2.133e-05
4.35927e-11
9.27466e-12
1.92504e-05
2.24888e-11
1.0682e-11
1.65842e-05
8.0715e-12
1.10711e-11
1.32063e-05
1.19644e-12
9.70172e-12
8.93319e-06
4.94787e-12
3.49461e-06
4.13328e-13
-1.95383e-12
2.51958e-06
4.36557e-12
-3.46098e-12
6.1742e-06
1.32428e-11
-3.54911e-12
8.93349e-06
2.64116e-11
-3.2617e-12
1.10676e-05
4.25615e-11
-2.62064e-12
1.27318e-05
5.97481e-11
-1.97902e-12
1.40207e-05
7.57369e-11
-1.40831e-12
1.49955e-05
8.8544e-11
-8.80895e-13
1.56967e-05
9.65591e-11
-4.2848e-13
1.61508e-05
9.87549e-11
-1.88444e-14
1.6374e-05
9.48438e-11
3.86929e-13
1.6374e-05
8.52898e-11
8.13207e-13
1.61507e-05
7.12956e-11
1.29548e-12
1.56966e-05
5.46321e-11
1.85789e-12
1.49953e-05
3.73997e-11
2.45596e-12
1.40205e-05
2.18625e-11
3.10008e-12
1.27315e-05
9.86121e-12
3.69489e-12
1.10674e-05
2.42267e-12
3.87131e-12
8.9332e-06
-2.58678e-13
3.59543e-12
6.17395e-06
1.91199e-12
2.51945e-06
-5.82001e-13
1.1383e-06
-9.17312e-14
2.51958e-06
2.19357e-12
3.49475e-06
6.23028e-12
4.23009e-06
1.15806e-11
4.79741e-06
1.75135e-11
5.23461e-06
2.31339e-11
5.56439e-06
2.76746e-11
5.80123e-06
3.05098e-11
5.95448e-06
3.12403e-11
6.02975e-06
2.97613e-11
6.02975e-06
2.62591e-11
5.95444e-06
2.12124e-11
5.80118e-06
1.53181e-11
5.56433e-06
9.39274e-12
5.23452e-06
4.33844e-12
4.7973e-06
8.30627e-13
4.22996e-06
-8.33366e-13
3.49462e-06
-8.12012e-13
2.51946e-06
1.13824e-06
-1.17701e-12
3.2497e-12
1.1383e-06
-7.90091e-13
5.81938e-12
2.51957e-06
2.42402e-12
6.11039e-12
3.49475e-06
8.55022e-12
5.60769e-12
4.23008e-06
1.69045e-11
4.57567e-12
4.7974e-06
2.62855e-11
3.496e-12
5.2346e-06
3.52544e-11
2.50096e-12
5.56438e-06
4.25262e-11
1.58341e-12
5.80121e-06
4.7059e-11
7.73468e-13
5.95445e-06
4.81924e-11
2.59583e-14
6.02975e-06
4.57486e-11
-7.15838e-13
6.02975e-06
4.00421e-11
-1.49457e-12
5.95445e-06
3.18699e-11
-2.36063e-12
5.80119e-06
2.2401e-11
-3.34477e-12
5.56433e-06
1.30136e-11
-4.39413e-12
5.23454e-06
5.16864e-12
-5.48417e-12
4.79731e-06
-2.32925e-14
-6.43893e-12
4.22998e-06
-2.12703e-12
-6.74009e-12
3.49464e-06
-1.593e-12
-6.10191e-12
2.51948e-06
-3.19249e-12
1.13824e-06
1.41351e-13
8.14259e-12
2.51957e-06
5.72192e-12
1.53789e-11
6.17419e-06
1.9177e-11
1.70337e-11
8.93346e-06
3.98031e-11
1.593e-11
1.10676e-05
6.5498e-11
1.34138e-11
1.27317e-05
9.30757e-11
1.04953e-11
1.40206e-05
1.18896e-10
7.59879e-12
1.49955e-05
1.3964e-10
4.86809e-12
1.56966e-05
1.52618e-10
2.35381e-12
1.61507e-05
1.56116e-10
-2.70133e-14
1.6374e-05
1.49646e-10
-2.39681e-12
1.63739e-05
1.33987e-10
-4.86952e-12
1.61507e-05
1.11148e-10
-7.54693e-12
1.56966e-05
8.41037e-11
-1.04684e-11
1.49954e-05
5.63936e-11
-1.35159e-11
1.40205e-05
3.17335e-11
-1.64535e-11
1.27316e-05
1.31478e-11
-1.87442e-11
1.10674e-05
2.24209e-12
-1.9278e-11
8.93321e-06
-1.06611e-12
-1.66783e-11