/*--------------------------------*- C++ -*----------------------------------*\
  =========                 |
  \\      /  F ield         | OpenFOAM: The Open Source CFD Toolbox
   \\    /   O peration     | Website:  https://openfoam.org
    \\  /    A nd           | Version:  6
     \\/     M anipulation  |
\*---------------------------------------------------------------------------*/
FoamFile
{
    version     2.0;
    format      ascii;
    class       volScalarField;
    location    "0.415";
    object      T;
}
// * * * * * * * * * * * * * * * * * * * * * * * * * * * * * * * * * * * * * //

dimensions      [0 0 0 1 0 0 0];

internalField   nonuniform List<scalar> 
7000
(
105.146
105.144
105.141
105.136
105.13
105.124
105.117
105.112
105.107
105.105
105.146
105.144
105.141
105.136
105.13
105.124
105.117
105.112
105.107
105.105
105.146
105.144
105.141
105.136
105.13
105.124
105.117
105.112
105.107
105.105
105.146
105.144
105.141
105.136
105.13
105.124
105.117
105.112
105.107
105.105
105.146
105.144
105.141
105.136
105.13
105.124
105.117
105.112
105.107
105.105
105.146
105.144
105.141
105.136
105.13
105.124
105.117
105.112
105.107
105.105
105.146
105.144
105.141
105.136
105.13
105.124
105.117
105.112
105.107
105.105
105.146
105.144
105.141
105.136
105.13
105.124
105.117
105.112
105.107
105.105
105.146
105.144
105.141
105.136
105.13
105.124
105.117
105.112
105.107
105.105
105.146
105.144
105.141
105.136
105.13
105.124
105.117
105.112
105.107
105.105
95.4945
95.4892
95.4791
95.4646
95.4466
95.4265
95.4062
95.3879
95.374
95.3664
95.4944
95.4892
95.4791
95.4645
95.4466
95.4265
95.4062
95.3879
95.3739
95.3664
95.4944
95.4892
95.479
95.4645
95.4465
95.4265
95.4062
95.3879
95.3739
95.3664
95.4944
95.4892
95.479
95.4645
95.4465
95.4265
95.4062
95.3879
95.3739
95.3664
95.4944
95.4892
95.479
95.4645
95.4465
95.4265
95.4062
95.3879
95.3739
95.3664
95.4944
95.4892
95.479
95.4645
95.4465
95.4265
95.4062
95.3879
95.3739
95.3664
95.4944
95.4892
95.479
95.4645
95.4465
95.4265
95.4062
95.3879
95.3739
95.3664
95.4944
95.4892
95.479
95.4645
95.4465
95.4265
95.4062
95.3879
95.3739
95.3664
95.4944
95.4892
95.479
95.4645
95.4465
95.4265
95.4062
95.3879
95.3739
95.3664
95.4944
95.4892
95.4791
95.4645
95.4466
95.4265
95.4062
95.3879
95.374
95.3664
86.0141
86.0049
85.9869
85.9611
85.9289
85.8927
85.8557
85.822
85.796
85.7818
86.014
86.0048
85.9869
85.9611
85.9289
85.8927
85.8557
85.8219
85.796
85.7818
86.014
86.0048
85.9869
85.961
85.9289
85.8926
85.8556
85.8219
85.7959
85.7818
86.0139
86.0048
85.9868
85.961
85.9288
85.8926
85.8556
85.8219
85.7959
85.7818
86.0139
86.0047
85.9868
85.961
85.9288
85.8926
85.8556
85.8219
85.7959
85.7818
86.0139
86.0047
85.9868
85.961
85.9288
85.8926
85.8556
85.8219
85.7959
85.7818
86.0139
86.0047
85.9868
85.961
85.9288
85.8926
85.8556
85.8219
85.7959
85.7818
86.0139
86.0048
85.9868
85.961
85.9289
85.8926
85.8556
85.8219
85.7959
85.7818
86.014
86.0048
85.9869
85.9611
85.9289
85.8927
85.8556
85.8219
85.796
85.7818
86.014
86.0048
85.9869
85.9611
85.9289
85.8927
85.8557
85.8219
85.796
85.7818
76.8119
76.798
76.7708
76.7313
76.6815
76.6247
76.5658
76.5112
76.4685
76.4449
76.8118
76.7979
76.7707
76.7312
76.6815
76.6247
76.5657
76.5111
76.4685
76.4449
76.8118
76.7979
76.7707
76.7312
76.6814
76.6246
76.5657
76.5111
76.4684
76.4448
76.8117
76.7978
76.7706
76.7311
76.6814
76.6246
76.5657
76.5111
76.4684
76.4448
76.8117
76.7978
76.7706
76.7311
76.6814
76.6246
76.5656
76.511
76.4684
76.4448
76.8117
76.7978
76.7706
76.7311
76.6814
76.6246
76.5656
76.511
76.4684
76.4448
76.8117
76.7978
76.7706
76.7311
76.6814
76.6246
76.5656
76.5111
76.4684
76.4448
76.8117
76.7979
76.7706
76.7312
76.6814
76.6246
76.5657
76.5111
76.4684
76.4448
76.8117
76.7979
76.7707
76.7312
76.6814
76.6246
76.5657
76.5111
76.4685
76.4449
76.8118
76.7979
76.7707
76.7312
76.6815
76.6247
76.5658
76.5112
76.4685
76.4449
67.9861
67.9666
67.9281
67.8717
67.7996
67.7157
67.6267
67.5423
67.4747
67.4366
67.986
67.9665
67.9281
67.8716
67.7995
67.7156
67.6266
67.5422
67.4746
67.4365
67.986
67.9665
67.928
67.8716
67.7994
67.7156
67.6266
67.5422
67.4746
67.4365
67.9859
67.9665
67.928
67.8716
67.7994
67.7155
67.6265
67.5421
67.4745
67.4365
67.9859
67.9664
67.9279
67.8715
67.7994
67.7155
67.6265
67.5421
67.4745
67.4364
67.9859
67.9664
67.9279
67.8715
67.7994
67.7155
67.6265
67.5421
67.4745
67.4364
67.9859
67.9664
67.928
67.8715
67.7994
67.7155
67.6265
67.5421
67.4745
67.4365
67.9859
67.9665
67.928
67.8716
67.7994
67.7156
67.6266
67.5422
67.4746
67.4365
67.986
67.9665
67.928
67.8716
67.7995
67.7156
67.6266
67.5422
67.4746
67.4365
67.986
67.9666
67.9281
67.8717
67.7995
67.7157
67.6267
67.5423
67.4747
67.4366
59.6229
59.5968
59.5448
59.4676
59.367
59.2472
59.1164
58.9879
58.8813
58.8193
59.6229
59.5967
59.5447
59.4675
59.3669
59.2471
59.1163
58.9878
58.8812
58.8192
59.6228
59.5967
59.5447
59.4674
59.3668
59.2471
59.1162
58.9878
58.8812
58.8192
59.6228
59.5966
59.5446
59.4674
59.3668
59.247
59.1162
58.9877
58.8812
58.8192
59.6227
59.5966
59.5446
59.4674
59.3668
59.247
59.1162
58.9877
58.8811
58.8192
59.6227
59.5966
59.5446
59.4674
59.3668
59.247
59.1162
58.9877
58.8811
58.8192
59.6228
59.5966
59.5446
59.4674
59.3668
59.247
59.1162
58.9878
58.8812
58.8192
59.6228
59.5966
59.5446
59.4674
59.3668
59.2471
59.1162
58.9878
58.8812
58.8192
59.6228
59.5967
59.5447
59.4675
59.3669
59.2471
59.1163
58.9878
58.8813
58.8193
59.6229
59.5968
59.5448
59.4675
59.3669
59.2472
59.1164
58.9879
58.8813
58.8193
51.7943
51.7606
51.6929
51.5908
51.455
51.2885
51.0995
50.9052
50.735
50.6307
51.7942
51.7605
51.6928
51.5907
51.4549
51.2884
51.0995
50.9051
50.735
50.6306
51.7941
51.7604
51.6927
51.5907
51.4548
51.2884
51.0994
50.9051
50.7349
50.6306
51.7941
51.7604
51.6927
51.5906
51.4548
51.2883
51.0994
50.905
50.7349
50.6305
51.7941
51.7603
51.6926
51.5906
51.4548
51.2883
51.0994
50.905
50.7349
50.6305
51.7941
51.7603
51.6926
51.5906
51.4548
51.2883
51.0994
50.905
50.7349
50.6305
51.7941
51.7604
51.6927
51.5906
51.4548
51.2883
51.0994
50.905
50.7349
50.6305
51.7941
51.7604
51.6927
51.5907
51.4548
51.2884
51.0994
50.9051
50.7349
50.6306
51.7941
51.7604
51.6927
51.5907
51.4549
51.2884
51.0995
50.9051
50.735
50.6306
51.7942
51.7605
51.6928
51.5908
51.455
51.2885
51.0995
50.9052
50.7351
50.6307
44.5562
44.5143
44.4294
44.2995
44.1222
43.8974
43.6299
43.337
43.0594
42.8729
44.5561
44.5142
44.4294
44.2994
44.1221
43.8973
43.6298
43.337
43.0594
42.8728
44.556
44.5142
44.4293
44.2993
44.1221
43.8972
43.6297
43.3369
43.0593
42.8728
44.556
44.5141
44.4292
44.2993
44.122
43.8972
43.6297
43.3369
43.0593
42.8728
44.5559
44.5141
44.4292
44.2993
44.122
43.8972
43.6297
43.3368
43.0593
42.8727
44.5559
44.5141
44.4292
44.2993
44.122
43.8972
43.6297
43.3368
43.0593
42.8727
44.556
44.5141
44.4292
44.2993
44.122
43.8972
43.6297
43.3369
43.0593
42.8728
44.556
44.5141
44.4293
44.2993
44.1221
43.8972
43.6298
43.3369
43.0593
42.8728
44.556
44.5142
44.4293
44.2994
44.1221
43.8973
43.6298
43.337
43.0594
42.8729
44.5561
44.5143
44.4294
44.2995
44.1222
43.8974
43.6299
43.3371
43.0595
42.873
37.9481
37.8982
37.7962
37.6375
37.4155
37.1233
36.7561
36.3205
35.857
35.4912
37.948
37.8981
37.7961
37.6374
37.4154
37.1232
36.756
36.3204
35.8569
35.4912
37.9479
37.898
37.7961
37.6373
37.4154
37.1231
36.7559
36.3204
35.8569
35.4911
37.9479
37.898
37.796
37.6373
37.4153
37.1231
36.7559
36.3203
35.8568
35.4911
37.9478
37.898
37.796
37.6372
37.4153
37.1231
36.7559
36.3203
35.8568
35.4911
37.9478
37.898
37.796
37.6372
37.4153
37.1231
36.7559
36.3203
35.8568
35.4911
37.9479
37.898
37.796
37.6373
37.4153
37.1231
36.7559
36.3203
35.8568
35.4911
37.9479
37.898
37.796
37.6373
37.4154
37.1231
36.7559
36.3204
35.8569
35.4911
37.9479
37.8981
37.7961
37.6374
37.4155
37.1232
36.756
36.3204
35.857
35.4912
37.948
37.8982
37.7962
37.6375
37.4155
37.1233
36.7561
36.3205
35.857
35.4913
31.9924
31.9357
31.8188
31.6344
31.3708
31.0113
30.5333
29.9105
29.1324
28.3176
31.9923
31.9356
31.8187
31.6343
31.3708
31.0112
30.5332
29.9104
29.1323
28.3176
31.9923
31.9356
31.8187
31.6343
31.3707
31.0112
30.5332
29.9104
29.1323
28.3175
31.9922
31.9355
31.8186
31.6342
31.3707
31.0111
30.5331
29.9104
29.1322
28.3175
31.9922
31.9355
31.8186
31.6342
31.3706
31.0111
30.5331
29.9103
29.1322
28.3175
31.9922
31.9355
31.8186
31.6342
31.3706
31.0111
30.5331
29.9103
29.1322
28.3175
31.9922
31.9355
31.8186
31.6342
31.3707
31.0111
30.5331
29.9104
29.1323
28.3175
31.9923
31.9355
31.8187
31.6343
31.3707
31.0112
30.5332
29.9104
29.1323
28.3176
31.9923
31.9356
31.8187
31.6343
31.3708
31.0113
30.5333
29.9105
29.1324
28.3176
31.9924
31.9357
31.8188
31.6344
31.3709
31.0113
30.5333
29.9106
29.1325
28.3177
26.6949
26.6336
26.5066
26.3046
26.0117
25.6026
25.0353
24.2316
23.017
20.9003
26.6948
26.6335
26.5065
26.3045
26.0116
25.6026
25.0352
24.2315
23.0169
20.9002
26.6947
26.6334
26.5065
26.3044
26.0116
25.6025
25.0352
24.2314
23.0169
20.9001
26.6947
26.6334
26.5064
26.3044
26.0115
25.6025
25.0351
24.2314
23.0169
20.9001
26.6947
26.6333
26.5064
26.3044
26.0115
25.6024
25.0351
24.2314
23.0168
20.9001
26.6947
26.6333
26.5064
26.3044
26.0115
25.6025
25.0351
24.2314
23.0168
20.9001
26.6947
26.6334
26.5064
26.3044
26.0115
25.6025
25.0351
24.2314
23.0169
20.9001
26.6947
26.6334
26.5065
26.3045
26.0116
25.6025
25.0352
24.2315
23.0169
20.9002
26.6948
26.6335
26.5065
26.3045
26.0116
25.6026
25.0353
24.2315
23.017
20.9002
26.6948
26.6335
26.5066
26.3046
26.0117
25.6027
25.0353
24.2316
23.0171
20.9003
22.0449
21.9821
21.8519
21.6443
21.343
20.9215
20.3382
19.5239
18.3617
16.6716
22.0449
21.982
21.8518
21.6443
21.3429
20.9214
20.3381
19.5238
18.3617
16.6716
22.0448
21.982
21.8517
21.6442
21.3428
20.9214
20.338
19.5237
18.3616
16.6715
22.0448
21.9819
21.8517
21.6442
21.3428
20.9213
20.338
19.5237
18.3616
16.6715
22.0447
21.9819
21.8517
21.6441
21.3428
20.9213
20.338
19.5237
18.3615
16.6715
22.0447
21.9819
21.8517
21.6441
21.3428
20.9213
20.338
19.5237
18.3616
16.6715
22.0448
21.9819
21.8517
21.6442
21.3428
20.9213
20.338
19.5237
18.3616
16.6715
22.0448
21.982
21.8517
21.6442
21.3428
20.9214
20.3381
19.5238
18.3616
16.6715
22.0448
21.982
21.8518
21.6443
21.3429
20.9215
20.3381
19.5238
18.3617
16.6716
22.0449
21.9821
21.8519
21.6444
21.343
20.9215
20.3382
19.5239
18.3618
16.6717
18.0175
17.9564
17.8301
17.63
17.342
16.9453
16.4107
15.6995
14.7688
13.604
18.0174
17.9563
17.8301
17.6299
17.3419
16.9452
16.4106
15.6994
14.7687
13.6039
18.0173
17.9563
17.83
17.6299
17.3418
16.9451
16.4106
15.6994
14.7687
13.6039
18.0173
17.9562
17.83
17.6298
17.3418
16.9451
16.4106
15.6994
14.7686
13.6038
18.0173
17.9562
17.83
17.6298
17.3418
16.9451
16.4105
15.6993
14.7686
13.6038
18.0173
17.9562
17.83
17.6298
17.3418
16.9451
16.4105
15.6994
14.7686
13.6038
18.0173
17.9562
17.83
17.6299
17.3418
16.9451
16.4106
15.6994
14.7686
13.6038
18.0173
17.9563
17.83
17.6299
17.3419
16.9452
16.4106
15.6994
14.7687
13.6039
18.0174
17.9563
17.8301
17.63
17.3419
16.9452
16.4107
15.6995
14.7687
13.6039
18.0175
17.9564
17.8302
17.63
17.342
16.9453
16.4107
15.6996
14.7688
13.604
14.5749
14.5185
14.4024
14.2203
13.9623
13.6155
13.165
12.5978
11.9139
11.1515
14.5748
14.5184
14.4023
14.2202
13.9622
13.6154
13.1649
12.5977
11.9138
11.1514
14.5748
14.5183
14.4023
14.2202
13.9622
13.6153
13.1648
12.5977
11.9138
11.1514
14.5748
14.5183
14.4023
14.2202
13.9621
13.6153
13.1648
12.5977
11.9137
11.1513
14.5747
14.5183
14.4023
14.2201
13.9621
13.6153
13.1648
12.5977
11.9137
11.1513
14.5747
14.5183
14.4023
14.2201
13.9621
13.6153
13.1648
12.5977
11.9137
11.1513
14.5748
14.5183
14.4023
14.2202
13.9622
13.6153
13.1648
12.5977
11.9137
11.1513
14.5748
14.5183
14.4023
14.2202
13.9622
13.6154
13.1649
12.5977
11.9138
11.1514
14.5748
14.5184
14.4024
14.2203
13.9622
13.6154
13.1649
12.5978
11.9138
11.1514
14.5749
14.5185
14.4024
14.2203
13.9623
13.6155
13.165
12.5978
11.9139
11.1515
11.6702
11.6204
11.5188
11.3615
11.143
10.8576
10.5017
10.0784
9.6057
9.13088
11.6701
11.6203
11.5188
11.3614
11.1429
10.8575
10.5017
10.0783
9.60564
9.13082
11.6701
11.6203
11.5187
11.3614
11.1429
10.8575
10.5016
10.0783
9.60559
9.13077
11.67
11.6203
11.5187
11.3614
11.1429
10.8575
10.5016
10.0782
9.60556
9.13074
11.67
11.6203
11.5187
11.3614
11.1428
10.8575
10.5016
10.0782
9.60555
9.13073
11.67
11.6203
11.5187
11.3614
11.1428
10.8575
10.5016
10.0782
9.60556
9.13073
11.67
11.6203
11.5187
11.3614
11.1429
10.8575
10.5016
10.0782
9.60558
9.13075
11.6701
11.6203
11.5188
11.3614
11.1429
10.8575
10.5017
10.0783
9.60561
9.13079
11.6701
11.6204
11.5188
11.3615
11.1429
10.8576
10.5017
10.0783
9.60566
9.13084
11.6702
11.6204
11.5189
11.3615
11.143
10.8576
10.5018
10.0784
9.60573
9.13091
9.25009
9.20807
9.12306
8.99333
8.81724
8.59466
8.32935
8.03272
7.72897
7.46075
9.25004
9.20802
9.123
8.99327
8.81719
8.5946
8.3293
8.03266
7.72892
7.46069
9.25
9.20798
9.12297
8.99324
8.81715
8.59457
8.32926
8.03263
7.72888
7.46065
9.24998
9.20795
9.12294
8.99321
8.81712
8.59454
8.32923
8.0326
7.72886
7.46063
9.24996
9.20794
9.12293
8.9932
8.81712
8.59453
8.32922
8.03259
7.72885
7.46062
9.24997
9.20794
9.12293
8.99321
8.81712
8.59454
8.32923
8.0326
7.72885
7.46062
9.24998
9.20796
9.12295
8.99322
8.81714
8.59456
8.32925
8.03262
7.72887
7.46064
9.25001
9.20799
9.12298
8.99326
8.81717
8.59459
8.32928
8.03265
7.7289
7.46067
9.25005
9.20803
9.12303
8.9933
8.81721
8.59463
8.32933
8.03269
7.72895
7.46072
9.25009
9.20809
9.12308
8.99336
8.81728
8.59469
8.32939
8.03275
7.72901
7.46078
7.25849
7.22439
7.15609
7.05363
6.91815
6.75332
6.56745
6.37625
6.20557
6.09216
7.25844
7.22435
7.15604
7.05359
6.91811
6.75328
6.5674
6.37621
6.20552
6.09211
7.25841
7.22431
7.15601
7.05355
6.91808
6.75324
6.56737
6.37617
6.20549
6.09207
7.25839
7.22429
7.15599
7.05353
6.91806
6.75322
6.56735
6.37615
6.20547
6.09205
7.25838
7.22428
7.15598
7.05352
6.91805
6.75322
6.56734
6.37614
6.20546
6.09204
7.25838
7.22429
7.15598
7.05353
6.91805
6.75322
6.56735
6.37615
6.20546
6.09205
7.25839
7.2243
7.156
7.05354
6.91807
6.75324
6.56736
6.37616
6.20548
6.09206
7.25842
7.22433
7.15603
7.05357
6.9181
6.75327
6.56739
6.37619
6.20551
6.09209
7.25845
7.22436
7.15607
7.05361
6.91814
6.75331
6.56743
6.37623
6.20555
6.09214
7.25849
7.22441
7.15612
7.05366
6.91819
6.75336
6.56749
6.37629
6.20561
6.09219
5.63905
5.61238
5.55954
5.48178
5.38208
5.26642
5.14582
5.03876
4.97321
4.98546
5.63901
5.61234
5.5595
5.48174
5.38204
5.26638
5.14578
5.03871
4.97317
4.98541
5.63898
5.61231
5.55947
5.48172
5.38201
5.26635
5.14575
5.03869
4.97314
4.98538
5.63896
5.6123
5.55945
5.4817
5.38199
5.26633
5.14574
5.03867
4.97312
4.98536
5.63896
5.61229
5.55944
5.48169
5.38199
5.26633
5.14573
5.03866
4.97311
4.98535
5.63896
5.61229
5.55945
5.4817
5.38199
5.26633
5.14573
5.03866
4.97311
4.98535
5.63897
5.6123
5.55946
5.48171
5.382
5.26634
5.14575
5.03868
4.97313
4.98537
5.63899
5.61233
5.55948
5.48173
5.38203
5.26637
5.14577
5.03871
4.97316
4.9854
5.63902
5.61236
5.55952
5.48177
5.38207
5.26641
5.14581
5.03874
4.97319
4.98543
5.63906
5.6124
5.55956
5.48182
5.38211
5.26645
5.14586
5.03879
4.97324
4.98549
4.33757
4.31739
4.27787
4.22095
4.1505
4.07358
4.00243
3.95745
3.97159
4.09468
4.33753
4.31735
4.27783
4.22091
4.15046
4.07355
4.0024
3.95741
3.97156
4.09464
4.33751
4.31733
4.27781
4.22089
4.15044
4.07352
4.00237
3.95739
3.97153
4.09461
4.33749
4.31732
4.27779
4.22088
4.15043
4.07351
4.00236
3.95737
3.97151
4.0946
4.33749
4.31731
4.27779
4.22087
4.15042
4.0735
4.00235
3.95737
3.97151
4.09459
4.33749
4.31731
4.27779
4.22087
4.15042
4.07351
4.00236
3.95737
3.97151
4.09459
4.3375
4.31732
4.2778
4.22089
4.15044
4.07352
4.00237
3.95738
3.97153
4.09461
4.33752
4.31734
4.27782
4.22091
4.15046
4.07354
4.00239
3.95741
3.97155
4.09463
4.33754
4.31737
4.27785
4.22094
4.15049
4.07357
4.00242
3.95744
3.97158
4.09467
4.33757
4.31741
4.27789
4.22098
4.15053
4.07361
4.00246
3.95748
3.97163
4.09471
3.30358
3.28874
3.26002
3.21954
3.17127
3.12202
3.08318
3.07407
3.1304
3.33291
3.30355
3.28871
3.25999
3.21951
3.17124
3.12199
3.08315
3.07404
3.13037
3.33288
3.30353
3.28869
3.25997
3.21949
3.17122
3.12197
3.08313
3.07402
3.13035
3.33286
3.30352
3.28868
3.25996
3.21948
3.17121
3.12196
3.08312
3.07401
3.13033
3.33284
3.30352
3.28868
3.25995
3.21948
3.17121
3.12195
3.08311
3.074
3.13033
3.33284
3.30352
3.28868
3.25996
3.21948
3.17121
3.12196
3.08312
3.07401
3.13033
3.33284
3.30353
3.28869
3.25997
3.21949
3.17122
3.12197
3.08313
3.07402
3.13034
3.33285
3.30354
3.2887
3.25998
3.21951
3.17124
3.12198
3.08315
3.07404
3.13037
3.33288
3.30356
3.28873
3.26001
3.21954
3.17127
3.12201
3.08317
3.07407
3.13039
3.33291
3.30359
3.28876
3.26004
3.21957
3.1713
3.12205
3.08321
3.0741
3.13043
3.33295
16.1523
13.7596
12.8859
13.2457
14.7963
17.6494
22.0672
28.521
37.8562
51.7376
16.1523
13.7595
12.8858
13.2456
14.7962
17.6493
22.0671
28.5208
37.856
51.7374
16.1522
13.7594
12.8858
13.2456
14.7961
17.6492
22.067
28.5207
37.8559
51.7372
16.1522
13.7594
12.8857
13.2455
14.796
17.6491
22.0669
28.5206
37.8558
51.7371
16.1521
13.7594
12.8857
13.2455
14.796
17.6491
22.0669
28.5205
37.8557
51.737
16.1522
13.7594
12.8857
13.2455
14.796
17.6491
22.0669
28.5205
37.8557
51.737
16.1522
13.7594
12.8857
13.2455
14.796
17.6491
22.0669
28.5206
37.8558
51.7371
16.1522
13.7594
12.8858
13.2455
14.7961
17.6491
22.0669
28.5206
37.8558
51.7371
16.1523
13.7595
12.8858
13.2456
14.7961
17.6492
22.067
28.5207
37.8559
51.7373
16.1523
13.7595
12.8859
13.2457
14.7962
17.6493
22.0671
28.5208
37.8561
51.7374
14.3576
12.8191
12.2654
12.7195
14.2286
16.9098
20.9681
26.7105
34.5411
44.8209
14.3576
12.819
12.2653
12.7194
14.2284
16.9097
20.968
26.7103
34.5409
44.8207
14.3575
12.8189
12.2652
12.7193
14.2284
16.9096
20.9679
26.7102
34.5408
44.8205
14.3575
12.8189
12.2652
12.7193
14.2283
16.9095
20.9678
26.7101
34.5407
44.8204
14.3574
12.8189
12.2652
12.7193
14.2283
16.9095
20.9678
26.7101
34.5407
44.8203
14.3574
12.8189
12.2652
12.7193
14.2283
16.9095
20.9677
26.7101
34.5406
44.8203
14.3575
12.8189
12.2652
12.7193
14.2283
16.9095
20.9678
26.7101
34.5407
44.8204
14.3575
12.8189
12.2652
12.7193
14.2283
16.9095
20.9678
26.7102
34.5408
44.8205
14.3576
12.819
12.2653
12.7194
14.2284
16.9096
20.9679
26.7103
34.5409
44.8206
14.3576
12.8191
12.2653
12.7195
14.2285
16.9097
20.968
26.7104
34.541
44.8208
12.3333
11.46
11.2381
11.7905
13.2095
15.6014
19.1002
23.8541
29.9658
37.3207
12.3332
11.4599
11.238
11.7904
13.2094
15.6013
19.1001
23.8539
29.9657
37.3205
12.3332
11.4598
11.2379
11.7903
13.2093
15.6012
19.1
23.8538
29.9655
37.3204
12.3331
11.4598
11.2379
11.7903
13.2092
15.6012
19.0999
23.8537
29.9655
37.3203
12.3331
11.4598
11.2379
11.7903
13.2092
15.6011
19.0999
23.8537
29.9654
37.3202
12.3331
11.4598
11.2379
11.7903
13.2092
15.6011
19.0999
23.8537
29.9654
37.3202
12.3331
11.4598
11.2379
11.7903
13.2092
15.6012
19.0999
23.8537
29.9654
37.3203
12.3332
11.4598
11.2379
11.7903
13.2093
15.6012
19.1
23.8538
29.9655
37.3204
12.3332
11.4599
11.238
11.7904
13.2093
15.6013
19.1
23.8539
29.9656
37.3205
12.3333
11.46
11.2381
11.7905
13.2094
15.6014
19.1002
23.854
29.9658
37.3207
10.4331
9.99322
10.0154
10.6237
11.9118
13.9631
16.8532
20.6312
25.2685
30.5649
10.433
9.99314
10.0153
10.6236
11.9117
13.963
16.8531
20.631
25.2684
30.5647
10.4329
9.99309
10.0152
10.6235
11.9116
13.9629
16.853
20.6309
25.2682
30.5646
10.4329
9.99305
10.0152
10.6235
11.9116
13.9628
16.8529
20.6309
25.2682
30.5645
10.4329
9.99303
10.0152
10.6235
11.9115
13.9628
16.8529
20.6308
25.2681
30.5644
10.4329
9.99303
10.0152
10.6235
11.9115
13.9628
16.8529
20.6308
25.2681
30.5644
10.4329
9.99305
10.0152
10.6235
11.9116
13.9628
16.8529
20.6309
25.2682
30.5645
10.4329
9.99309
10.0152
10.6235
11.9116
13.9629
16.853
20.6309
25.2682
30.5646
10.433
9.99315
10.0153
10.6236
11.9117
13.9629
16.8531
20.631
25.2683
30.5647
10.4331
9.99323
10.0154
10.6237
11.9118
13.9631
16.8532
20.6312
25.2685
30.5648
8.74472
8.57871
8.75583
9.37414
10.5097
12.2204
14.5428
17.4757
20.9514
24.7966
8.74465
8.57864
8.75575
9.37406
10.5096
12.2203
14.5426
17.4756
20.9513
24.7964
8.7446
8.57859
8.7557
9.37399
10.5095
12.2203
14.5426
17.4755
20.9512
24.7963
8.74457
8.57856
8.75566
9.37395
10.5095
12.2202
14.5425
17.4754
20.9511
24.7962
8.74456
8.57854
8.75564
9.37393
10.5094
12.2202
14.5425
17.4754
20.9511
24.7962
8.74456
8.57854
8.75565
9.37393
10.5094
12.2202
14.5425
17.4754
20.9511
24.7962
8.74458
8.57856
8.75567
9.37396
10.5095
12.2202
14.5425
17.4754
20.9511
24.7963
8.74462
8.5786
8.7557
9.374
10.5095
12.2203
14.5426
17.4755
20.9512
24.7963
8.74467
8.57865
8.75576
9.37406
10.5096
12.2203
14.5426
17.4756
20.9513
24.7964
8.74474
8.57873
8.75584
9.37414
10.5097
12.2204
14.5428
17.4757
20.9514
24.7966
7.29183
7.3015
7.57009
8.16787
9.14991
10.5526
12.3879
14.6328
17.2166
20.0096
7.29177
7.30144
7.57002
8.16779
9.14982
10.5525
12.3878
14.6327
17.2164
20.0094
7.29172
7.30139
7.56997
8.16774
9.14976
10.5524
12.3877
14.6326
17.2163
20.0093
7.2917
7.30136
7.56993
8.1677
9.14972
10.5524
12.3876
14.6326
17.2163
20.0093
7.29168
7.30134
7.56992
8.16768
9.1497
10.5524
12.3876
14.6326
17.2163
20.0092
7.29169
7.30135
7.56992
8.16768
9.1497
10.5524
12.3876
14.6326
17.2163
20.0092
7.29171
7.30137
7.56994
8.16771
9.14972
10.5524
12.3876
14.6326
17.2163
20.0093
7.29174
7.3014
7.56998
8.16774
9.14977
10.5524
12.3877
14.6327
17.2164
20.0093
7.29179
7.30145
7.57003
8.1678
9.14983
10.5525
12.3878
14.6327
17.2165
20.0095
7.29185
7.30152
7.5701
8.16788
9.14992
10.5526
12.3879
14.6329
17.2166
20.0096
6.07964
6.21053
6.53448
7.09986
7.94457
9.08903
10.53
12.2347
14.1367
16.1407
6.07958
6.21047
6.53441
7.09979
7.94449
9.08894
10.5299
12.2346
14.1366
16.1405
6.07954
6.21043
6.53437
7.09974
7.94443
9.08888
10.5299
12.2345
14.1365
16.1405
6.07952
6.2104
6.53434
7.0997
7.94439
9.08884
10.5298
12.2345
14.1365
16.1404
6.07951
6.21039
6.53432
7.09969
7.94438
9.08882
10.5298
12.2344
14.1365
16.1404
6.07951
6.21039
6.53433
7.09969
7.94438
9.08882
10.5298
12.2344
14.1365
16.1404
6.07953
6.21041
6.53435
7.09971
7.9444
9.08884
10.5298
12.2345
14.1365
16.1404
6.07956
6.21044
6.53438
7.09975
7.94444
9.08889
10.5299
12.2345
14.1366
16.1405
6.0796
6.21049
6.53443
7.0998
7.9445
9.08895
10.5299
12.2346
14.1367
16.1406
6.07966
6.21055
6.5345
7.09988
7.94458
9.08904
10.53
12.2347
14.1368
16.1407
5.10772
5.33765
5.70275
6.23909
6.97451
7.91923
9.05985
10.3554
11.7378
13.1246
5.10767
5.33759
5.70269
6.23903
6.97444
7.91915
9.05976
10.3553
11.7377
13.1245
5.10764
5.33755
5.70265
6.23898
6.97439
7.91909
9.0597
10.3552
11.7377
13.1244
5.10762
5.33753
5.70262
6.23895
6.97435
7.91906
9.05966
10.3552
11.7376
13.1243
5.10761
5.33752
5.70261
6.23894
6.97434
7.91904
9.05964
10.3552
11.7376
13.1243
5.10761
5.33752
5.70261
6.23894
6.97434
7.91904
9.05965
10.3552
11.7376
13.1243
5.10763
5.33754
5.70263
6.23896
6.97436
7.91907
9.05967
10.3552
11.7376
13.1244
5.10766
5.33757
5.70266
6.23899
6.9744
7.91911
9.05972
10.3552
11.7377
13.1244
5.1077
5.33761
5.70271
6.23905
6.97446
7.91917
9.05979
10.3553
11.7378
13.1245
5.10775
5.33767
5.70277
6.23911
6.97453
7.91925
9.05988
10.3554
11.7379
13.1246
4.37897
4.71052
5.11565
5.63516
6.29628
7.10455
8.03904
9.04802
10.0467
10.926
4.37893
4.71047
5.1156
5.6351
6.29621
7.10447
8.03896
9.04793
10.0466
10.926
4.37889
4.71044
5.11556
5.63506
6.29617
7.10442
8.0389
9.04788
10.0465
10.9259
4.37888
4.71041
5.11554
5.63503
6.29614
7.10439
8.03887
9.04784
10.0465
10.9258
4.37887
4.71041
5.11553
5.63502
6.29612
7.10438
8.03885
9.04782
10.0465
10.9258
4.37887
4.71041
5.11553
5.63502
6.29613
7.10438
8.03886
9.04783
10.0465
10.9258
4.37889
4.71043
5.11555
5.63504
6.29615
7.1044
8.03888
9.04785
10.0465
10.9259
4.37891
4.71045
5.11558
5.63508
6.29618
7.10445
8.03893
9.0479
10.0466
10.9259
4.37895
4.7105
5.11562
5.63513
6.29624
7.1045
8.03899
9.04797
10.0466
10.926
4.379
4.71055
5.11568
5.63519
6.29631
7.10458
8.03908
9.04807
10.0467
10.9261
3.92551
4.36698
4.808
5.32303
5.94733
6.68606
7.51358
8.36707
9.13231
9.60905
3.92548
4.36695
4.80795
5.32298
5.94728
6.68601
7.51352
8.36701
9.13224
9.60898
3.92545
4.36692
4.80792
5.32295
5.94724
6.68596
7.51347
8.36695
9.13219
9.60892
3.92543
4.3669
4.8079
5.32292
5.94722
6.68593
7.51344
8.36692
9.13215
9.60888
3.92543
4.36689
4.80789
5.32291
5.9472
6.68592
7.51342
8.3669
9.13213
9.60887
3.92543
4.36689
4.80789
5.32292
5.94721
6.68592
7.51343
8.36691
9.13214
9.60887
3.92544
4.36691
4.80791
5.32293
5.94723
6.68595
7.51345
8.36694
9.13217
9.6089
3.92547
4.36694
4.80794
5.32297
5.94726
6.68599
7.5135
8.36698
9.13222
9.60896
3.92551
4.36698
4.80798
5.32302
5.94732
6.68605
7.51356
8.36705
9.13229
9.60903
3.92555
4.36703
4.80804
5.32308
5.94739
6.68612
7.51364
8.36714
9.13239
9.60913
73.9589
84.083
89.9551
93.8366
96.5538
98.4909
99.8615
100.797
101.38
101.66
73.9586
84.0827
89.9548
93.8362
96.5535
98.4906
99.8611
100.796
101.379
101.659
73.9584
84.0825
89.9545
93.836
96.5532
98.4903
99.8609
100.796
101.379
101.659
73.9583
84.0823
89.9544
93.8359
96.5531
98.4902
99.8608
100.796
101.379
101.659
73.9582
84.0823
89.9543
93.8358
96.553
98.4901
99.8607
100.796
101.379
101.659
73.9582
84.0823
89.9543
93.8358
96.553
98.4901
99.8607
100.796
101.379
101.659
73.9583
84.0823
89.9544
93.8359
96.5531
98.4902
99.8608
100.796
101.379
101.659
73.9584
84.0824
89.9545
93.836
96.5533
98.4904
99.861
100.796
101.379
101.659
73.9586
84.0826
89.9547
93.8362
96.5535
98.4906
99.8612
100.797
101.38
101.659
73.9587
84.0828
89.955
93.8365
96.5538
98.4909
99.8615
100.797
101.38
101.66
57.0376
65.7058
71.5882
75.6559
78.5264
80.568
82.0062
82.9837
83.591
83.8822
57.0374
65.7056
71.5879
75.6556
78.5262
80.5677
82.0059
82.9834
83.5907
83.8819
57.0372
65.7054
71.5877
75.6554
78.5259
80.5675
82.0057
82.9832
83.5906
83.8818
57.0371
65.7053
71.5876
75.6553
78.5258
80.5674
82.0055
82.9831
83.5904
83.8817
57.0371
65.7052
71.5875
75.6552
78.5258
80.5673
82.0055
82.983
83.5904
83.8816
57.0371
65.7052
71.5875
75.6552
78.5258
80.5673
82.0055
82.983
83.5904
83.8816
57.0371
65.7053
71.5876
75.6553
78.5258
80.5674
82.0056
82.9831
83.5905
83.8817
57.0372
65.7054
71.5877
75.6554
78.526
80.5676
82.0057
82.9833
83.5907
83.8819
57.0374
65.7055
71.5879
75.6556
78.5262
80.5678
82.006
82.9835
83.5909
83.8821
57.0376
65.7058
71.5881
75.6559
78.5265
80.5681
82.0063
82.9838
83.5912
83.8825
45.1918
51.7778
56.8065
60.5298
63.2561
65.2333
66.6407
67.6027
68.2023
68.4901
45.1915
51.7775
56.8063
60.5296
63.2558
65.233
66.6405
67.6025
68.202
68.4899
45.1914
51.7774
56.8061
60.5294
63.2556
65.2328
66.6403
67.6023
68.2018
68.4897
45.1913
51.7773
56.806
60.5293
63.2555
65.2327
66.6401
67.6022
68.2017
68.4896
45.1912
51.7772
56.806
60.5292
63.2554
65.2326
66.6401
67.6021
68.2017
68.4896
45.1912
51.7772
56.806
60.5292
63.2554
65.2327
66.6401
67.6022
68.2017
68.4896
45.1913
51.7773
56.806
60.5293
63.2555
65.2327
66.6402
67.6023
68.2018
68.4897
45.1914
51.7774
56.8061
60.5294
63.2557
65.2329
66.6404
67.6024
68.202
68.4899
45.1915
51.7775
56.8063
60.5296
63.2559
65.2331
66.6406
67.6026
68.2022
68.4901
45.1917
51.7778
56.8066
60.5299
63.2561
65.2334
66.6409
67.6029
68.2025
68.4904
36.031
40.9304
44.9581
48.1152
50.5206
52.312
53.6096
54.5066
55.0694
55.3407
36.0308
40.9302
44.9579
48.115
50.5204
52.3118
53.6094
54.5063
55.0692
55.3405
36.0307
40.93
44.9577
48.1148
50.5202
52.3116
53.6092
54.5062
55.0691
55.3404
36.0306
40.9299
44.9576
48.1147
50.5201
52.3115
53.6091
54.5061
55.069
55.3403
36.0306
40.9299
44.9576
48.1147
50.52
52.3115
53.609
54.506
55.0689
55.3402
36.0306
40.9299
44.9576
48.1147
50.5201
52.3115
53.6091
54.506
55.069
55.3403
36.0306
40.9299
44.9576
48.1148
50.5201
52.3115
53.6091
54.5061
55.069
55.3404
36.0307
40.93
44.9577
48.1149
50.5203
52.3117
53.6093
54.5063
55.0692
55.3405
36.0308
40.9302
44.9579
48.1151
50.5204
52.3119
53.6095
54.5065
55.0694
55.3407
36.031
40.9304
44.9581
48.1153
50.5207
52.3121
53.6098
54.5068
55.0697
55.341
28.7116
32.3371
35.4579
38.0117
40.0268
41.5681
42.7066
43.5044
44.0097
44.2544
28.7114
32.3369
35.4577
38.0115
40.0266
41.5679
42.7064
43.5042
44.0095
44.2543
28.7113
32.3368
35.4576
38.0114
40.0264
41.5677
42.7062
43.5041
44.0094
44.2542
28.7112
32.3367
35.4575
38.0113
40.0263
41.5677
42.7061
43.504
44.0093
44.2541
28.7112
32.3366
35.4574
38.0112
40.0263
41.5676
42.7061
43.504
44.0093
44.2541
28.7112
32.3367
35.4574
38.0112
40.0263
41.5676
42.7061
43.504
44.0093
44.2541
28.7112
32.3367
35.4575
38.0113
40.0264
41.5677
42.7062
43.5041
44.0094
44.2542
28.7113
32.3368
35.4576
38.0114
40.0265
41.5678
42.7063
43.5042
44.0095
44.2543
28.7115
32.3369
35.4578
38.0116
40.0267
41.568
42.7065
43.5044
44.0097
44.2545
28.7116
32.3371
35.458
38.0118
40.0269
41.5682
42.7068
43.5047
44.01
44.2548
22.8311
25.4902
27.85
29.8456
31.4678
32.7399
33.698
34.3793
34.8151
35.0274
22.8309
25.4901
27.8499
29.8454
31.4676
32.7397
33.6978
34.3791
34.8149
35.0273
22.8308
25.49
27.8497
29.8453
31.4675
32.7396
33.6977
34.379
34.8148
35.0272
22.8308
25.4899
27.8497
29.8452
31.4674
32.7395
33.6976
34.3789
34.8147
35.0271
22.8307
25.4898
27.8496
29.8451
31.4674
32.7394
33.6976
34.3789
34.8147
35.0271
22.8307
25.4899
27.8496
29.8452
31.4674
32.7395
33.6976
34.3789
34.8147
35.0271
22.8308
25.4899
27.8497
29.8452
31.4674
32.7395
33.6977
34.379
34.8148
35.0272
22.8309
25.49
27.8498
29.8453
31.4675
32.7396
33.6978
34.3791
34.8149
35.0273
22.831
25.4901
27.8499
29.8455
31.4677
32.7398
33.698
34.3793
34.8151
35.0275
22.8311
25.4903
27.8501
29.8457
31.4679
32.74
33.6982
34.3795
34.8153
35.0277
18.1404
20.0469
21.7814
23.2908
24.552
25.5646
26.3422
26.9033
27.2659
27.4437
18.1403
20.0468
21.7812
23.2907
24.5518
25.5644
26.342
26.9031
27.2658
27.4436
18.1402
20.0467
21.7811
23.2906
24.5517
25.5643
26.3419
26.903
27.2657
27.4435
18.1401
20.0466
21.7811
23.2905
24.5516
25.5643
26.3418
26.9029
27.2656
27.4434
18.1401
20.0466
21.781
23.2905
24.5516
25.5642
26.3418
26.9029
27.2656
27.4434
18.1401
20.0466
21.7811
23.2905
24.5516
25.5643
26.3418
26.9029
27.2656
27.4434
18.1402
20.0466
21.7811
23.2906
24.5517
25.5643
26.3419
26.903
27.2657
27.4435
18.1402
20.0467
21.7812
23.2906
24.5518
25.5644
26.342
26.9031
27.2658
27.4436
18.1403
20.0468
21.7813
23.2908
24.5519
25.5646
26.3421
26.9033
27.2659
27.4438
18.1405
20.047
21.7815
23.291
24.5521
25.5647
26.3423
26.9035
27.2661
27.444
14.4552
15.7486
16.968
18.067
19.0135
19.7927