/*--------------------------------*- C++ -*----------------------------------*\
  =========                 |
  \\      /  F ield         | OpenFOAM: The Open Source CFD Toolbox
   \\    /   O peration     | Website:  https://openfoam.org
    \\  /    A nd           | Version:  6
     \\/     M anipulation  |
\*---------------------------------------------------------------------------*/
FoamFile
{
    version     2.0;
    format      ascii;
    class       volScalarField;
    location    "0.05";
    object      X;
}
// * * * * * * * * * * * * * * * * * * * * * * * * * * * * * * * * * * * * * //

dimensions      [0 1 0 0 0 0 0];

internalField   nonuniform List<scalar> 
48800
(
0.0223939
0.0212209
0.0191863
0.0166207
0.0138397
0.0111257
0.0087184
0.00681037
0.00554426
0.00501215
0.0052554
0.00626506
0.00798253
0.0103005
0.0130639
0.0160722
0.0190813
0.0218091
0.0239444
0.0251635
0.0211834
0.0198368
0.0175686
0.0147604
0.0117528
0.00884152
0.00627335
0.00424453
0.00289962
0.0023314
0.00258122
0.0036396
0.00544695
0.00789438
0.0108245
0.0140324
0.0172673
0.0202344
0.0225985
0.0239868
0.0190738
0.0174933
0.0148845
0.011705
0.00833976
0.00511046
0.00227923
5.10479e-05
-0.00142479
-0.00205332
-0.00179275
-0.000653445
0.00130293
0.00396389
0.00716636
0.0106963
0.014288
0.0176216
0.0203194
0.0219359
0.0163967
0.0145724
0.0115913
0.00799127
0.00421061
0.000605208
-0.00254116
-0.00501031
-0.00664533
-0.00734747
-0.00707384
-0.00583587
-0.00369836
-0.000779258
0.00274962
0.00666071
0.010667
0.014416
0.0174789
0.0193333
0.0134692
0.0114164
0.00807507
0.00405776
-0.000143302
-0.00413496
-0.00760852
-0.0103298
-0.0121323
-0.012912
-0.0126245
-0.0112823
-0.00895412
-0.00576469
-0.00189663
0.00240614
0.00683235
0.0109936
0.0144099
0.0164874
0.0105768
0.00832362
0.00465987
0.000262353
-0.00432749
-0.00868056
-0.012463
-0.0154239
-0.0173861
-0.0182401
-0.0179391
-0.016497
-0.0139865
-0.0105399
-0.00635135
-0.00168179
0.00313296
0.00767015
0.0114028
0.0136759
0.00796383
0.00554547
0.00161227
-0.00310704
-0.00802953
-0.0126946
-0.0167456
-0.0199159
-0.0220182
-0.0229372
-0.0226243
-0.0210942
-0.0184235
-0.0147519
-0.0102844
-0.00529797
-0.000150598
0.00470484
0.0087019
0.0111363
0.00582878
0.00328429
-0.000856522
-0.00582594
-0.011009
-0.01592
-0.0201838
-0.0235206
-0.0257346
-0.0267056
-0.026383
-0.0247824
-0.0219838
-0.0181329
-0.0134442
-0.00820781
-0.00279981
0.00230303
0.00650384
0.00906134
0.00432167
0.00169223
-0.00258925
-0.00772906
-0.0130905
-0.0181707
-0.0225814
-0.0260335
-0.028325
-0.029332
-0.0290026
-0.0273529
-0.0244655
-0.0204904
-0.0156489
-0.0102405
-0.00465394
0.000617496
0.00495635
0.00759674
0.00354295
0.000870804
-0.0034816
-0.00870762
-0.0141596
-0.0193259
-0.0238115
-0.0273224
-0.0296535
-0.0306789
-0.030346
-0.0286712
-0.0257383
-0.0216998
-0.0167803
-0.0112844
-0.00560723
-0.000250502
0.00415796
0.00684003
0.00354295
0.000870802
-0.0034816
-0.00870762
-0.0141596
-0.0193259
-0.0238115
-0.0273224
-0.0296535
-0.0306789
-0.030346
-0.0286712
-0.0257383
-0.0216998
-0.0167803
-0.0112844
-0.00560724
-0.000250504
0.00415796
0.00684002
0.00432166
0.00169222
-0.00258925
-0.00772907
-0.0130905
-0.0181707
-0.0225814
-0.0260335
-0.028325
-0.029332
-0.0290026
-0.0273529
-0.0244655
-0.0204904
-0.0156489
-0.0102405
-0.00465395
0.000617489
0.00495634
0.00759674
0.00582877
0.00328428
-0.000856534
-0.00582595
-0.011009
-0.01592
-0.0201838
-0.0235206
-0.0257346
-0.0267056
-0.026383
-0.0247824
-0.0219838
-0.0181329
-0.0134442
-0.00820782
-0.00279983
0.00230302
0.00650383
0.00906133
0.00796381
0.00554546
0.00161225
-0.00310706
-0.00802955
-0.0126946
-0.0167456
-0.0199159
-0.0220182
-0.0229372
-0.0226243
-0.0210942
-0.0184235
-0.0147519
-0.0102844
-0.00529799
-0.000150614
0.00470483
0.00870188
0.0111363
0.0105767
0.0083236
0.00465985
0.000262333
-0.00432751
-0.00868059
-0.0124631
-0.0154239
-0.0173862
-0.0182401
-0.0179392
-0.0164971
-0.0139866
-0.0105399
-0.00635137
-0.00168181
0.00313294
0.00767013
0.0114028
0.0136759
0.0134691
0.0114164
0.00807505
0.00405774
-0.000143327
-0.00413498
-0.00760855
-0.0103298
-0.0121323
-0.0129121
-0.0126246
-0.0112824
-0.00895415
-0.00576472
-0.00189666
0.00240612
0.00683233
0.0109936
0.0144099
0.0164874
0.0163966
0.0145724
0.0115913
0.00799124
0.00421058
0.000605179
-0.00254119
-0.00501034
-0.00664536
-0.0073475
-0.00707387
-0.0058359
-0.00369839
-0.000779286
0.00274959
0.00666068
0.010667
0.014416
0.0174788
0.0193333
0.0190738
0.0174933
0.0148844
0.0117049
0.00833974
0.00511043
0.0022792
5.10176e-05
-0.00142482
-0.00205335
-0.00179278
-0.000653474
0.0013029
0.00396386
0.00716633
0.0106963
0.0142879
0.0176215
0.0203193
0.0219359
0.0211833
0.0198368
0.0175685
0.0147603
0.0117528
0.00884149
0.00627332
0.0042445
0.00289959
0.00233137
0.00258119
0.00363957
0.00544692
0.00789435
0.0108245
0.0140324
0.0172673
0.0202344
0.0225984
0.0239867
0.0223938
0.0212209
0.0191863
0.0166207
0.0138397
0.0111256
0.00871837
0.00681034
0.00554423
0.00501212
0.00525537
0.00626503
0.0079825
0.0103004
0.0130639
0.0160721
0.0190812
0.0218091
0.0239444
0.0251635
0.0223795
0.0212056
0.0191689
0.0165998
0.0138139
0.0110932
0.00867774
0.00675991
0.00548258
0.00493812
0.00516827
0.00616457
0.00786894
0.0101746
0.012927
0.015926
0.0189277
0.0216502
0.0237822
0.0249998
0.0211698
0.0198224
0.0175522
0.0147406
0.0117282
0.00881035
0.00623391
0.00419516
0.00283883
0.00225798
0.00249435
0.00353898
0.00533286
0.00776764
0.0106865
0.0138849
0.0171124
0.0200743
0.0224352
0.0238221
0.0190617
0.0174804
0.0148698
0.0116872
0.00831722
0.00508143
0.00224188
3.58518e-06
-0.001484
-0.00212562
-0.00187905
-0.000754109
0.00118815
0.00383591
0.00702665
0.0105469
0.014131
0.0174594
0.0201542
0.0217696
0.0163863
0.0145616
0.0115789
0.00797589
0.00419067
0.000578873
-0.00257584
-0.0050553
-0.00670244
-0.0074182
-0.00715924
-0.00593639
-0.00381375
-0.000908565
0.00260803
0.00650898
0.0105076
0.0142514
0.0173115
0.0191648
0.0134609
0.0114077
0.00806501
0.00404503
-0.000160375
-0.00415831
-0.00764024
-0.010372
-0.0121869
-0.0129809
-0.0127087
-0.0113825
-0.00906995
-0.00589519
-0.00204005
0.00225217
0.0066705
0.0108266
0.0142402
0.0163167
0.0105705
0.00831705
0.0046522
0.000252257
-0.00434171
-0.00870092
-0.0124917
-0.0154632
-0.0174382
-0.0183069
-0.018022
-0.0165966
-0.0141026
-0.0106714
-0.00649634
-0.00183778
0.00296886
0.00750085
0.0112308
0.0135031
0.00795938
0.00554088
0.00160677
-0.00311473
-0.00804114
-0.0127122
-0.0167715
-0.0199525
-0.0220678
-0.023002
-0.0227057
-0.0211929
-0.0185395
-0.014884
-0.0104307
-0.00545565
-0.000316619
0.00453355
0.00852798
0.0109616
0.00582587
0.00328134
-0.000860224
-0.00583165
-0.0110184
-0.0159353
-0.0202074
-0.0235549
-0.0257822
-0.0267686
-0.0264631
-0.0248804
-0.0220997
-0.0182655
-0.0135914
-0.00836677
-0.00296732
0.00213018
0.00632837
0.00888515
0.00431985
0.00169043
-0.00259167
-0.00773336
-0.0130984
-0.0181844
-0.0226033
-0.0260662
-0.028371
-0.0293937
-0.0290817
-0.0274504
-0.0245812
-0.0206232
-0.0157967
-0.0104003
-0.00482246
0.000443568
0.00477981
0.00741951
0.0035417
0.000869615
-0.00348336
-0.00871118
-0.0141667
-0.0193387
-0.0238325
-0.0273542
-0.0296987
-0.0307399
-0.0304246
-0.0287683
-0.0258539
-0.0218327
-0.0169284
-0.0114446
-0.00577626
-0.000424973
0.00398088
0.00666226
0.0035417
0.000869613
-0.00348336
-0.00871119
-0.0141667
-0.0193387
-0.0238325
-0.0273542
-0.0296987
-0.0307399
-0.0304246
-0.0287683
-0.0258539
-0.0218327
-0.0169284
-0.0114446
-0.00577626
-0.000424975
0.00398088
0.00666226
0.00431984
0.00169043
-0.00259168
-0.00773336
-0.0130984
-0.0181844
-0.0226033
-0.0260662
-0.0283711
-0.0293937
-0.0290817
-0.0274504
-0.0245812
-0.0206232
-0.0157967
-0.0104003
-0.00482246
0.000443561
0.0047798
0.0074195
0.00582586
0.00328132
-0.000860236
-0.00583166
-0.0110184
-0.0159353
-0.0202074
-0.023555
-0.0257822
-0.0267686
-0.0264631
-0.0248804
-0.0220997
-0.0182655
-0.0135914
-0.00836678
-0.00296733
0.00213016
0.00632836
0.00888514
0.00795937
0.00554087
0.00160676
-0.00311475
-0.00804116
-0.0127122
-0.0167715
-0.0199525
-0.0220678
-0.023002
-0.0227057
-0.021193
-0.0185396
-0.014884
-0.0104307
-0.00545566
-0.000316635
0.00453353
0.00852796
0.0109616
0.0105705
0.00831704
0.00465218
0.000252237
-0.00434174
-0.00870094
-0.0124918
-0.0154633
-0.0174383
-0.0183069
-0.018022
-0.0165966
-0.0141026
-0.0106714
-0.00649636
-0.00183781
0.00296884
0.00750083
0.0112308
0.0135031
0.0134608
0.0114077
0.00806499
0.00404501
-0.0001604
-0.00415834
-0.00764026
-0.010372
-0.012187
-0.0129809
-0.0127088
-0.0113825
-0.00906998
-0.00589522
-0.00204007
0.00225214
0.00667048
0.0108266
0.0142401
0.0163167
0.0163863
0.0145615
0.0115788
0.00797586
0.00419064
0.000578845
-0.00257587
-0.00505533
-0.00670246
-0.00741822
-0.00715926
-0.00593641
-0.00381378
-0.000908593
0.002608
0.00650895
0.0105076
0.0142514
0.0173114
0.0191648
0.0190617
0.0174804
0.0148698
0.0116871
0.00831719
0.0050814
0.00224185
3.55478e-06
-0.00148403
-0.00212565
-0.00187908
-0.000754139
0.00118812
0.00383588
0.00702662
0.0105468
0.014131
0.0174594
0.0201542
0.0217695
0.0211698
0.0198224
0.0175522
0.0147406
0.0117282
0.00881032
0.00623388
0.00419513
0.0028388
0.00225794
0.00249432
0.00353895
0.00533283
0.00776761
0.0106864
0.0138849
0.0171124
0.0200743
0.0224351
0.0238221
0.0223795
0.0212056
0.0191689
0.0165998
0.0138138
0.0110932
0.00867771
0.00675988
0.00548255
0.00493809
0.00516824
0.00616454
0.00786891
0.0101745
0.012927
0.0159259
0.0189277
0.0216502
0.0237822
0.0249998
0.0223623
0.0211874
0.0191486
0.0165762
0.0137854
0.0110585
0.00863507
0.00670785
0.00541983
0.00486364
0.00508141
0.00606512
0.0077572
0.0100513
0.0127936
0.0157839
0.0187788
0.0214965
0.0236254
0.0248416
0.0211534
0.0198051
0.0175329
0.0147181
0.011701
0.00877676
0.00619237
0.00414411
0.00277688
0.00218402
0.00240768
0.00343937
0.0052206
0.00764358
0.0105519
0.0137416
0.0169622
0.0199193
0.0222772
0.0236629
0.0190466
0.0174646
0.0148522
0.0116665
0.00829193
0.00504985
0.00220229
-4.57166e-05
-0.00154452
-0.00219858
-0.00196526
-0.00085385
0.00107519
0.00371061
0.00689045
0.0104016
0.0139788
0.0173025
0.0199945
0.0216088
0.0163729
0.0145476
0.0115633
0.00795752
0.00416785
0.000549835
-0.00261296
-0.00510233
-0.00676106
-0.00748978
-0.00724471
-0.0060361
-0.00392741
-0.00103521
0.00246997
0.00636155
0.0103531
0.0140922
0.0171496
0.019002
0.0134494
0.0113958
0.00805179
0.00402918
-0.000180488
-0.00418455
-0.00767458
-0.0104165
-0.0122434
-0.0130508
-0.0127932
-0.0114819
-0.00918414
-0.00602307
-0.00217991
0.00210255
0.00651365
0.0106651
0.0140761
0.0161518
0.0105609
0.00830724
0.00464126
0.000238918
-0.00435913
-0.00872434
-0.0125233
-0.015505
-0.0174924
-0.018375
-0.0181053
-0.0166956
-0.0142171
-0.0108003
-0.00663778
-0.00198938
0.00280982
0.00733705
0.0110646
0.0133362
0.00795162
0.00553296
0.00159792
-0.00312579
-0.00805608
-0.012733
-0.0168004
-0.0199918
-0.0221197
-0.0230683
-0.0227878
-0.0212914
-0.0186542
-0.0150137
-0.0105734
-0.0056089
-0.000477527
0.00436783
0.00835989
0.0107929
0.00581958
0.00327498
-0.000867357
-0.00584081
-0.0110313
-0.015954
-0.0202341
-0.0235922
-0.0258322
-0.0268334
-0.0265441
-0.0249783
-0.0222143
-0.0183956
-0.0137351
-0.0085213
-0.00312968
0.00196294
0.00615879
0.00871494
0.00431461
0.00168519
-0.00259758
-0.00774117
-0.0131099
-0.0182015
-0.0226285
-0.0261019
-0.0284197
-0.0294574
-0.0291619
-0.0275478
-0.0246958
-0.0207537
-0.015941
-0.0105557
-0.00498581
0.000275293
0.00460919
0.00724829
0.003537
0.000864956
-0.00348863
-0.0087183
-0.0141774
-0.019355
-0.0238568
-0.0273891
-0.0297466
-0.0308029
-0.0305043
-0.0288655
-0.0259684
-0.0219633
-0.017073
-0.0116004
-0.00594012
-0.000593777
0.00380973
0.00649052
0.003537
0.000864954
-0.00348863
-0.0087183
-0.0141774
-0.019355
-0.0238568
-0.0273892
-0.0297466
-0.0308029
-0.0305043
-0.0288655
-0.0259684
-0.0219633
-0.017073
-0.0116004
-0.00594012
-0.000593779
0.00380973
0.00649052
0.0043146
0.00168519
-0.00259758
-0.00774118
-0.0131099
-0.0182015
-0.0226285
-0.0261019
-0.0284197
-0.0294574
-0.0291619
-0.0275478
-0.0246958
-0.0207537
-0.015941
-0.0105557
-0.00498582
0.000275286
0.00460918
0.00724828
0.00581957
0.00327497
-0.000867368
-0.00584082
-0.0110313
-0.015954
-0.0202341
-0.0235922
-0.0258322
-0.0268334
-0.0265441
-0.0249783
-0.0222143
-0.0183956
-0.0137351
-0.00852131
-0.00312969
0.00196293
0.00615878
0.00871493
0.00795161
0.00553295
0.00159791
-0.0031258
-0.0080561
-0.0127331
-0.0168005
-0.0199918
-0.0221197
-0.0230683
-0.0227878
-0.0212914
-0.0186542
-0.0150137
-0.0105734
-0.00560892
-0.000477543
0.00436781
0.00835987
0.0107928
0.0105609
0.00830722
0.00464124
0.000238898
-0.00435915
-0.00872436
-0.0125233
-0.0155051
-0.0174924
-0.018375
-0.0181053
-0.0166956
-0.0142171
-0.0108003
-0.0066378
-0.0019894
0.0028098
0.00733703
0.0110646
0.0133361
0.0134494
0.0113958
0.00805177
0.00402916
-0.000180512
-0.00418457
-0.00767461
-0.0104165
-0.0122434
-0.0130508
-0.0127932
-0.011482
-0.00918417
-0.00602309
-0.00217993
0.00210253
0.00651362
0.010665
0.0140761
0.0161518
0.0163729
0.0145476
0.0115633
0.00795749
0.00416783
0.000549808
-0.00261298
-0.00510236
-0.00676109
-0.00748981
-0.00724474
-0.00603613
-0.00392744
-0.00103523
0.00246995
0.00636152
0.0103531
0.0140922
0.0171496
0.019002
0.0190465
0.0174646
0.0148522
0.0116664
0.0082919
0.00504982
0.00220226
-4.57472e-05
-0.00154455
-0.00219861
-0.00196529
-0.000853881
0.00107516
0.00371058
0.00689042
0.0104016
0.0139788
0.0173024
0.0199945
0.0216087
0.0211533
0.0198051
0.0175329
0.0147181
0.0117009
0.00877673
0.00619234
0.00414408
0.00277684
0.00218399
0.00240765
0.00343934
0.00522057
0.00764355
0.0105519
0.0137416
0.0169622
0.0199193
0.0222772
0.0236629
0.0223623
0.0211874
0.0191486
0.0165762
0.0137854
0.0110584
0.00863504
0.00670782
0.00541979
0.00486361
0.00508138
0.00606509
0.00775717
0.0100513
0.0127935
0.0157838
0.0187788
0.0214964
0.0236254
0.0248416
0.0223423
0.0211665
0.0191257
0.01655
0.0137546
0.0110215
0.00859051
0.00665431
0.0053561
0.00478878
0.00499485
0.00596671
0.00764727
0.00993068
0.0126634
0.0156456
0.0186343
0.0213475
0.0234736
0.0246886
0.0211341
0.019785
0.0175109
0.0146929
0.0116712
0.0087409
0.00614887
0.0040915
0.00271387
0.00210961
0.00232126
0.00334076
0.00511014
0.00752208
0.0104207
0.0136022
0.0168165
0.0197691
0.0221244
0.023509
0.0190286
0.0174459
0.0148318
0.0116431
0.00826403
0.00501588
0.00216059
-9.67202e-05
-0.00160624
-0.00227213
-0.00205134
-0.000952665
0.000963967
0.00358787
0.00675758
0.0102604
0.0138312
0.0171505
0.01984
0.0214533
0.0163566
0.0145307
0.0115449
0.00793628
0.00414229
0.000518241
-0.00265235
-0.00515125
-0.00682106
-0.00756211
-0.00733019
-0.006135
-0.00403938
-0.0011593
0.00233527
0.00621817
0.0102032
0.013938
0.0169931
0.0188446
0.0134349
0.0113809
0.00803554
0.00401034
-0.000203497
-0.00421351
-0.0077114
-0.010463
-0.0123014
-0.0131216
-0.0128779
-0.0115807
-0.00929673
-0.00614843
-0.0023164
0.00195704
0.00636146
0.0105086
0.0139173
0.0159924
0.0105483
0.00829428
0.00462719
0.00022246
-0.00437958
-0.00875067
-0.0125575
-0.0155492
-0.0175483
-0.0184442
-0.0181889
-0.0167941
-0.0143301
-0.0109267
-0.00677587
-0.00213685
0.00265551
0.0071784
0.0109038
0.0131747
0.00794066
0.00552182
0.00158583
-0.00314007
-0.0080742
-0.0127569
-0.0168322
-0.0200336
-0.0221736
-0.023136
-0.0228704
-0.0213895
-0.0187674
-0.0151409
-0.0107128
-0.00575801
-0.000633653
0.00420732
0.00819724
0.0106296
0.00581002
0.00326533
-0.000877808
-0.0058533
-0.0110475
-0.0159759
-0.0202639
-0.0236321
-0.0258844
-0.0268997
-0.0266258
-0.025076
-0.0223276
-0.0185235
-0.0138754
-0.00867166
-0.00328723
0.00180096
0.00599469
0.0085503
0.00430605
0.00167661
-0.00260686
-0.00775239
-0.0131247
-0.018222
-0.0226568
-0.0261405
-0.0284706
-0.0295227
-0.0292429
-0.0276451
-0.0248091
-0.0208819
-0.016082
-0.0107069
-0.00514433
0.000112295
0.00444409
0.00708267
0.00352897
0.000856926
-0.00349731
-0.00872885
-0.0141915
-0.0193747
-0.0238844
-0.027427
-0.0297969
-0.0308677
-0.0305849
-0.0289626
-0.0260817
-0.0220917
-0.0172143
-0.0117521
-0.00609913
-0.000757291
0.00364412
0.0063244
0.00352897
0.000856924
-0.00349732
-0.00872885
-0.0141915
-0.0193747
-0.0238844
-0.027427
-0.0297969
-0.0308677
-0.0305849
-0.0289626
-0.0260818
-0.0220917
-0.0172143
-0.0117521
-0.00609913
-0.000757293
0.00364412
0.00632439
0.00430605
0.0016766
-0.00260687
-0.00775239
-0.0131247
-0.018222
-0.0226568
-0.0261405
-0.0284707
-0.0295227
-0.0292429
-0.0276451
-0.0248091
-0.0208819
-0.016082
-0.0107069
-0.00514434
0.000112288
0.00444408
0.00708266
0.00581001
0.00326532
-0.000877819
-0.00585331
-0.0110475
-0.0159759
-0.0202639
-0.0236321
-0.0258844
-0.0268997
-0.0266258
-0.025076
-0.0223276
-0.0185235
-0.0138754
-0.00867167
-0.00328724
0.00180095
0.00599468
0.00855029
0.00794064
0.0055218
0.00158582
-0.00314008
-0.00807422
-0.0127569
-0.0168323
-0.0200337
-0.0221737
-0.023136
-0.0228705
-0.0213895
-0.0187674
-0.0151409
-0.0107128
-0.00575802
-0.000633668
0.0042073
0.00819723
0.0106296
0.0105483
0.00829426
0.00462717
0.000222441
-0.0043796
-0.00875069
-0.0125575
-0.0155492
-0.0175483
-0.0184442
-0.018189
-0.0167941
-0.0143301
-0.0109267
-0.00677589
-0.00213686
0.00265549
0.00717838
0.0109037
0.0131747
0.0134348
0.0113808
0.00803552
0.00401032
-0.00020352
-0.00421353
-0.00771142
-0.010463
-0.0123014
-0.0131217
-0.0128779
-0.0115808
-0.00929675
-0.00614845
-0.00231642
0.00195702
0.00636144
0.0105085
0.0139173
0.0159923
0.0163566
0.0145307
0.0115449
0.00793626
0.00414226
0.000518214
-0.00265237
-0.00515127
-0.00682108
-0.00756214
-0.00733022
-0.00613502
-0.00403941
-0.00115933
0.00233524
0.00621814
0.0102032
0.013938
0.016993
0.0188446
0.0190285
0.0174459
0.0148318
0.011643
0.008264
0.00501585
0.00216056
-9.67499e-05
-0.00160627
-0.00227215
-0.00205137
-0.000952695
0.000963937
0.00358784
0.00675755
0.0102603
0.0138311
0.0171504
0.01984
0.0214532
0.021134
0.019785
0.0175109
0.0146929
0.0116712
0.00874087
0.00614884
0.00409147
0.00271384
0.00210958
0.00232123
0.00334073
0.00511011
0.00752205
0.0104206
0.0136022
0.0168165
0.0197691
0.0221244
0.0235089
0.0223423
0.0211665
0.0191257
0.01655
0.0137546
0.0110215
0.00859048
0.00665428
0.00535607
0.00478875
0.00499482
0.00596668
0.00764724
0.00993065
0.0126633
0.0156456
0.0186343
0.0213474
0.0234736
0.0246885
0.0223196
0.0211429
0.0191002
0.0165214
0.0137214
0.0109825
0.0085442
0.00659942
0.0052915
0.00471362
0.00490863
0.00586934
0.00753909
0.00981246
0.0125363
0.0155111
0.018494
0.021203
0.0233267
0.0245405
0.0211121
0.0197622
0.0174863
0.0146653
0.0116391
0.00870291
0.00610354
0.00403745
0.00264992
0.00203485
0.00223513
0.00324316
0.00500141
0.00740304
0.0102925
0.0134665
0.016675
0.0196236
0.0219765
0.02336
0.0190078
0.0174244
0.0148087
0.011617
0.00823366
0.00497964
0.00211693
-0.000149288
-0.00166903
-0.00234615
-0.00213721
-0.00105055
0.000854448
0.00346759
0.00662786
0.0101229
0.0136878
0.0170031
0.0196904
0.0213028
0.0163374
0.0145109
0.0115237
0.00791232
0.00411412
0.000484241
-0.00269386
-0.0052019
-0.0068823
-0.00763508
-0.0074156
-0.00623305
-0.00414971
-0.00128095
0.00220375
0.00607861
0.0100577
0.0137885
0.0168414
0.0186922
0.0134174
0.011363
0.00801639
0.00398865
-0.000229253
-0.00424505
-0.00775052
-0.0105115
-0.0123608
-0.0131933
-0.0129626
-0.0116788
-0.00940775
-0.00627138
-0.0024497
0.00181539
0.00621368
0.0103568
0.0137636
0.015838
0.0105326
0.00827831
0.0046101
0.00020302
-0.00440293
-0.00877973
-0.0125942
-0.0155954
-0.0176058
-0.0185145
-0.0182729
-0.016892
-0.0144416
-0.0110508
-0.00691076
-0.00228041
0.00250565
0.00702459
0.010748
0.0130184
0.00792661
0.00550757
0.00157063
-0.00315744
-0.00809535
-0.0127837
-0.0168667
-0.0200778
-0.0222294
-0.0232049
-0.0229535
-0.0214872
-0.0188793
-0.0152659
-0.010849
-0.00590319
-0.00078529
0.00405169
0.00803971
0.0104716
0.00579731
0.00325251
-0.000891449
-0.00586897
-0.0110668
-0.0160007
-0.0202965
-0.0236745
-0.0259386
-0.0269674
-0.0267081
-0.0251733
-0.0224397
-0.018649
-0.0140126
-0.0088181
-0.00344027
0.00164389
0.00583574
0.00839089
0.00429429
0.0016648
-0.0026194
-0.00776685
-0.0131427
-0.0182455
-0.022688
-0.0261816
-0.0285237
-0.0295895
-0.0293246
-0.0277422
-0.0249212
-0.0210078
-0.0162199
-0.0108542
-0.00529832
-4.57626e-05
0.00428416
0.0069223
0.00351771
0.000845647
-0.00350927
-0.00874268
-0.0142088
-0.0193975
-0.0239149
-0.0274674
-0.0298494
-0.030934
-0.0306663
-0.0290595
-0.0261939
-0.0222178
-0.0173525
-0.0118998
-0.00625361
-0.000915855
0.00348369
0.00616354
0.0035177
0.000845644
-0.00350927
-0.00874268
-0.0142088
-0.0193975
-0.0239149
-0.0274674
-0.0298494
-0.030934
-0.0306663
-0.0290595
-0.0261939
-0.0222178
-0.0173525
-0.0118998
-0.00625361
-0.000915858
0.00348368
0.00616354
0.00429429
0.0016648
-0.0026194
-0.00776685
-0.0131427
-0.0182455
-0.022688
-0.0261816
-0.0285237
-0.0295895
-0.0293246
-0.0277422
-0.0249212
-0.0210078
-0.0162199
-0.0108542
-0.00529833
-4.57696e-05
0.00428415
0.0069223
0.0057973
0.0032525
-0.00089146
-0.00586898
-0.0110668
-0.0160008
-0.0202965
-0.0236745
-0.0259386
-0.0269674
-0.0267081
-0.0251734
-0.0224397
-0.018649
-0.0140126
-0.00881812
-0.00344028
0.00164388
0.00583573
0.00839088
0.00792659
0.00550755
0.00157062
-0.00315746
-0.00809537
-0.0127837
-0.0168667
-0.0200778
-0.0222294
-0.0232049
-0.0229535
-0.0214872
-0.0188793
-0.0152659
-0.010849
-0.00590321
-0.000785306
0.00405168
0.00803969
0.0104716
0.0105326
0.00827829
0.00461008
0.000203001
-0.00440295
-0.00877975
-0.0125942
-0.0155954
-0.0176059
-0.0185145
-0.0182729
-0.016892
-0.0144416
-0.0110508
-0.00691079
-0.00228043
0.00250563
0.00702457
0.010748
0.0130184
0.0134174
0.011363
0.00801636
0.00398862
-0.000229277
-0.00424507
-0.00775055
-0.0105115
-0.0123608
-0.0131933
-0.0129626
-0.0116788
-0.00940778
-0.00627141
-0.00244972
0.00181537
0.00621366
0.0103568
0.0137636
0.0158379
0.0163374
0.0145109
0.0115237
0.00791229
0.00411409
0.000484214
-0.00269389
-0.00520192
-0.00688233
-0.00763511
-0.00741563
-0.00623308
-0.00414974
-0.00128098
0.00220372
0.00607858
0.0100577
0.0137885
0.0168414
0.0186922
0.0190078
0.0174244
0.0148086
0.011617
0.00823364
0.00497962
0.0021169
-0.000149318
-0.00166906
-0.00234618
-0.00213724
-0.00105058
0.000854418
0.00346756
0.00662783
0.0101229
0.0136878
0.0170031
0.0196903
0.0213027
0.0211121
0.0197622
0.0174862
0.0146652
0.0116391
0.00870288
0.00610351
0.00403742
0.00264989
0.00203482
0.0022351
0.00324313
0.00500138
0.00740301
0.0102925
0.0134665
0.016675
0.0196236
0.0219764
0.0233599
0.0223196
0.0211429
0.0191001
0.0165213
0.0137214
0.0109824
0.00854417
0.00659939
0.00529147
0.00471359
0.0049086
0.00586931
0.00753906
0.00981243
0.0125363
0.0155111
0.018494
0.021203
0.0233266
0.0245404
0.0222944
0.0211169
0.0190722
0.0164904
0.0136861
0.0109415
0.00849628
0.0065433
0.00522615
0.00463826
0.00482281
0.00577302
0.00743264
0.00969665
0.0124122
0.0153802
0.0183577
0.021063
0.0231844
0.0243972
0.0210875
0.0197369
0.0174592
0.0146352
0.0116048
0.00866292
0.00605651
0.00398211
0.00258514
0.0019598
0.00214934
0.00314656
0.00489438
0.0072864
0.0101675
0.0133345
0.0165376
0.0194825
0.0218332
0.0232158
0.0189844
0.0174004
0.014783
0.0115885
0.00820097
0.0049413
0.00207146
-0.000203287
-0.00173277
-0.00242056
-0.00222284
-0.00114748
0.000746593
0.00334968
0.00650119
0.00998904
0.0135485
0.0168602
0.0195454
0.0211571
0.0163155
0.0144885
0.0114998
0.00788577
0.00408349
0.000447982
-0.00273735
-0.00525414
-0.00694465
-0.00770859
-0.00750089
-0.00633026
-0.00425843
-0.00140025
0.00207527
0.00594271
0.00991628
0.0136435
0.0166945
0.0185447
0.0133972
0.0113424
0.00799446
0.00396424
-0.000257609
-0.004279
-0.00779179
-0.0105618
-0.0124215
-0.0132657
-0.0130474
-0.0117761
-0.00951724
-0.00639201
-0.00257995
0.00167742
0.00607008
0.0102097
0.0136146
0.0156885
0.0105141
0.00825945
0.00459014
0.00018075
-0.00442902
-0.00881137
-0.0126332
-0.0156436
-0.0176649
-0.0185857
-0.018357
-0.0169893
-0.0145517
-0.0111725
-0.00704261
-0.00242028
0.00236002
0.00687536
0.010597
0.012867
0.0079096
0.00549035
0.00155246
-0.00317777
-0.00811937
-0.0128132
-0.0169036
-0.0201241
-0.0222868
-0.0232748
-0.0230369
-0.0215843
-0.0189898
-0.0153886
-0.0109822
-0.00604468
-0.000932688
0.00390068
0.00788701
0.0103185
0.00578157
0.00323665
-0.000908143
-0.00588768
-0.0110891
-0.0160285
-0.0203317
-0.0237192
-0.0259946
-0.0270363
-0.0267909
-0.0252703
-0.0225504
-0.0187724
-0.0141468
-0.00896084
-0.00358904
0.00149147
0.00568165
0.00823643
0.00427947
0.00164991
-0.00263504
-0.00778441
-0.0131637
-0.018272
-0.022722
-0.0262251
-0.0285787
-0.0296575
-0.0294068
-0.027839
-0.0250321
-0.0211317
-0.0163547
-0.0109978
-0.00544805
-0.000199166
0.0041291
0.0067669
0.00350335
0.00083125
-0.00352436
-0.00875965
-0.0142292
-0.0194233
-0.0239482
-0.0275103
-0.0299039
-0.0310017
-0.0307483
-0.0291562
-0.0263048
-0.0223418
-0.0174877
-0.0120438
-0.00640381
-0.00106975
0.00332813
0.00600765
0.00350335
0.000831247
-0.00352437
-0.00875965
-0.0142292
-0.0194233
-0.0239482
-0.0275103
-0.0299039
-0.0310017
-0.0307483
-0.0291562
-0.0263048
-0.0223419
-0.0174877
-0.0120438
-0.00640381
-0.00106976
0.00332813
0.00600765
0.00427946
0.0016499
-0.00263505
-0.00778442
-0.0131638
-0.018272
-0.022722
-0.0262251
-0.0285787
-0.0296576
-0.0294069
-0.027839
-0.0250321
-0.0211317
-0.0163547
-0.0109978
-0.00544805
-0.000199173
0.00412909
0.00676689
0.00578156
0.00323664
-0.000908156
-0.00588769
-0.0110891
-0.0160285
-0.0203317
-0.0237192
-0.0259947
-0.0270363
-0.0267909
-0.0252703
-0.0225504
-0.0187724
-0.0141469
-0.00896085
-0.00358905
0.00149146
0.00568164
0.00823642
0.00790958
0.00549034
0.00155244
-0.00317778
-0.00811939
-0.0128132
-0.0169037
-0.0201241
-0.0222868
-0.0232749
-0.0230369
-0.0215843
-0.0189898
-0.0153886
-0.0109822
-0.00604469
-0.000932703
0.00390066
0.00788699
0.0103185
0.010514
0.00825944
0.00459012
0.000180729
-0.00442905
-0.0088114
-0.0126332
-0.0156437
-0.0176649
-0.0185857
-0.018357
-0.0169894
-0.0145517
-0.0111726
-0.00704264
-0.0024203
0.00236
0.00687534
0.010597
0.0128669
0.0133972
0.0113423
0.00799444
0.00396422
-0.000257633
-0.00427903
-0.00779182
-0.0105618
-0.0124216
-0.0132657
-0.0130474
-0.0117762
-0.00951727
-0.00639204
-0.00257997
0.00167739
0.00607006
0.0102096
0.0136146
0.0156884
0.0163155
0.0144885
0.0114998
0.00788574
0.00408347
0.000447954
-0.00273738
-0.00525417
-0.00694468
-0.00770862
-0.00750092
-0.00633029
-0.00425846
-0.00140028
0.00207525
0.00594268
0.00991626
0.0136435
0.0166945
0.0185447
0.0189844
0.0174004
0.014783
0.0115885
0.00820094
0.00494127
0.00207143
-0.000203318
-0.0017328
-0.00242059
-0.00222287
-0.00114751
0.000746563
0.00334965
0.00650116
0.00998902
0.0135485
0.0168602
0.0195454
0.021157
0.0210875
0.0197368
0.0174591
0.0146352
0.0116047
0.00866289
0.00605648
0.00398208
0.00258511
0.00195977
0.00214931
0.00314653
0.00489435
0.00728636
0.0101674
0.0133344
0.0165376
0.0194824
0.0218332
0.0232158
0.0222944
0.0211168
0.0190722
0.0164903
0.0136861
0.0109415
0.00849625
0.00654327
0.00522611
0.00463822
0.00482278
0.00577299
0.00743261
0.00969662
0.0124122
0.0153802
0.0183577
0.021063
0.0231843
0.0243971
0.0222669
0.0210885
0.019042
0.0164572
0.0136488
0.0108988
0.00844688
0.00648608
0.00516015
0.00456277
0.00473745
0.00567779
0.00732792
0.00958321
0.0122911
0.0152528
0.0182255
0.0209274
0.0230467
0.0242586
0.0210606
0.0197092
0.0174297
0.0146029
0.0115684
0.00862109
0.00600794
0.00392559
0.00251965
0.00188458
0.00206396
0.00305102
0.00478907
0.00717211
0.0100453
0.0132059
0.0164042
0.0193457
0.0216945
0.0230764
0.0189586
0.0173739
0.0147549
0.0115577
0.00816611
0.004901
0.00202432
-0.000258581
-0.00179735
-0.00249527
-0.00230816
-0.00124345
0.000640392
0.0032341
0.00637748
0.00985873
0.0134133
0.0167217
0.0194051
0.0210161
0.0162911
0.0144635
0.0114734
0.00785679
0.00405057
0.000409625
-0.00278265
-0.00530784
-0.007008
-0.00778253
-0.00758599
-0.00642659
-0.00436557
-0.00151726
0.00194974
0.00581033
0.00977888
0.0135029
0.0165522
0.0184019
0.0133744
0.0113191
0.00796993
0.00393728
-0.000288406
-0.00431521
-0.00783506
-0.0106136
-0.0124834
-0.0133387
-0.0131321
-0.0118727
-0.00962521
-0.0065104
-0.00270728
0.00154297
0.0059305
0.0100669
0.0134703
0.0155437
0.0104928
0.00823787
0.00456745
0.000155802
-0.0044577
-0.00884542
-0.0126744
-0.0156937
-0.0177252
-0.0186576
-0.0184412
-0.017086
-0.0146603
-0.0112921
-0.00717157
-0.00255662
0.0022184
0.00673052
0.0104507
0.0127203
0.00788978
0.00547032
0.00153147
-0.00320088
-0.00814609
-0.0128453
-0.0169429
-0.0201724
-0.0223457
-0.0233457
-0.0231206
-0.0216809
-0.0190989
-0.0155091
-0.0111125
-0.00618263
-0.00107605
0.00375407
0.00773893
0.0101701
0.00576296
0.00321789
-0.000927739
-0.00590927
-0.0111142
-0.0160589
-0.0203693
-0.0237659
-0.0260523
-0.0271062
-0.0268739
-0.0253668
-0.0226599
-0.0188937
-0.0142782
-0.00910005
-0.00373378
0.00134345
0.00553219
0.0080867
0.00426172
0.00163206
-0.00265364
-0.00780492
-0.0131877
-0.0183012
-0.0227585
-0.0262708
-0.0286355
-0.0297268
-0.0294895
-0.0279354
-0.0251418
-0.0212534
-0.0164868
-0.0111378
-0.00559372
-0.000348155
0.00397868
0.00661623
0.00348605
0.000813883
-0.00354245
-0.0087796
-0.0142526
-0.019452
-0.0239841
-0.0275554
-0.0299601
-0.0310705
-0.0308307
-0.0292525
-0.0264146
-0.0224638
-0.0176201
-0.0121843
-0.00654996
-0.00121924
0.00317722
0.0058565
0.00348605
0.00081388
-0.00354245
-0.0087796
-0.0142526
-0.019452
-0.0239841
-0.0275554
-0.0299601
-0.0310705
-0.0308307
-0.0292525
-0.0264146
-0.0224638
-0.0176201
-0.0121843
-0.00654996
-0.00121924
0.00317722
0.0058565
0.00426171
0.00163206
-0.00265365
-0.00780493
-0.0131877
-0.0183012
-0.0227585
-0.0262708
-0.0286355
-0.0297268
-0.0294895
-0.0279354
-0.0251418
-0.0212534
-0.0164868
-0.0111378
-0.00559373
-0.000348162
0.00397867
0.00661622
0.00576295
0.00321788
-0.000927751
-0.00590928
-0.0111142
-0.0160589
-0.0203693
-0.023766
-0.0260523
-0.0271062
-0.026874
-0.0253668
-0.0226599
-0.0188937
-0.0142782
-0.00910006
-0.00373379
0.00134344
0.00553218
0.00808669
0.00788977
0.0054703
0.00153145
-0.00320089
-0.00814611
-0.0128453
-0.0169429
-0.0201724
-0.0223457
-0.0233457
-0.0231206
-0.021681
-0.0190989
-0.0155091
-0.0111125
-0.00618265
-0.00107607
0.00375405
0.00773892
0.0101701
0.0104928
0.00823785
0.00456743
0.000155781
-0.00445772
-0.00884545