/*--------------------------------*- C++ -*----------------------------------*\
  =========                 |
  \\      /  F ield         | OpenFOAM: The Open Source CFD Toolbox
   \\    /   O peration     | Website:  https://openfoam.org
    \\  /    A nd           | Version:  6
     \\/     M anipulation  |
\*---------------------------------------------------------------------------*/
FoamFile
{
    version     2.0;
    format      ascii;
    class       volScalarField;
    location    "0.07";
    object      X;
}
// * * * * * * * * * * * * * * * * * * * * * * * * * * * * * * * * * * * * * //

dimensions      [0 1 0 0 0 0 0];

internalField   nonuniform List<scalar> 
70400
(
0.0160812
0.0147927
0.0125268
0.00961903
0.00640097
0.00318594
0.000261356
-0.00211702
-0.0037308
-0.00440521
-0.00401605
-0.00249733
0.000150471
0.00385161
0.00844606
0.0136798
0.0191933
0.0245022
0.02896
0.0317131
0.0148876
0.0134254
0.0109217
0.00775978
0.00429381
0.000849693
-0.00227638
-0.00482125
-0.00655946
-0.00730936
-0.0069402
-0.00538034
-0.0026264
0.0012465
0.00607359
0.0115883
0.017408
0.0230141
0.0277171
0.0306306
0.0128096
0.0111127
0.00826128
0.00470866
0.000849347
-0.00296541
-0.00642129
-0.0092402
-0.0111833
-0.0120564
-0.0117177
-0.0100861
-0.00715247
-0.00299178
0.00222167
0.00819766
0.0145116
0.0205832
0.025649
0.0287645
0.0101748
0.00823327
0.00500065
0.0010035
-0.00331512
-0.0075704
-0.0114228
-0.0145733
-0.0167651
-0.0177877
-0.0174853
-0.0157657
-0.0126129
-0.00810292
-0.00242279
0.00410652
0.0110065
0.0176195
0.0230934
0.0264178
0.00729602
0.00512491
0.0015225
-0.00291763
-0.00770349
-0.0124137
-0.0166797
-0.0201787
-0.0226328
-0.0238141
-0.0235514
-0.0217411
-0.0183606
-0.0134873
-0.00732233
-0.000219929
0.00728363
0.0144486
0.0203308
0.0238545
0.00445382
0.00208135
-0.00185279
-0.00669821
-0.0119184
-0.0170566
-0.0217153
-0.0255471
-0.0282532
-0.0295881
-0.0293662
-0.027473
-0.02388
-0.0186659
-0.0120455
-0.00440464
0.00366533
0.0113464
0.0176075
0.0213122
0.00188788
-0.00065061
-0.00486255
-0.0100522
-0.0156458
-0.0211555
-0.0261574
-0.0302816
-0.0332104
-0.0346823
-0.0344993
-0.0325373
-0.0287627
-0.0232557
-0.0162425
-0.00813613
0.000424303
0.00855249
0.0151417
0.0190016
-0.000207672
-0.00287291
-0.00729922
-0.0127572
-0.0186445
-0.0244483
-0.0297235
-0.0340815
-0.0371892
-0.0387723
-0.0386226
-0.0366088
-0.0326933
-0.026957
-0.0196351
-0.0111617
-0.00221351
0.00626897
0.0131186
0.0171017
-0.00168632
-0.00443692
-0.00900864
-0.0146499
-0.0207388
-0.0267457
-0.0322102
-0.0367308
-0.0399633
-0.0416245
-0.0414992
-0.0394512
-0.0354401
-0.0295473
-0.0220138
-0.013288
-0.00407256
0.00465481
0.0116849
0.0157534
-0.00245015
-0.00524365
-0.00988874
-0.0156228
-0.0218143
-0.0279247
-0.0334859
-0.0380898
-0.0413863
-0.0430878
-0.0429754
-0.0409105
-0.0368512
-0.0308792
-0.0232384
-0.0143843
-0.00503263
0.00381972
0.0109421
0.0150543
-0.00245015
-0.00524365
-0.00988874
-0.0156228
-0.0218143
-0.0279247
-0.0334859
-0.0380898
-0.0413863
-0.0430878
-0.0429754
-0.0409105
-0.0368512
-0.0308792
-0.0232384
-0.0143843
-0.00503263
0.00381972
0.0109421
0.0150543
-0.00168632
-0.00443692
-0.00900864
-0.0146499
-0.0207388
-0.0267457
-0.0322102
-0.0367308
-0.0399633
-0.0416245
-0.0414992
-0.0394512
-0.0354401
-0.0295473
-0.0220138
-0.013288
-0.00407256
0.00465481
0.0116849
0.0157534
-0.00020767
-0.00287291
-0.00729922
-0.0127572
-0.0186445
-0.0244483
-0.0297235
-0.0340815
-0.0371892
-0.0387723
-0.0386226
-0.0366088
-0.0326932
-0.026957
-0.0196351
-0.0111617
-0.00221351
0.00626897
0.0131186
0.0171017
0.00188788
-0.000650608
-0.00486255
-0.0100522
-0.0156458
-0.0211555
-0.0261574
-0.0302816
-0.0332104
-0.0346823
-0.0344992
-0.0325373
-0.0287627
-0.0232557
-0.0162425
-0.00813613
0.000424302
0.00855248
0.0151416
0.0190016
0.00445382
0.00208136
-0.00185279
-0.0066982
-0.0119184
-0.0170566
-0.0217153
-0.0255471
-0.0282532
-0.0295881
-0.0293662
-0.027473
-0.02388
-0.0186659
-0.0120455
-0.00440464
0.00366533
0.0113464
0.0176075
0.0213122
0.00729602
0.00512491
0.0015225
-0.00291762
-0.00770349
-0.0124137
-0.0166797
-0.0201787
-0.0226328
-0.0238141
-0.0235514
-0.0217411
-0.0183606
-0.0134873
-0.00732233
-0.000219928
0.00728363
0.0144486
0.0203307
0.0238545
0.0101748
0.00823327
0.00500065
0.0010035
-0.00331511
-0.0075704
-0.0114228
-0.0145733
-0.0167651
-0.0177877
-0.0174853
-0.0157657
-0.0126129
-0.00810292
-0.00242279
0.00410652
0.0110065
0.0176195
0.0230934
0.0264178
0.0128096
0.0111127
0.00826128
0.00470866
0.00084935
-0.00296541
-0.00642129
-0.00924019
-0.0111833
-0.0120564
-0.0117177
-0.0100861
-0.00715246
-0.00299178
0.00222167
0.00819766
0.0145116
0.0205832
0.025649
0.0287645
0.0148876
0.0134254
0.0109217
0.00775978
0.00429381
0.000849696
-0.00227638
-0.00482124
-0.00655946
-0.00730936
-0.0069402
-0.00538033
-0.0026264
0.0012465
0.00607359
0.0115883
0.017408
0.0230141
0.0277171
0.0306306
0.0160812
0.0147928
0.0125268
0.00961903
0.00640098
0.00318594
0.00026136
-0.00211701
-0.00373079
-0.00440521
-0.00401605
-0.00249732
0.000150475
0.00385162
0.00844607
0.0136798
0.0191933
0.0245022
0.02896
0.0317131
0.0151702
0.0138823
0.0116211
0.00872407
0.00552138
0.00232216
-0.000592684
-0.00297564
-0.00461759
-0.00535336
-0.00506806
-0.00370386
-0.00126691
0.00216617
0.00644326
0.0113342
0.0165318
0.0216522
0.026207
0.0294844
0.0139665
0.0125034
0.0100039
0.00685387
0.00340611
-1.80516e-05
-0.00312968
-0.00567465
-0.00743764
-0.00824756
-0.0079841
-0.0065852
-0.00405494
-0.000471525
0.00400585
0.00913281
0.0145802
0.0199375
0.0246914
0.0281606
0.0118721
0.010173
0.00732558
0.00378689
-4.98034e-05
-0.00383854
-0.00727322
-0.0100859
-0.012049
-0.0129802
-0.0127495
-0.0112872
-0.00859409
-0.0047512
6.95675e-05
0.00559815
0.0114651
0.0172085
0.0222636
0.0259376
0.00921764
0.0072729
0.00404467
6.42836e-05
-0.0042265
-0.00844894
-0.0122727
-0.0154103
-0.0176169
-0.0186953
-0.0185026
-0.0169597
-0.0140629
-0.00989744
-0.00465144
0.00137185
0.00775059
0.0139555
0.0193556
0.0232236
0.00631811
0.00414315
0.000546014
-0.00387406
-0.0086266
-0.0132971
-0.0175274
-0.0210068
-0.0234709
-0.0247053
-0.0245529
-0.0229245
-0.0198118
-0.0153045
-0.00960837
-0.00306266
0.00385361
0.0105376
0.0162868
0.0203288
0.00345592
0.00107915
-0.00284857
-0.00767052
-0.0128521
-0.0179442
-0.0225606
-0.026367
-0.0290787
-0.0304641
-0.0303522
-0.0286438
-0.0253265
-0.0204939
-0.014369
-0.00732555
0.000102066
0.0072395
0.013315
0.0175077
0.000872135
-0.00167095
-0.00587528
-0.0110383
-0.0165885
-0.0220465
-0.0270005
-0.0310945
-0.0340252
-0.0355452
-0.0354712
-0.0336953
-0.0302012
-0.0250862
-0.0185877
-0.0111097
-0.00323521
0.00429829
0.0106577
0.0149758
-0.0012379
-0.00390795
-0.0083256
-0.0137544
-0.0195943
-0.0253419
-0.0305649
-0.0348891
-0.0379957
-0.039625
-0.0395833
-0.0377559
-0.0341234
-0.0287856
-0.0219915
-0.0141687
-0.00593866
0.00191043
0.00849616
0.0129118
-0.00272676
-0.0054823
-0.0100446
-0.0156547
-0.0216936
-0.0276412
-0.0330505
-0.0375347
-0.0407643
-0.0424702
-0.0424522
-0.0405905
-0.0368635
-0.031373
-0.0243753
-0.0163144
-0.00783837
0.00022963
0.00697266
0.0114553
-0.00349586
-0.00629437
-0.0109296
-0.0166316
-0.0227716
-0.0288211
-0.0343257
-0.0388918
-0.0421844
-0.04393
-0.0439245
-0.0420457
-0.038271
-0.0327029
-0.0256017
-0.0174196
-0.00881787
-0.000637922
0.00618569
0.0107024
-0.00349586
-0.00629437
-0.0109296
-0.0166316
-0.0227716
-0.0288211
-0.0343257
-0.0388918
-0.0421844
-0.04393
-0.0439245
-0.0420457
-0.038271
-0.0327029
-0.0256017
-0.0174196
-0.00881787
-0.000637922
0.00618569
0.0107024
-0.00272676
-0.0054823
-0.0100446
-0.0156547
-0.0216936
-0.0276412
-0.0330505
-0.0375347
-0.0407643
-0.0424702
-0.0424522
-0.0405905
-0.0368635
-0.031373
-0.0243753
-0.0163144
-0.00783837
0.000229629
0.00697266
0.0114553
-0.0012379
-0.00390795
-0.0083256
-0.0137544
-0.0195943
-0.0253419
-0.0305649
-0.0348891
-0.0379957
-0.039625
-0.0395833
-0.0377559
-0.0341234
-0.0287856
-0.0219915
-0.0141687
-0.00593866
0.00191043
0.00849616
0.0129118
0.000872137
-0.00167095
-0.00587528
-0.0110383
-0.0165885
-0.0220465
-0.0270005
-0.0310945
-0.0340252
-0.0355452
-0.0354712
-0.0336953
-0.0302012
-0.0250862
-0.0185877
-0.0111097
-0.00323521
0.00429829
0.0106577
0.0149758
0.00345592
0.00107916
-0.00284857
-0.00767052
-0.0128521
-0.0179442
-0.0225606
-0.026367
-0.0290787
-0.0304641
-0.0303522
-0.0286438
-0.0253265
-0.0204939
-0.014369
-0.00732554
0.000102066
0.0072395
0.013315
0.0175077
0.00631811
0.00414316
0.000546016
-0.00387405
-0.0086266
-0.0132971
-0.0175274
-0.0210068
-0.0234709
-0.0247053
-0.0245529
-0.0229245
-0.0198118
-0.0153045
-0.00960837
-0.00306266
0.00385361
0.0105376
0.0162868
0.0203288
0.00921764
0.0072729
0.00404467
6.42862e-05
-0.0042265
-0.00844894
-0.0122727
-0.0154103
-0.0176169
-0.0186953
-0.0185026
-0.0169596
-0.0140629
-0.00989743
-0.00465144
0.00137186
0.00775059
0.0139555
0.0193556
0.0232236
0.0118721
0.010173
0.00732558
0.00378689
-4.98005e-05
-0.00383854
-0.00727321
-0.0100859
-0.012049
-0.0129802
-0.0127495
-0.0112872
-0.00859408
-0.0047512
6.95698e-05
0.00559815
0.0114651
0.0172085
0.0222636
0.0259376
0.0139665
0.0125034
0.0100039
0.00685388
0.00340612
-1.80484e-05
-0.00312968
-0.00567465
-0.00743763
-0.00824755
-0.0079841
-0.00658519
-0.00405493
-0.000471522
0.00400585
0.00913281
0.0145802
0.0199375
0.0246914
0.0281606
0.0151702
0.0138823
0.0116211
0.00872408
0.00552138
0.00232217
-0.00059268
-0.00297564
-0.00461758
-0.00535335
-0.00506806
-0.00370386
-0.00126691
0.00216617
0.00644326
0.0113342
0.0165318
0.0216521
0.026207
0.0294844
0.0143665
0.0130787
0.0108208
0.00793125
0.0047385
0.00154692
-0.00136966
-0.00377247
-0.00546197
-0.00628256
-0.00612784
-0.00494612
-0.00274536
0.000403417
0.00436602
0.00895082
0.0139244
0.0190457
0.024146
0.0294332
0.0131542
0.0116901
0.00919363
0.00605253
0.00261785
-0.000794299
-0.00390282
-0.00646325
-0.00827087
-0.00916529
-0.00903604
-0.00782877
-0.00555125
-0.00227818
0.00184723
0.00661775
0.0117782
0.0170621
0.022279
0.0276707
0.0110459
0.00934469
0.00650051
0.00297331
-0.000845436
-0.00461568
-0.00804026
-0.0108622
-0.012866
-0.0138817
-0.0137908
-0.0125336
-0.0101171
-0.0066217
-0.00220579
0.00289684
0.00839313
0.0139729
0.0194082
0.0249531
0.00837458
0.00642706
0.00320285
-0.000762701
-0.00502979
-0.00922641
-0.0130325
-0.0161727
-0.018416
-0.0195788
-0.0195318
-0.018208
-0.0156126
-0.0118331
-0.00704666
-0.00152078
0.00440284
0.0103572
0.0160652
0.0217672
0.00545722
0.00327904
-0.00031283
-0.0047143
-0.00943712
-0.0140744
-0.0182793
-0.0217551
-0.024252
-0.0255708
-0.0255694
-0.0241724
-0.0213831
-0.017296
-0.0121085
-0.00612489
0.000260014
0.00661645
0.012613
0.0184622
0.00257771
0.000197443
-0.00372356
-0.0085231
-0.0136691
-0.018721
-0.0233052
-0.0271022
-0.0298433
-0.0313128
-0.0313559
-0.0298888
-0.0269123
-0.0225279
-0.0169523
-0.0105251
-0.00369327
0.00305188
0.00932557
0.0153061
-2.1623e-05
-0.00256839
-0.00676459
-0.0119017
-0.0174111
-0.0228228
-0.0277387
-0.0318185
-0.0347756
-0.0363794
-0.0364633
-0.0349359
-0.0317958
-0.02715
-0.0212323
-0.0144133
-0.00718596
-9.64626e-05
0.00642265
0.0125155
-0.00214436
-0.00481822
-0.00922653
-0.0146265
-0.0204214
-0.0261179
-0.031298
-0.0356043
-0.0387351
-0.0404477
-0.0405659
-0.0389918
-0.0357224
-0.0308689
-0.0246784
-0.0175459
-0.0100013
-0.00263483
0.00408236
0.0102645
-0.0036422
-0.00640164
-0.0109537
-0.016533
-0.0225238
-0.0284169
-0.0337802
-0.0382439
-0.0414961
-0.0432851
-0.0434281
-0.0418227
-0.0384646
-0.0334678
-0.0270884
-0.0197385
-0.0119731
-0.00441337
0.00244263
0.00868712
-0.00441595
-0.00721841
-0.011843
-0.017513
-0.0236035
-0.0295967
-0.0350536
-0.039598
-0.0429124
-0.0447409
-0.0448969
-0.0432759
-0.0398728
-0.0348031
-0.0283274
-0.0208663
-0.0129879
-0.00532899
0.00159846
0.00787506
-0.00441595
-0.00721841
-0.011843
-0.017513
-0.0236035
-0.0295967
-0.0350536
-0.039598
-0.0429124
-0.0447409
-0.0448969
-0.0432759
-0.0398728
-0.0348031
-0.0283274
-0.0208663
-0.0129879
-0.00532899
0.00159846
0.00787506
-0.0036422
-0.00640164
-0.0109537
-0.016533
-0.0225238
-0.0284169
-0.0337802
-0.0382439
-0.0414961
-0.0432851
-0.0434281
-0.0418227
-0.0384645
-0.0334678
-0.0270884
-0.0197385
-0.0119731
-0.00441337
0.00244263
0.00868712
-0.00214436
-0.00481822
-0.00922653
-0.0146265
-0.0204214
-0.0261179
-0.031298
-0.0356043
-0.0387351
-0.0404477
-0.0405659
-0.0389918
-0.0357224
-0.0308689
-0.0246784
-0.0175459
-0.0100013
-0.00263483
0.00408236
0.0102645
-2.16216e-05
-0.00256839
-0.00676458
-0.0119017
-0.0174111
-0.0228228
-0.0277387
-0.0318185
-0.0347756
-0.0363794
-0.0364633
-0.0349359
-0.0317958
-0.02715
-0.0212323
-0.0144133
-0.00718596
-9.64628e-05
0.00642265
0.0125155
0.00257771
0.000197445
-0.00372356
-0.0085231
-0.0136691
-0.018721
-0.0233052
-0.0271022
-0.0298433
-0.0313128
-0.0313559
-0.0298888
-0.0269123
-0.0225279
-0.0169523
-0.0105251
-0.00369327
0.00305188
0.00932557
0.0153061
0.00545722
0.00327904
-0.000312828
-0.0047143
-0.00943711
-0.0140744
-0.0182793
-0.0217551
-0.024252
-0.0255708
-0.0255694
-0.0241724
-0.0213831
-0.017296
-0.0121085
-0.00612489
0.000260015
0.00661645
0.012613
0.0184622
0.00837458
0.00642706
0.00320285
-0.000762699
-0.00502979
-0.00922641
-0.0130325
-0.0161727
-0.018416
-0.0195788
-0.0195318
-0.018208
-0.0156126
-0.0118331
-0.00704666
-0.00152078
0.00440284
0.0103572
0.0160652
0.0217672
0.0110459
0.00934469
0.00650051
0.00297331
-0.000845433
-0.00461568
-0.00804026
-0.0108622
-0.012866
-0.0138817
-0.0137908
-0.0125336
-0.0101171
-0.0066217
-0.00220579
0.00289684
0.00839313
0.0139729
0.0194082
0.0249531
0.0131542
0.0116901
0.00919363
0.00605254
0.00261786
-0.000794296
-0.00390282
-0.00646325
-0.00827087
-0.00916529
-0.00903604
-0.00782877
-0.00555125
-0.00227817
0.00184723
0.00661775
0.0117782
0.0170621
0.022279
0.0276707
0.0143665
0.0130787
0.0108208
0.00793125
0.0047385
0.00154693
-0.00136965
-0.00377247
-0.00546197
-0.00628255
-0.00612783
-0.00494612
-0.00274536
0.000403419
0.00436602
0.00895082
0.0139244
0.0190457
0.024146
0.0294332
0.0136806
0.0123924
0.0101363
0.0072511
0.00406308
0.000871632
-0.00205669
-0.00449187
-0.00624373
-0.00716553
-0.00715803
-0.00617331
-0.00421746
-0.00135075
0.00231697
0.00663864
0.011455
0.0166387
0.0221686
0.0282434
0.0124614
0.0109961
0.0085014
0.00536632
0.00193966
-0.00146794
-0.0045834
-0.007172
-0.00903949
-0.0100356
-0.0100583
-0.00905863
-0.00704407
-0.00408006
-0.000286353
0.00417511
0.00912704
0.0144272
0.0200558
0.026259
0.0103417
0.00863862
0.00579681
0.00227848
-0.00152715
-0.00528622
-0.00871078
-0.0115551
-0.0136156
-0.0147344
-0.0148034
-0.0137705
-0.0116448
-0.0084996
-0.00447094
0.000253905
0.00546569
0.010992
0.0168026
0.0231836
0.00765661
0.00570678
0.00248607
-0.00146696
-0.00571491
-0.00989282
-0.0136912
-0.0168475
-0.0191444
-0.0204124
-0.0205346
-0.0194539
-0.0171801
-0.0137961
-0.00945778
-0.00438475
0.0011717
0.00699659
0.0130356
0.0195972
0.00472456
0.00254381
-0.00104304
-0.00542795
-0.0101253
-0.0147362
-0.0189258
-0.0224117
-0.0249595
-0.0263856
-0.0265623
-0.0254263
-0.0229878
-0.019339
-0.0146574
-0.00919778
-0.00325851
0.00289592
0.00917851
0.0159065
0.00183062
-0.00055233
-0.00446667
-0.00924561
-0.01436
-0.0193783
-0.0239402
-0.0277419
-0.0305314
-0.0321101
-0.0323391
-0.0311483
-0.0285477
-0.0246383
-0.0196184
-0.0137771
-0.00745951
-0.000980445
0.00553722
0.0124102
-0.00078176
-0.0033313
-0.00751927
-0.0126321
-0.0181045
-0.0234762
-0.0283637
-0.0324436
-0.035447
-0.0371615
-0.0374375
-0.0361985
-0.0334541
-0.0293127
-0.0239907
-0.0178077
-0.0111506
-0.00438029
0.00234624
0.00933988
-0.00291524
-0.00559192
-0.00999071
-0.0153633
-0.0211168
-0.0267683
-0.0319152
-0.0362179
-0.0393934
-0.0412178
-0.0415325
-0.0402558
-0.0373966
-0.033069
-0.0275038
-0.021045
-0.0141131
-0.0071064
-0.00021089
0.00687665
-0.00442072
-0.00718303
-0.0117247
-0.0172745
-0.0232208
-0.0290653
-0.034392
-0.0388497
-0.0421455
-0.0440469
-0.0443893
-0.0430871
-0.0401486
-0.0356918
-0.0299573
-0.0233059
-0.0161816
-0.0090091
-0.00199498
0.00515712
-0.00519844
-0.0080038
-0.0126175
-0.018257
-0.0243013
-0.0302441
-0.0356627
-0.0401998
-0.0435573
-0.0454984
-0.0458553
-0.0445403
-0.0415614
-0.0370387
-0.0312176
-0.0244675
-0.0172444
-0.00998643
-0.00291118
0.00427386
-0.00519844
-0.0080038
-0.0126175
-0.018257
-0.0243013
-0.0302441
-0.0356627
-0.0401998
-0.0435573
-0.0454984
-0.0458553
-0.0445403
-0.0415614
-0.0370387
-0.0312176
-0.0244675
-0.0172444
-0.00998643
-0.00291118
0.00427386
-0.00442072
-0.00718303
-0.0117247
-0.0172745
-0.0232208
-0.0290653
-0.034392
-0.0388497
-0.0421455
-0.0440469
-0.0443893
-0.0430871
-0.0401486
-0.0356918
-0.0299573
-0.0233059
-0.0161816
-0.0090091
-0.00199498
0.00515712
-0.00291524
-0.00559192
-0.00999071
-0.0153633
-0.0211168
-0.0267683
-0.0319152
-0.0362179
-0.0393934
-0.0412178
-0.0415325
-0.0402558
-0.0373966
-0.033069
-0.0275038
-0.021045
-0.0141131
-0.0071064
-0.000210891
0.00687665
-0.000781758
-0.0033313
-0.00751927
-0.0126321
-0.0181045
-0.0234762
-0.0283637
-0.0324436
-0.035447
-0.0371615
-0.0374375
-0.0361985
-0.0334541
-0.0293127
-0.0239907
-0.0178077
-0.0111506
-0.00438029
0.00234624
0.00933988
0.00183063
-0.000552328
-0.00446667
-0.00924561
-0.01436
-0.0193783
-0.0239402
-0.0277419
-0.0305314
-0.0321101
-0.0323391
-0.0311483
-0.0285477
-0.0246383
-0.0196184
-0.0137771
-0.00745951
-0.000980445
0.00553722
0.0124102
0.00472456
0.00254381
-0.00104304
-0.00542795
-0.0101253
-0.0147362
-0.0189258
-0.0224117
-0.0249595
-0.0263856
-0.0265623
-0.0254263
-0.0229878
-0.019339
-0.0146574
-0.00919778
-0.00325851
0.00289592
0.00917851
0.0159065
0.00765661
0.00570678
0.00248607
-0.00146696
-0.0057149
-0.00989282
-0.0136911
-0.0168475
-0.0191444
-0.0204124
-0.0205346
-0.0194539
-0.0171801
-0.0137961
-0.00945777
-0.00438475
0.0011717
0.00699659
0.0130356
0.0195972
0.0103417
0.00863863
0.00579681
0.00227848
-0.00152715
-0.00528621
-0.00871078
-0.0115551
-0.0136156
-0.0147344
-0.0148034
-0.0137705
-0.0116448
-0.00849959
-0.00447094
0.000253905
0.00546568
0.010992
0.0168026
0.0231836
0.0124614
0.0109961
0.00850141
0.00536632
0.00193966
-0.00146794
-0.0045834
-0.007172
-0.00903949
-0.0100356
-0.0100583
-0.00905863
-0.00704407
-0.00408005
-0.000286352
0.00417511
0.00912704
0.0144272
0.0200558
0.026259
0.0136806
0.0123924
0.0101363
0.0072511
0.00406308
0.000871635
-0.00205668
-0.00449187
-0.00624372
-0.00716552
-0.00715803
-0.00617331
-0.00421746
-0.00135075
0.00231697
0.00663864
0.011455
0.0166387
0.0221686
0.0282434
0.0131213
0.0118324
0.00957652
0.0066927
0.00350457
0.00030654
-0.00264193
-0.00511923
-0.00694386
-0.00797692
-0.00812471
-0.00734089
-0.00562698
-0.00302985
0.000365886
0.00445298
0.00912639
0.0143181
0.0200349
0.0263717
0.0118968
0.0104303
0.00793625
0.00480431
0.00138083
-0.00202902
-0.00516002
-0.00778682
-0.00972497
-0.0108332
-0.0110164
-0.0102285
-0.00847347
-0.00580413
-0.00231465
0.00187504
0.006647
0.0119264
0.0177288
0.0241814
0.00976855
0.00806387
0.00522357
0.00171141
-0.00208591
-0.0058407
-0.00927409
-0.0121511
-0.0142799
-0.0155132
-0.015752
-0.0149489
-0.0131114
-0.0103013
-0.00662883
-0.00223586
0.00273522
0.00819179
0.014152
0.0207769
0.00707294
0.00512129
0.00190349
-0.00203957
-0.00627315
-0.0104393
-0.014239
-0.0174223
-0.0197854
-0.0211714
-0.0214746
-0.020645
-0.018693
-0.015691
-0.0117689
-0.00709739
-0.00185234
0.0038451
0.0100056
0.0168176
0.00412947
0.00194687
-0.00163539
-0.0060062
-0.0106828
-0.0152744
-0.0194579
-0.0229652
-0.0255773
-0.0271253
-0.0274946
-0.026631
-0.0245475
-0.0213271
-0.0171212
-0.0121321
-0.00657459
-0.000605406
0.00577047
0.0127615
0.0012242
-0.00116061
-0.0050686
-0.00982934
-0.0149169
-0.0199087
-0.0244576
-0.0282757
-0.0311279
-0.0328321
-0.0332641
-0.032365
-0.0301489
-0.0267094
-0.0222182
-0.0169094
-0.0110371
-0.00479596
0.00178874
0.00893875
-0.00139859
-0.00394996
-0.00812998
-0.0132209
-0.018661
-0.0239998
-0.0288684
-0.0329604
-0.0360252
-0.0378682
-0.0383559
-0.0374243
-0.0350886
-0.0314511
-0.0267015
-0.0211024
-0.0149437
-0.0084558
-0.00168511
0.00559806
-0.00354071
-0.00621924
-0.0106088
-0.0159565
-0.0216732
-0.0272867
-0.0324099
-0.0367212
-0.0399572
-0.0419123
-0.0424452
-0.0414877
-0.0390555
-0.0352574
-0.0302978
-0.0244618
-0.018069
-0.0113793
-0.004458
0.00292878
-0.0050524
-0.00781656
-0.012348
-0.0178707
-0.0237772
-0.0295802
-0.0348798
-0.0393438
-0.0426992
-0.044733
-0.0452979
-0.0443227
-0.0418233
-0.0379129
-0.0328061
-0.0268038
-0.020246
-0.013414
-0.00638684
0.00107099
-0.00583336
-0.00864058
-0.0132436
-0.0188549
-0.0248577
-0.0307572
-0.036147
-0.0406892
-0.044106
-0.0461802
-0.0467617
-0.0457776
-0.0432438
-0.039276
-0.0340935
-0.0280056
-0.0213627
-0.0144573
-0.00737556
0.000118454
-0.00583336
-0.00864058
-0.0132436
-0.0188549
-0.0248577
-0.0307572
-0.036147
-0.0406892
-0.044106
-0.0461802
-0.0467617
-0.0457776
-0.0432438
-0.039276
-0.0340935
-0.0280056
-0.0213627
-0.0144573
-0.00737556
0.000118454
-0.0050524
-0.00781656
-0.012348
-0.0178707
-0.0237772
-0.0295802
-0.0348798
-0.0393438
-0.0426992
-0.044733
-0.0452979
-0.0443227
-0.0418233
-0.0379129
-0.0328061
-0.0268038
-0.020246
-0.013414
-0.00638684
0.00107099
-0.00354071
-0.00621924
-0.0106088
-0.0159565
-0.0216732
-0.0272867
-0.0324099
-0.0367212
-0.0399572
-0.0419123
-0.0424452
-0.0414877
-0.0390555
-0.0352574
-0.0302978
-0.0244618
-0.018069
-0.0113793
-0.004458
0.00292878
-0.00139858
-0.00394996
-0.00812998
-0.0132209
-0.018661
-0.0239998
-0.0288684
-0.0329603
-0.0360252
-0.0378682
-0.0383559
-0.0374243
-0.0350886
-0.0314511
-0.0267015
-0.0211024
-0.0149437
-0.0084558
-0.00168512
0.00559806
0.0012242
-0.00116061
-0.0050686
-0.00982934
-0.0149169
-0.0199087
-0.0244575
-0.0282757
-0.0311279
-0.0328321
-0.0332641
-0.032365
-0.0301489
-0.0267094
-0.0222182
-0.0169094
-0.0110371
-0.00479596
0.00178873
0.00893874
0.00412947
0.00194687
-0.00163539
-0.00600619
-0.0106828
-0.0152744
-0.0194579
-0.0229652
-0.0255773
-0.0271253
-0.0274946
-0.026631
-0.0245475
-0.0213271
-0.0171212
-0.0121321
-0.00657459
-0.000605408
0.00577046
0.0127615
0.00707294
0.00512129
0.00190349
-0.00203957
-0.00627314
-0.0104393
-0.014239
-0.0174223
-0.0197854
-0.0211714
-0.0214746
-0.020645
-0.018693
-0.015691
-0.0117689
-0.00709739
-0.00185234
0.0038451
0.0100056
0.0168176
0.00976855
0.00806387
0.00522357
0.00171141
-0.00208591
-0.0058407
-0.00927408
-0.0121511
-0.0142799
-0.0155132
-0.015752
-0.0149489
-0.0131114
-0.0103013
-0.00662883
-0.00223586
0.00273521
0.00819178
0.014152
0.0207769
0.0118968
0.0104303
0.00793625
0.00480431
0.00138083
-0.00202901
-0.00516002
-0.00778682
-0.00972496
-0.0108332
-0.0110164
-0.0102285
-0.00847347
-0.00580413
-0.00231465
0.00187504
0.006647
0.0119264
0.0177288
0.0241814
0.0131213
0.0118324
0.00957653
0.0066927
0.00350457
0.000306543
-0.00264193
-0.00511923
-0.00694386
-0.00797691
-0.00812471
-0.00734089
-0.00562698
-0.00302985
0.000365884
0.00445298
0.00912639
0.0143181
0.0200349
0.0263717
0.0126954
0.0114055
0.00914872
0.00626346
0.00307082
-0.000139652
-0.00311516
-0.00564182
-0.00754588
-0.00869505
-0.00899967
-0.00841325
-0.00693122
-0.00458661
-0.00144118
0.00242932
0.0069555
0.012097
0.0178565
0.0242653
0.0114676
0.00999986
0.00750537
0.00437386
0.000949064
-0.00246911
-0.00562284
-0.00829541
-0.0103112
-0.0115366
-0.0118818
-0.0113014
-0.00979417
-0.00739902
-0.00418624
-0.000241566
0.00435713
0.00956745
0.0154021
0.021915
0.00933357
0.0076276
0.00478801
0.00127937
-0.00251427
-0.00627117
-0.00972096
-0.0126388
-0.0148433
-0.0161968
-0.016607
-0.0160292
-0.0144667
-0.0119678
-0.00861706
-0.00451838
0.00023292
0.00558501
0.0115578
0.0182323
0.00663075
0.00467787
0.00146237
-0.00247339
-0.00669741
-0.0108586
-0.0146676
-0.0178865
-0.0203238
-0.0218343
-0.0223212
-0.0217388
-0.0200949
-0.0174489
-0.0139035
-0.00958658
-0.00461892
0.000929665
0.00707959
0.0139363
0.00367929
0.00149558
-0.00208261
-0.00644204
-0.011103
-0.0156822
-0.0198681
-0.0234059
-0.0260912
-0.0277686
-0.0283344
-0.027741
-0.0259998
-0.0231814
-0.0194086
-0.0148365
-0.00961641
-0.00384249
0.00249947
0.00953527
0.000765868
-0.00161992
-0.00552207
-0.0102675
-0.0153334
-0.0203059
-0.0248505
-0.0286947
-0.0316193
-0.0334577
-0.0340984
-0.0334904
-0.0316482
-0.028653
-0.0246471
-0.0198131
-0.014334
-0.00833169
-0.00180245
0.00539512
-0.00186456
-0.00441683
-0.0085894
-0.0136614
-0.0190745
-0.024388
-0.0292466
-0.0333607
-0.0364973
-0.0384786
-0.0391852
-0.0385626
-0.0366273
-0.0334697
-0.0292493
-0.0241739
-0.0184561
-0.0122445
-0.00554791
0.00178627
-0.00401315
-0.00669252
-0.0110733
-0.0163992
-0.0220847
-0.0276679
-0.0327765
-0.0371068
-0.040414
-0.0425106
-0.0432704
-0.0426355
-0.0406239
-0.037333
-0.0329363
-0.0276619
-0.0217472
-0.0153632
-0.00853076
-0.00108998
-0.00552953
-0.00829452
-0.0128163
-0.0183152
-0.0241875
-0.0299566
-0.0352385
-0.0397193
-0.0431456
-0.0453228
-0.0461199
-0.0454766
-0.0434113
-0.0400266
-0.0355053
-0.0300902
-0.0240357
-0.0175296
-0.0106016
-0.0030877
-0.00631296
-0.009121
-0.0137139
-0.0193003
-0.0252674
-0.0311313
-0.0365017
-0.0410596
-0.044547
-0.0467657
-0.0475821
-0.0469344
-0.0448416
-0.0414085
-0.0368231
-0.0313352
-0.0252084
-0.018639
-0.0116618
-0.00411064
-0.00631296
-0.009121
-0.0137139
-0.0193003
-0.0252674
-0.0311313
-0.0365017
-0.0410596
-0.044547
-0.0467657
-0.0475821
-0.0469344
-0.0448416
-0.0414085
-0.0368231
-0.0313352
-0.0252084
-0.018639
-0.0116618
-0.00411064
-0.00552953
-0.00829452
-0.0128163
-0.0183152
-0.0241875
-0.0299566
-0.0352385
-0.0397193
-0.0431456
-0.0453228
-0.0461199
-0.0454766
-0.0434113
-0.0400266
-0.0355053
-0.0300902
-0.0240357
-0.0175296
-0.0106016
-0.00308771
-0.00401315
-0.00669252
-0.0110733
-0.0163992
-0.0220847
-0.0276679
-0.0327765
-0.0371068
-0.040414
-0.0425106
-0.0432704
-0.0426355
-0.0406239
-0.037333
-0.0329363
-0.0276619
-0.0217472
-0.0153632
-0.00853077
-0.00108998
-0.00186456
-0.00441682
-0.0085894
-0.0136614
-0.0190745
-0.024388
-0.0292466
-0.0333607
-0.0364973
-0.0384786
-0.0391852
-0.0385626
-0.0366273
-0.0334697
-0.0292493
-0.0241739
-0.0184561
-0.0122445
-0.00554791
0.00178627
0.000765869
-0.00161992
-0.00552207
-0.0102674
-0.0153334
-0.0203059
-0.0248505
-0.0286946
-0.0316193
-0.0334577
-0.0340984
-0.0334904
-0.0316482
-0.028653
-0.0246471
-0.0198131
-0.014334
-0.00833169
-0.00180245
0.00539511
0.00367929
0.00149558
-0.00208261
-0.00644203
-0.011103
-0.0156822
-0.019868
-0.0234059
-0.0260912
-0.0277686
-0.0283344
-0.027741
-0.0259998
-0.0231814
-0.0194086
-0.0148365
-0.00961641
-0.0038425
0.00249946
0.00953526
0.00663076
0.00467788
0.00146237
-0.00247339
-0.00669741
-0.0108586
-0.0146676
-0.0178865
-0.0203238
-0.0218343
-0.0223212
-0.0217388
-0.0200949
-0.0174489
-0.0139035
-0.00958658
-0.00461893
0.000929661
0.00707958
0.0139363
0.00933357
0.0076276
0.00478802
0.00127938
-0.00251427
-0.00627117
-0.00972096
-0.0126388
-0.0148433
-0.0161968
-0.016607
-0.0160292
-0.0144667
-0.0119678
-0.00861706
-0.00451838
0.000232916
0.005585
0.0115578
0.0182323
0.0114676
0.00999986
0.00750538
0.00437386
0.000949066
-0.00246911
-0.00562284
-0.0082954
-0.0103112
-0.0115366
-0.0118818
-0.0113014
-0.00979417
-0.00739902
-0.00418624
-0.00024157
0.00435713
0.00956744
0.0154021
0.021915
0.0126954
0.0114055
0.00914873
0.00626346
0.00307082
-0.000139649
-0.00311516
-0.00564181
-0.00754588
-0.00869505
-0.00899967
-0.00841325
-0.00693122
-0.00458662
-0.00144118
0.00242931
0.0069555
0.012097
0.0178565
0.0242653
0.0124081
0.011117
0.00885809
0.00596888
0.0027678
-0.000460121
-0.00346818
-0.00604934
-0.00803656
-0.0093029
-0.00976143
-0.00936438
-0.00810058
-0.00599021
-0.00307585
0.000590208
0.00496121
0.0100092
0.0157275
0.0221119
0.0111786
0.00970982
0.007214
0.00408042
0.000650207
-0.00278163
-0.00596398
-0.00868783
-0.0107852
-0.0121289
-0.0126327
-0.0122507
-0.0109752
-0.00883212
-0.00587114
-0.00215201
0.00227327
0.00737734
0.013163
0.0196436
0.00904179
0.00733493
0.00449536
0.000987715
-0.00280664
-0.00657144
-0.0100441
-0.0130088
-0.0152934
-0.0167681
-0.017346
-0.016983
-0.0156766
-0.0134616
-0.0104001
-0.00656605
-0.0020233
0.0031965
0.00910497
0.0157373
0.00633515
0.00438168
0.00116788
-0.00276321
-0.00698241
-0.0111448
-0.0149702
-0.0182313
-0.0207477
-0.0223842
-0.0230507
-0.0227042
-0.0213474
-0.0190257
-0.0158171
-0.0118151
-0.00710199
-0.00172031
0.00434572
0.0111526
0.00337914
0.00119513
-0.00237954
-0.00673042
-0.0113807
-0.0159544
-0.0201502
-0.0237258
-0.0264897
-0.0282984
-0.0290573
-0.0287222
-0.027301
-0.0248499
-0.0214649
-0.0172617
-0.0123461
-0.00677686
-0.000539265
0.00644164
0.000460819
-0.00192504
-0.00582194
-0.010555
-0.0156048
-0.0205653
-0.0251137
-0.0289916
-0.0319946
-0.0339698
-0.0348162
-0.0344882
-0.0329971
-0.03041
-0.02684
-0.0224264
-0.0172999
-0.0115387
-0.00513313
0.00200658
-0.00217443
-0.0047266
-0.00889241
-0.0139488
-0.0193409
-0.0246366
-0.0294936
-0.0336379
-0.0368529
-0.0389757
-0.0398991
-0.0395749
-0.0380175
-0.0353029
-0.0315602
-0.0269499
-0.0216265
-0.0156879
-0.00913181
-0.00185727
-0.00432725
-0.00700644
-0.0113792
-0.0166868
-0.0223473
-0.0279081
-0.0330109
-0.0373687
-0.0407541
-0.0429959
-0.043981
-0.043659
-0.0420462
-0.0392256
-0.035339
-0.0305648
-0.0250774
-0.0189919
-0.0123134
-0.00493341
-0.00584677
-0.00861155
-0.0131245
-0.0186032
-0.0244476
-0.0301911
-0.0354642
-0.0399705
-0.0434749
-0.0457999
-0.0468282
-0.0465075
-0.0448552
-0.0419592
-0.0379703
-0.0330792
-0.0274747
-0.0212846
-0.0145199
-0.00706761
-0.00663188
-0.0094397
-0.0140234
-0.0195886
-0.0255264
-0.031363
-0.036723
-0.0413054
-0.0448708
-0.0472386
-0.0482891
-0.047969
-0.0462963
-0.0433613
-0.0393192
-0.0343675
-0.0287023
-0.0224578
-0.0156487
-0.00815957
-0.00663188
-0.0094397
-0.0140234
-0.0195886
-0.0255264
-0.031363
-0.036723
-0.0413054
-0.0448708
-0.0472386
-0.0482891
-0.047969
-0.0462963
-0.0433613
-0.0393192
-0.0343675
-0.0287023
-0.0224578
-0.0156487
-0.00815957
-0.00584677
-0.00861155
-0.0131245
-0.0186032
-0.0244476
-0.0301911
-0.0354642
-0.0399705
-0.0434749
-0.0457999
-0.0468282
-0.0465075
-0.0448552
-0.0419592
-0.0379702
-0.0330792
-0.0274747
-0.0212846
-0.0145199
-0.00706761
-0.00432725
-0.00700644
-0.0113792
-0.0166868
-0.0223473
-0.0279081
-0.0330109
-0.0373687
-0.0407541
-0.0429959
-0.043981
-0.043659
-0.0420462
-0.0392256