/*--------------------------------*- C++ -*----------------------------------*\
  =========                 |
  \\      /  F ield         | OpenFOAM: The Open Source CFD Toolbox
   \\    /   O peration     | Website:  https://openfoam.org
    \\  /    A nd           | Version:  6
     \\/     M anipulation  |
\*---------------------------------------------------------------------------*/
FoamFile
{
    version     2.0;
    format      ascii;
    class       volScalarField;
    location    "0.955";
    object      T;
}
// * * * * * * * * * * * * * * * * * * * * * * * * * * * * * * * * * * * * * //

dimensions      [0 0 0 1 0 0 0];

internalField   nonuniform List<scalar> 
7000
(
106.724
106.723
106.721
106.719
106.716
106.713
106.709
106.706
106.704
106.703
106.724
106.723
106.721
106.719
106.716
106.713
106.709
106.706
106.704
106.703
106.724
106.723
106.721
106.719
106.716
106.713
106.709
106.706
106.704
106.703
106.724
106.723
106.721
106.719
106.716
106.713
106.709
106.706
106.704
106.703
106.724
106.723
106.721
106.719
106.716
106.713
106.709
106.706
106.704
106.703
106.724
106.723
106.721
106.719
106.716
106.713
106.709
106.706
106.704
106.703
106.724
106.723
106.721
106.719
106.716
106.713
106.709
106.706
106.704
106.703
106.724
106.723
106.721
106.719
106.716
106.713
106.709
106.706
106.704
106.703
106.724
106.723
106.721
106.719
106.716
106.713
106.709
106.706
106.704
106.703
106.724
106.723
106.721
106.719
106.716
106.713
106.709
106.706
106.704
106.703
100.191
100.189
100.183
100.176
100.167
100.157
100.147
100.138
100.131
100.127
100.191
100.189
100.183
100.176
100.167
100.157
100.146
100.138
100.131
100.127
100.191
100.189
100.183
100.176
100.167
100.157
100.146
100.138
100.131
100.127
100.191
100.189
100.183
100.176
100.167
100.157
100.146
100.138
100.131
100.127
100.191
100.189
100.183
100.176
100.167
100.157
100.146
100.138
100.131
100.127
100.191
100.189
100.183
100.176
100.167
100.157
100.146
100.138
100.131
100.127
100.191
100.189
100.183
100.176
100.167
100.157
100.146
100.138
100.131
100.127
100.191
100.189
100.183
100.176
100.167
100.157
100.146
100.138
100.131
100.127
100.191
100.189
100.183
100.176
100.167
100.157
100.146
100.138
100.131
100.127
100.191
100.189
100.183
100.176
100.167
100.157
100.146
100.138
100.131
100.127
93.7152
93.7106
93.7018
93.6891
93.6736
93.6564
93.6391
93.6235
93.6117
93.6053
93.7152
93.7106
93.7017
93.6891
93.6736
93.6564
93.6391
93.6235
93.6117
93.6053
93.7152
93.7106
93.7017
93.6891
93.6736
93.6563
93.639
93.6235
93.6117
93.6053
93.7152
93.7106
93.7017
93.6891
93.6735
93.6563
93.639
93.6235
93.6117
93.6053
93.7152
93.7106
93.7017
93.6891
93.6735
93.6563
93.639
93.6235
93.6117
93.6053
93.7152
93.7106
93.7017
93.6891
93.6735
93.6563
93.639
93.6235
93.6117
93.6053
93.7152
93.7106
93.7017
93.6891
93.6735
93.6563
93.639
93.6235
93.6117
93.6053
93.7152
93.7106
93.7017
93.6891
93.6735
93.6563
93.639
93.6235
93.6117
93.6053
93.7152
93.7106
93.7017
93.6891
93.6736
93.6563
93.639
93.6235
93.6117
93.6053
93.7152
93.7106
93.7017
93.6891
93.6736
93.6564
93.6391
93.6235
93.6117
93.6053
87.3328
87.3264
87.3139
87.2961
87.2739
87.249
87.2237
87.2005
87.1826
87.1727
87.3328
87.3264
87.3139
87.296
87.2739
87.249
87.2236
87.2005
87.1825
87.1727
87.3328
87.3263
87.3139
87.296
87.2739
87.249
87.2236
87.2004
87.1825
87.1727
87.3327
87.3263
87.3139
87.296
87.2738
87.249
87.2236
87.2004
87.1825
87.1727
87.3327
87.3263
87.3139
87.296
87.2738
87.249
87.2236
87.2004
87.1825
87.1727
87.3327
87.3263
87.3139
87.296
87.2738
87.249
87.2236
87.2004
87.1825
87.1727
87.3327
87.3263
87.3139
87.296
87.2738
87.249
87.2236
87.2004
87.1825
87.1727
87.3327
87.3263
87.3139
87.296
87.2739
87.249
87.2236
87.2004
87.1825
87.1727
87.3327
87.3263
87.3139
87.296
87.2739
87.249
87.2236
87.2004
87.1825
87.1727
87.3328
87.3264
87.3139
87.296
87.2739
87.249
87.2236
87.2005
87.1825
87.1727
81.0801
81.072
81.0561
81.0331
81.0041
80.971
80.9364
80.904
80.8783
80.8638
81.0801
81.072
81.0561
81.0331
81.0041
80.971
80.9364
80.904
80.8782
80.8638
81.0801
81.0719
81.0561
81.0331
81.0041
80.971
80.9364
80.904
80.8782
80.8638
81.08
81.0719
81.056
81.033
81.0041
80.971
80.9364
80.904
80.8782
80.8638
81.08
81.0719
81.056
81.033
81.0041
80.971
80.9364
80.904
80.8782
80.8638
81.08
81.0719
81.056
81.033
81.0041
80.971
80.9364
80.9039
80.8782
80.8638
81.08
81.0719
81.056
81.033
81.0041
80.971
80.9364
80.904
80.8782
80.8638
81.08
81.0719
81.056
81.033
81.0041
80.971
80.9364
80.904
80.8782
80.8638
81.0801
81.0719
81.0561
81.0331
81.0041
80.971
80.9364
80.904
80.8782
80.8638
81.0801
81.072
81.0561
81.0331
81.0041
80.971
80.9364
80.904
80.8783
80.8638
74.9917
74.9822
74.9633
74.9357
74.9002
74.8585
74.8133
74.7693
74.7327
74.7114
74.9917
74.9821
74.9633
74.9356
74.9001
74.8584
74.8133
74.7692
74.7327
74.7114
74.9917
74.9821
74.9633
74.9356
74.9001
74.8584
74.8133
74.7692
74.7327
74.7114
74.9916
74.9821
74.9632
74.9356
74.9001
74.8584
74.8132
74.7692
74.7326
74.7114
74.9916
74.9821
74.9632
74.9356
74.9001
74.8584
74.8132
74.7692
74.7326
74.7114
74.9916
74.9821
74.9632
74.9356
74.9001
74.8584
74.8132
74.7692
74.7326
74.7114
74.9916
74.9821
74.9632
74.9356
74.9001
74.8584
74.8132
74.7692
74.7326
74.7114
74.9916
74.9821
74.9632
74.9356
74.9001
74.8584
74.8133
74.7692
74.7327
74.7114
74.9916
74.9821
74.9633
74.9356
74.9001
74.8584
74.8133
74.7692
74.7327
74.7114
74.9917
74.9821
74.9633
74.9356
74.9001
74.8584
74.8133
74.7692
74.7327
74.7114
69.1
69.0896
69.0689
69.0379
68.997
68.947
68.8902
68.8311
68.7786
68.7458
69.1
69.0896
69.0688
69.0378
68.9969
68.947
68.8902
68.8311
68.7786
68.7458
69.1
69.0895
69.0688
69.0378
68.9969
68.947
68.8901
68.8311
68.7785
68.7457
69.0999
69.0895
69.0688
69.0378
68.9969
68.9469
68.8901
68.8311
68.7785
68.7457
69.0999
69.0895
69.0688
69.0378
68.9969
68.9469
68.8901
68.8311
68.7785
68.7457
69.0999
69.0895
69.0688
69.0378
68.9969
68.9469
68.8901
68.8311
68.7785
68.7457
69.0999
69.0895
69.0688
69.0378
68.9969
68.9469
68.8901
68.8311
68.7785
68.7457
69.0999
69.0895
69.0688
69.0378
68.9969
68.947
68.8901
68.8311
68.7785
68.7457
69.1
69.0895
69.0688
69.0378
68.9969
68.947
68.8901
68.8311
68.7785
68.7457
69.1
69.0896
69.0688
69.0379
68.997
68.947
68.8902
68.8311
68.7786
68.7458
63.4347
63.4245
63.4037
63.372
63.3286
63.2726
63.2041
63.1258
63.0477
62.9925
63.4347
63.4244
63.4037
63.372
63.3285
63.2725
63.204
63.1258
63.0477
62.9925
63.4347
63.4244
63.4036
63.3719
63.3285
63.2725
63.204
63.1257
63.0477
62.9924
63.4346
63.4244
63.4036
63.3719
63.3285
63.2725
63.204
63.1257
63.0476
62.9924
63.4346
63.4244
63.4036
63.3719
63.3285
63.2725
63.204
63.1257
63.0476
62.9924
63.4346
63.4243
63.4036
63.3719
63.3285
63.2725
63.204
63.1257
63.0476
62.9924
63.4346
63.4244
63.4036
63.3719
63.3285
63.2725
63.204
63.1257
63.0476
62.9924
63.4346
63.4244
63.4036
63.3719
63.3285
63.2725
63.204
63.1257
63.0477
62.9924
63.4347
63.4244
63.4037
63.3719
63.3285
63.2725
63.204
63.1258
63.0477
62.9925
63.4347
63.4244
63.4037
63.372
63.3285
63.2726
63.204
63.1258
63.0477
62.9925
58.022
58.0134
57.9957
57.9678
57.9275
57.8713
57.7947
57.6939
57.5734
57.467
58.022
58.0133
57.9957
57.9678
57.9274
57.8713
57.7947
57.6939
57.5734
57.467
58.0219
58.0133
57.9956
57.9677
57.9274
57.8712
57.7946
57.6938
57.5734
57.4669
58.0219
58.0133
57.9956
57.9677
57.9274
57.8712
57.7946
57.6938
57.5733
57.4669
58.0219
58.0133
57.9956
57.9677
57.9274
57.8712
57.7946
57.6938
57.5733
57.4669
58.0219
58.0133
57.9956
57.9677
57.9274
57.8712
57.7946
57.6938
57.5733
57.4669
58.0219
58.0133
57.9956
57.9677
57.9274
57.8712
57.7946
57.6938
57.5733
57.4669
58.0219
58.0133
57.9956
57.9677
57.9274
57.8712
57.7946
57.6938
57.5733
57.4669
58.0219
58.0133
57.9957
57.9677
57.9274
57.8712
57.7946
57.6938
57.5734
57.4669
58.0219
58.0134
57.9957
57.9678
57.9274
57.8713
57.7947
57.6939
57.5734
57.467
52.8836
52.8787
52.8685
52.8512
52.8235
52.7793
52.7072
52.5888
52.4014
52.1579
52.8835
52.8787
52.8684
52.8511
52.8235
52.7793
52.7072
52.5887
52.4013
52.1578
52.8835
52.8787
52.8684
52.8511
52.8235
52.7793
52.7071
52.5887
52.4013
52.1578
52.8835
52.8786
52.8683
52.851
52.8234
52.7792
52.7071
52.5887
52.4013
52.1577
52.8835
52.8786
52.8683
52.851
52.8234
52.7792
52.7071
52.5886
52.4012
52.1577
52.8835
52.8786
52.8683
52.851
52.8234
52.7792
52.7071
52.5886
52.4012
52.1577
52.8835
52.8786
52.8683
52.851
52.8234
52.7792
52.7071
52.5886
52.4013
52.1577
52.8835
52.8786
52.8684
52.8511
52.8235
52.7792
52.7071
52.5887
52.4013
52.1578
52.8835
52.8787
52.8684
52.8511
52.8235
52.7793
52.7071
52.5887
52.4013
52.1578
52.8835
52.8787
52.8684
52.8511
52.8235
52.7793
52.7072
52.5887
52.4014
52.1578
48.036
48.0374
48.0398
48.0421
48.0411
48.0297
47.9919
47.8919
47.6395
46.9727
48.036
48.0374
48.0398
48.0421
48.041
48.0296
47.9919
47.8918
47.6394
46.9726
48.036
48.0373
48.0398
48.042
48.041
48.0296
47.9918
47.8918
47.6394
46.9726
48.0359
48.0373
48.0397
48.042
48.041
48.0295
47.9918
47.8917
47.6393
46.9726
48.0359
48.0373
48.0397
48.042
48.041
48.0295
47.9918
47.8917
47.6393
46.9725
48.0359
48.0373
48.0397
48.042
48.041
48.0295
47.9918
47.8917
47.6393
46.9725
48.0359
48.0373
48.0397
48.042
48.041
48.0295
47.9918
47.8917
47.6393
46.9726
48.0359
48.0373
48.0397
48.042
48.041
48.0296
47.9918
47.8917
47.6394
46.9726
48.036
48.0373
48.0398
48.042
48.041
48.0296
47.9919
47.8918
47.6394
46.9726
48.036
48.0374
48.0398
48.0421
48.0411
48.0296
47.9919
47.8918
47.6395
46.9727
43.4899
43.5001
43.5208
43.5522
43.5939
43.6426
43.6896
43.7156
43.6832
43.5411
43.4899
43.5
43.5207
43.5522
43.5939
43.6425
43.6896
43.7156
43.6832
43.5411
43.4899
43.5
43.5207
43.5522
43.5938
43.6425
43.6895
43.7155
43.6831
43.541
43.4898
43.5
43.5207
43.5521
43.5938
43.6425
43.6895
43.7155
43.6831
43.541
43.4898
43.5
43.5206
43.5521
43.5938
43.6425
43.6895
43.7155
43.6831
43.541
43.4898
43.5
43.5206
43.5521
43.5938
43.6425
43.6895
43.7155
43.6831
43.541
43.4898
43.5
43.5206
43.5521
43.5938
43.6425
43.6895
43.7155
43.6831
43.541
43.4898
43.5
43.5207
43.5521
43.5938
43.6425
43.6895
43.7155
43.6831
43.541
43.4899
43.5
43.5207
43.5522
43.5938
43.6425
43.6896
43.7155
43.6832
43.541
43.4899
43.5001
43.5207
43.5522
43.5939
43.6426
43.6896
43.7156
43.6832
43.5411
39.2498
39.2708
39.3142
39.3829
39.4805
39.611
39.7787
39.9886
40.2536
40.6192
39.2497
39.2707
39.3142
39.3829
39.4804
39.611
39.7786
39.9886
40.2535
40.6191
39.2497
39.2707
39.3142
39.3828
39.4804
39.6109
39.7786
39.9885
40.2535
40.6191
39.2497
39.2707
39.3141
39.3828
39.4804
39.6109
39.7785
39.9885
40.2534
40.619
39.2497
39.2706
39.3141
39.3828
39.4804
39.6109
39.7785
39.9885
40.2534
40.619
39.2497
39.2706
39.3141
39.3828
39.4803
39.6109
39.7785
39.9885
40.2534
40.619
39.2497
39.2707
39.3141
39.3828
39.4804
39.6109
39.7785
39.9885
40.2534
40.619
39.2497
39.2707
39.3141
39.3828
39.4804
39.6109
39.7786
39.9885
40.2535
40.619
39.2497
39.2707
39.3142
39.3829
39.4804
39.6109
39.7786
39.9886
40.2535
40.6191
39.2497
39.2707
39.3142
39.3829
39.4805
39.611
39.7787
39.9886
40.2536
40.6191
35.3143
35.3472
35.416
35.5262
35.6865
35.9089
36.2098
36.6129
37.1564
37.9085
35.3142
35.3472
35.416
35.5262
35.6865
35.9088
36.2097
36.6129
37.1563
37.9084
35.3142
35.3471
35.4159
35.5261
35.6864
35.9088
36.2097
36.6128
37.1563
37.9083
35.3142
35.3471
35.4159
35.5261
35.6864
35.9088
36.2097
36.6128
37.1562
37.9083
35.3141
35.3471
35.4159
35.5261
35.6864
35.9087
36.2096
36.6128
37.1562
37.9083
35.3141
35.3471
35.4159
35.5261
35.6864
35.9087
36.2096
36.6128
37.1562
37.9083
35.3141
35.3471
35.4159
35.5261
35.6864
35.9088
36.2097
36.6128
37.1562
37.9083
35.3142
35.3471
35.4159
35.5261
35.6864
35.9088
36.2097
36.6128
37.1562
37.9083
35.3142
35.3472
35.4159
35.5262
35.6865
35.9088
36.2097
36.6128
37.1563
37.9084
35.3142
35.3472
35.416
35.5262
35.6865
35.9089
36.2098
36.6129
37.1564
37.9085
31.6772
31.7221
31.8161
31.9676
32.1901
32.5027
32.9316
33.5123
34.2927
35.3377
31.6772
31.7221
31.816
31.9676
32.1901
32.5027
32.9316
33.5123
34.2927
35.3376
31.6771
31.722
31.816
31.9675
32.19
32.5026
32.9315
33.5122
34.2926
35.3375
31.6771
31.722
31.816
31.9675
32.19
32.5026
32.9315
33.5122
34.2926
35.3375
31.6771
31.722
31.8159
31.9675
32.19
32.5026
32.9315
33.5122
34.2926
35.3375
31.6771
31.722
31.8159
31.9675
32.19
32.5026
32.9315
33.5122
34.2926
35.3375
31.6771
31.722
31.816
31.9675
32.19
32.5026
32.9315
33.5122
34.2926
35.3375
31.6771
31.722
31.816
31.9675
32.19
32.5026
32.9315
33.5122
34.2926
35.3375
31.6771
31.722
31.816
31.9675
32.19
32.5026
32.9316
33.5123
34.2927
35.3376
31.6772
31.7221
31.8161
31.9676
32.1901
32.5027
32.9316
33.5123
34.2927
35.3377
28.3289
28.3844
28.5007
28.6888
28.9661
29.3579
29.8982
30.6312
31.6103
32.8929
28.3289
28.3844
28.5007
28.6887
28.9661
29.3578
29.8981
30.6312
31.6102
32.8929
28.3289
28.3843
28.5006
28.6887
28.966
29.3578
29.8981
30.6311
31.6102
32.8928
28.3288
28.3843
28.5006
28.6887
28.966
29.3578
29.8981
30.6311
31.6101
32.8928
28.3288
28.3843
28.5006
28.6887
28.966
29.3577
29.898
30.6311
31.6101
32.8927
28.3288
28.3843
28.5006
28.6887
28.966
29.3577
29.898
30.6311
31.6101
32.8927
28.3288
28.3843
28.5006
28.6887
28.966
29.3578
29.8981
30.6311
31.6101
32.8928
28.3288
28.3843
28.5006
28.6887
28.966
29.3578
29.8981
30.6311
31.6102
32.8928
28.3289
28.3843
28.5006
28.6887
28.9661
29.3578
29.8981
30.6311
31.6102
32.8928
28.3289
28.3844
28.5007
28.6888
28.9661
29.3579
29.8982
30.6312
31.6103
32.8929
25.2576
25.3212
25.4545
25.6703
25.9891
26.441
27.0672
27.9219
29.0686
30.5677
25.2576
25.3212
25.4544
25.6702
25.9891
26.4409
27.0672
27.9218
29.0685
30.5676
25.2576
25.3211
25.4544
25.6702
25.989
26.4409
27.0671
27.9218
29.0685
30.5675
25.2575
25.3211
25.4544
25.6702
25.989
26.4408
27.0671
27.9217
29.0684
30.5675
25.2575
25.3211
25.4544
25.6701
25.989
26.4408
27.0671
27.9217
29.0684
30.5675
25.2575
25.3211
25.4544
25.6701
25.989
26.4408
27.0671
27.9217
29.0684
30.5675
25.2575
25.3211
25.4544
25.6702
25.989
26.4408
27.0671
27.9217
29.0684
30.5675
25.2575
25.3211
25.4544
25.6702
25.989
26.4409
27.0671
27.9218
29.0685
30.5675
25.2576
25.3211
25.4544
25.6702
25.989
26.4409
27.0672
27.9218
29.0685
30.5676
25.2576
25.3212
25.4545
25.6703
25.9891
26.441
27.0672
27.9219
29.0686
30.5677
22.4509
22.5191
22.6622
22.8935
23.2354
23.7208
24.3975
25.3323
26.613
28.3334
22.4508
22.5191
22.6621
22.8935
23.2353
23.7207
24.3974
25.3323
26.6129
28.3334
22.4508
22.5191
22.6621
22.8935
23.2353
23.7207
24.3974
25.3322
26.6128
28.3333
22.4508
22.519
22.6621
22.8934
23.2352
23.7206
24.3974
25.3322
26.6128
28.3333
22.4507
22.519
22.6621
22.8934
23.2352
23.7206
24.3973
25.3322
26.6128
28.3333
22.4507
22.519
22.662
22.8934
23.2352
23.7206
24.3973
25.3322
26.6128
28.3333
22.4508
22.519
22.6621
22.8934
23.2352
23.7206
24.3974
25.3322
26.6128
28.3333
22.4508
22.519
22.6621
22.8934
23.2353
23.7207
24.3974
25.3322
26.6128
28.3333
22.4508
22.5191
22.6621
22.8935
23.2353
23.7207
24.3974
25.3323
26.6129
28.3334
22.4508
22.5191
22.6622
22.8935
23.2354
23.7208
24.3975
25.3323
26.613
28.3334
19.8968
19.9659
20.1104
20.3432
20.6859
21.1712
21.8492
22.7983
24.1451
26.089
19.8968
19.9659
20.1104
20.3432
20.6858
21.1711
21.8492
22.7983
24.145
26.0889
19.8967
19.9659
20.1103
20.3432
20.6858
21.1711
21.8491
22.7982
24.145
26.0889
19.8967
19.9658
20.1103
20.3431
20.6858
21.1711
21.8491
22.7982
24.145
26.0888
19.8967
19.9658
20.1103
20.3431
20.6857
21.171
21.8491
22.7982
24.145
26.0888
19.8967
19.9658
20.1103
20.3431
20.6857
21.171
21.8491
22.7982
24.145
26.0888
19.8967
19.9658
20.1103
20.3431
20.6858
21.1711
21.8491
22.7982
24.145
26.0888
19.8967
19.9658
20.1103
20.3432
20.6858
21.1711
21.8491
22.7982
24.145
26.0889
19.8967
19.9659
20.1104
20.3432
20.6858
21.1711
21.8492
22.7983
24.145
26.0889
19.8968
19.9659
20.1104
20.3432
20.6859
21.1712
21.8492
22.7983
24.1451
26.089
17.5852
17.6514
17.7892
18.0094
18.3301
18.7782
19.3956
20.2525
21.4915
23.4905
17.5851
17.6514
17.7891
18.0094
18.33
18.7781
19.3956
20.2525
21.4914
23.4905
17.5851
17.6513
17.7891
18.0094
18.33
18.7781
19.3955
20.2525
21.4914
23.4904
17.5851
17.6513
17.7891
18.0093
18.33
18.7781
19.3955
20.2524
21.4914
23.4904
17.5851
17.6513
17.7891
18.0093
18.3299
18.7781
19.3955
20.2524
21.4914
23.4904
17.585
17.6513
17.7891
18.0093
18.3299
18.7781
19.3955
20.2524
21.4914
23.4904
17.5851
17.6513
17.7891
18.0093
18.33
18.7781
19.3955
20.2524
21.4914
23.4904
17.5851
17.6513
17.7891
18.0094
18.33
18.7781
19.3955
20.2525
21.4914
23.4905
17.5851
17.6513
17.7891
18.0094
18.33
18.7781
19.3956
20.2525
21.4915
23.4905
17.5851
17.6514
17.7892
18.0094
18.3301
18.7782
19.3956
20.2526
21.4915
23.4906
44.9764
45.1009
46.7617
49.7753
54.1417
59.9851
67.5627
77.3304
90.1173
107.59
44.9763
45.1009
46.7616
49.7752
54.1416
59.985
67.5626
77.3303
90.1172
107.59
44.9762
45.1008
46.7615
49.7752
54.1415
59.9849
67.5625
77.3302
90.1171
107.59
44.9762
45.1008
46.7615
49.7751
54.1414
59.9848
67.5625
77.3302
90.117
107.59
44.9762
45.1007
46.7614
49.7751
54.1414
59.9848
67.5624
77.3301
90.117
107.59
44.9762
45.1007
46.7614
49.7751
54.1414
59.9848
67.5624
77.3301
90.117
107.59
44.9762
45.1007
46.7615
49.7751
54.1414
59.9848
67.5625
77.3302
90.117
107.59
44.9762
45.1008
46.7615
49.7751
54.1414
59.9848
67.5625
77.3302
90.1171
107.59
44.9762
45.1008
46.7615
49.7752
54.1415
59.9849
67.5626
77.3303
90.1171
107.59
44.9763
45.1009
46.7616
49.7752
54.1416
59.985
67.5626
77.3303
90.1172
107.59
43.3401
44.0984
45.9852
49.0376
53.3145
58.9321
66.0813
75.0425
86.179
99.7846
43.34
44.0984
45.9851
49.0375
53.3144
58.932
66.0812
75.0424
86.1789
99.7845
43.34
44.0983
45.985
49.0375
53.3143
58.9319
66.0811
75.0424
86.1788
99.7844
43.3399
44.0983
45.985
49.0374
53.3143
58.9319
66.0811
75.0423
86.1788
99.7843
43.3399
44.0982
45.9849
49.0374
53.3142
58.9318
66.081
75.0423
86.1788
99.7843
43.3399
44.0982
45.9849
49.0374
53.3142
58.9318
66.081
75.0423
86.1788
99.7843
43.3399
44.0982
45.985
49.0374
53.3143
58.9319
66.0811
75.0423
86.1788
99.7843
43.3399
44.0983
45.985
49.0374
53.3143
58.9319
66.0811
75.0423
86.1788
99.7844
43.34
44.0983
45.985
49.0375
53.3144
58.932
66.0812
75.0424
86.1789
99.7844
43.34
44.0984
45.9851
49.0376
53.3144
58.9321
66.0813
75.0425
86.179
99.7845
41.2389
42.5051
44.6209
47.691
51.7965
57.0287
63.4965
71.3112
80.5217
90.9328
41.2388
42.505
44.6208
47.6909
51.7964
57.0286
63.4964
71.3111
80.5216
90.9327
41.2387
42.5049
44.6207
47.6908
51.7964
57.0285
63.4963
71.311
80.5215
90.9326
41.2387
42.5049
44.6207
47.6907
51.7963
57.0285
63.4963
71.3109
80.5214
90.9325
41.2387
42.5049
44.6206
47.6907
51.7963
57.0284
63.4962
71.3109
80.5214
90.9325
41.2387
42.5049
44.6206
47.6907
51.7963
57.0284
63.4962
71.3109
80.5214
90.9325
41.2387
42.5049
44.6207
47.6907
51.7963
57.0285
63.4962
71.3109
80.5214
90.9325
41.2387
42.5049
44.6207
47.6908
51.7963
57.0285
63.4963
71.311
80.5215
90.9326
41.2388
42.505
44.6207
47.6908
51.7964
57.0286
63.4964
71.311
80.5215
90.9326
41.2388
42.505
44.6208
47.6909
51.7965
57.0287
63.4965
71.3111
80.5216
90.9328
38.9939
40.6036
42.8818
45.9244
49.8015
54.57
60.2728
66.9156
74.415
82.4999
38.9939
40.6035
42.8817
45.9243
49.8014
54.5699
60.2726
66.9155
74.4149
82.4997
38.9938
40.6035
42.8816
45.9243
49.8013
54.5699
60.2726
66.9155
74.4148
82.4997
38.9938
40.6034
42.8816
45.9242
49.8013
54.5698
60.2725
66.9154
74.4147
82.4996
38.9937
40.6034
42.8815
45.9242
49.8012
54.5698
60.2725
66.9154
74.4147
82.4996
38.9937
40.6034
42.8815
45.9242
49.8012
54.5698
60.2725
66.9154
74.4147
82.4996
38.9938
40.6034
42.8815
45.9242
49.8012
54.5698
60.2725
66.9154
74.4147
82.4996
38.9938
40.6034
42.8816
45.9242
49.8013
54.5699
60.2726
66.9154
74.4148
82.4996
38.9938
40.6035
42.8816
45.9243
49.8014
54.5699
60.2726
66.9155
74.4148
82.4997
38.9939
40.6036
42.8817
45.9244
49.8014
54.57
60.2727
66.9156
74.415
82.4998
36.7326
38.5776
40.9583
43.9388
47.5632
51.8562
56.8153
62.3943
68.4737
74.8249
36.7325
38.5775
40.9582
43.9387
47.5632
51.8561
56.8152
62.3942
68.4736
74.8247
36.7325
38.5774
40.9581
43.9386
47.5631
51.856
56.8151
62.3941
68.4735
74.8247
36.7324
38.5774
40.9581
43.9386
47.563
51.856
56.8151
62.394
68.4735
74.8246
36.7324
38.5774
40.9581
43.9385
47.563
51.8559
56.815
62.394
68.4735
74.8246
36.7324
38.5774
40.9581
43.9385
47.563
51.8559
56.815
62.394
68.4735
74.8246
36.7324
38.5774
40.9581
43.9386
47.563
51.856
56.8151
62.394
68.4735
74.8246
36.7325
38.5774
40.9581
43.9386
47.5631
51.856
56.8151
62.3941
68.4735
74.8247
36.7325
38.5775
40.9582
43.9387
47.5631
51.8561
56.8152
62.3942
68.4736
74.8247
36.7326
38.5776
40.9583
43.9388
47.5632
51.8562
56.8153
62.3943
68.4737
74.8249
34.5307
36.5601
39.0146
41.923
45.303
49.1529
53.4421
58.1006
63.0098
67.9988
34.5306
36.5601
39.0145
41.9229
45.3029
49.1528
53.442
58.1005
63.0097
67.9987
34.5305
36.56
39.0144
41.9228
45.3029
49.1528
53.4419
58.1004
63.0097
67.9986
34.5305
36.56
39.0144
41.9228
45.3028
49.1527
53.4418
58.1004
63.0096
67.9985
34.5305
36.5599
39.0144
41.9227
45.3028
49.1527
53.4418
58.1004
63.0096
67.9985
34.5305
36.5599
39.0144
41.9227
45.3028
49.1527
53.4418
58.1004
63.0096
67.9985
34.5305
36.56
39.0144
41.9228
45.3028
49.1527
53.4418
58.1004
63.0096
67.9985
34.5305
36.56
39.0144
41.9228
45.3029
49.1528
53.4419
58.1004
63.0097
67.9986
34.5306
36.56
39.0145
41.9229
45.3029
49.1528
53.4419
58.1005
63.0097
67.9987
34.5307
36.5601
39.0146
41.923
45.303
49.1529
53.4421
58.1006
63.0098
67.9988
32.4447
34.6601
37.1943
40.047
43.2169
46.6843
50.4003
54.2811
58.2114
62.0626
32.4446
34.6601
37.1942
40.0469
43.2168
46.6842
50.4002
54.281
58.2113
62.0625
32.4446
34.66
37.1942
40.0469
43.2167
46.6841
50.4001
54.2809
58.2112
62.0624
32.4445
34.66
37.1941
40.0468
43.2167
46.6841
50.4
54.2809
58.2112
62.0624
32.4445
34.6599
37.1941
40.0468
43.2167
46.6841
50.4
54.2808
58.2111
62.0624
32.4445
34.6599
37.1941
40.0468
43.2167
46.6841
50.4
54.2808
58.2111
62.0624
32.4445
34.66
37.1941
40.0468
43.2167
46.6841
50.4001
54.2809
58.2112
62.0624
32.4446
34.66
37.1942
40.0469
43.2167
46.6841
50.4001
54.2809
58.2112
62.0624
32.4446
34.6601
37.1942
40.0469
43.2168
46.6842
50.4002
54.281
58.2113
62.0625
32.4447
34.6601
37.1943
40.047
43.2169
46.6843
50.4003
54.2811
58.2114
62.0626
30.5233
32.9799
35.6296
38.4623
41.474
44.6377
47.8909
51.1326
54.2321
57.0651
30.5232
32.9799
35.6295
38.4622
41.4739
44.6376
47.8908
51.1325
54.232
57.065
30.5232
32.9798
35.6294
38.4622
41.4739
44.6375
47.8907
51.1324
54.232
57.0649
30.5232
32.9798
35.6294
38.4621
41.4738
44.6375
47.8907
51.1324
54.2319
57.0648
30.5231
32.9798
35.6294
38.4621
41.4738
44.6374
47.8906
51.1323
54.2319
57.0648
30.5231
32.9798
35.6294
38.4621
41.4738
44.6374
47.8906
51.1323
54.2319
57.0648
30.5232
32.9798
35.6294
38.4621
41.4738
44.6375
47.8907
51.1324
54.2319
57.0649
30.5232
32.9798
35.6294
38.4622
41.4739
44.6375
47.8907
51.1324
54.232
57.0649
30.5232
32.9799
35.6295
38.4623
41.474
44.6376
47.8908
51.1325
54.232
57.065
30.5233
32.98
35.6296
38.4623
41.474
44.6377
47.8909
51.1326
54.2322
57.0651
28.8307
31.6399
34.4517
37.3038
40.217
43.1689
46.0866
48.8422
51.2539
53.1139
28.8307
31.6399
34.4517
37.3038
40.2169
43.1688
46.0865
48.8421
51.2538
53.1138
28.8306
31.6398
34.4516
37.3037
40.2168
43.1687
46.0864
48.842
51.2538
53.1138
28.8306
31.6398
34.4516
37.3037
40.2168
43.1687
46.0864
48.842
51.2537
53.1137
28.8306
31.6398
34.4516
37.3036
40.2168
43.1686
46.0864
48.842
51.2537
53.1137
28.8306
31.6398
34.4516
37.3036
40.2168
43.1686
46.0864
48.842
51.2537
53.1137
28.8306
31.6398
34.4516
37.3037
40.2168
43.1687
46.0864
48.842
51.2537
53.1137
28.8306
31.6398
34.4516
37.3037
40.2168
43.1687
46.0864
48.8421
51.2538
53.1138
28.8307
31.6399
34.4517
37.3038
40.2169
43.1688
46.0865
48.8421
51.2538
53.1139
28.8308
31.64
34.4518
37.3039
40.217
43.1689
46.0866
48.8423
51.254
53.114
27.5566
30.8246
33.7998
36.6865
39.5563
42.399
45.1349
47.608
49.5565
50.5332
27.5566
30.8245
33.7997
36.6864
39.5562
42.3989
45.1348
47.6079
49.5565
50.5331
27.5565
30.8245
33.7997
36.6864
39.5561
42.3988
45.1348
47.6078
49.5564
50.533
27.5565
30.8245
33.7996
36.6864
39.5561
42.3988
45.1347
47.6078
49.5563
50.533
27.5565
30.8244
33.7996
36.6863
39.5561
42.3988
45.1347
47.6078
49.5563
50.533
27.5565
30.8244
33.7996
36.6863
39.5561
42.3988
45.1347
47.6078
49.5563
50.533
27.5565
30.8245
33.7997
36.6864
39.5561
42.3988
45.1347
47.6078
49.5564
50.533
27.5565
30.8245
33.7997
36.6864
39.5562
42.3988
45.1348
47.6078
49.5564
50.5331
27.5566
30.8246
33.7998
36.6865
39.5562
42.3989
45.1349
47.6079
49.5565
50.5331
27.5567
30.8246
33.7998
36.6866
39.5563
42.399
45.135
47.608
49.5566
50.5332
133.626
146.121
153.861
159.333
163.419
166.511
168.817
170.463
171.524
172.044
133.626
146.121
153.86
159.333
163.419
166.511
168.817
170.463
171.523
172.043
133.626
146.12
153.86
159.333
163.419
166.511
168.817
170.463
171.523
172.043
133.626
146.12
153.86
159.333
163.419
166.51
168.817
170.463
171.523
172.043
133.626
146.12
153.86
159.333
163.419
166.51
168.817
170.463
171.523
172.043
133.626
146.12
153.86
159.333
163.419
166.51
168.817
170.463
171.523
172.043
133.626
146.12
153.86
159.333
163.419
166.51
168.817
170.463
171.523
172.043
133.626
146.12
153.86
159.333
163.419
166.511
168.817
170.463
171.523
172.043
133.626
146.12
153.86
159.333
163.419
166.511
168.817
170.463
171.523
172.043
133.626
146.121
153.86
159.333
163.419
166.511
168.817
170.463
171.524
172.044
115.198
126.46
134.479
140.346
144.735
148.038
150.488
152.227
153.345
153.892
115.198
126.46
134.479
140.346
144.735
148.038
150.488
152.227
153.345
153.892
115.198
126.46
134.479
140.346
144.735
148.038
150.488
152.227
153.345
153.892
115.198
126.46
134.479
140.346
144.734
148.038
150.488
152.227
153.345
153.892
115.198
126.46
134.479
140.345
144.734
148.038
150.488
152.227
153.345
153.892
115.198
126.46
134.479
140.345
144.734
148.038
150.488
152.227
153.345
153.892
115.198
126.46
134.479
140.346
144.734
148.038
150.488
152.227
153.345
153.892
115.198
126.46
134.479
140.346
144.735
148.038
150.488
152.227
153.345
153.892
115.198
126.46
134.479
140.346
144.735
148.038
150.488
152.227
153.345
153.892
115.198
126.46
134.479
140.346
144.735
148.038
150.488
152.227
153.345
153.892
101.692
110.818
118.033
123.624
127.931
131.218
133.673
135.422
136.547
137.098
101.691
110.818
118.033
123.624
127.931
131.218
133.673
135.421
136.547
137.098
101.691
110.818
118.033
123.624
127.931
131.218
133.673
135.421
136.547
137.098
101.691
110.818
118.033
123.624
127.93
131.218
133.672
135.421
136.547
137.098
101.691
110.818
118.033
123.624
127.93
131.218
133.672
135.421
136.547
137.098
101.691
110.818
118.033
123.624
127.93
131.218
133.672
135.421
136.547
137.098
101.691
110.818
118.033
123.624
127.93
131.218
133.672
135.421
136.547
137.098
101.691
110.818
118.033
123.624
127.931
131.218
133.673
135.421
136.547
137.098
101.691
110.818
118.033
123.624
127.931
131.218
133.673
135.422
136.547
137.098
101.691
110.818
118.033
123.624
127.931
131.218
133.673
135.422
136.547
137.098
90.5947
97.8755
104.007
108.992
112.956
116.046
118.385
120.064
121.15
121.683
90.5946
97.8754
104.007
108.991
112.956
116.046
118.384
120.064
121.15
121.683
90.5945
97.8753
104.007
108.991
112.956
116.046
118.384
120.064
121.15
121.683
90.5944
97.8752
104.007
108.991
112.956
116.046
118.384
120.064
121.15
121.683
90.5944
97.8752
104.007
108.991
112.956
116.046
118.384
120.064
121.15
121.683
90.5944
97.8752
104.007
108.991
112.956
116.046
118.384
120.064
121.15
121.683
90.5944
97.8752
104.007
108.991
112.956
116.046
118.384
120.064
121.15
121.683
90.5945
97.8753
104.007
108.991
112.956
116.046
118.384
120.064
121.15
121.683
90.5946
97.8754
104.007
108.991
112.956
116.046
118.385
120.064
121.15
121.683
90.5947
97.8755
104.007
108.992
112.956
116.046
118.385
120.064
121.15
121.683
81.0935
86.8751
91.9309
96.1895
99.6757
102.452
104.585
106.134
107.142
107.639
81.0934
86.875
91.9308
96.1894
99.6756
102.452
104.585
106.133
107.142
107.639
81.0933
86.8749
91.9307
96.1893
99.6755
102.451
104.585
106.133
107.142
107.639
81.0932
86.8748
91.9307
96.1893
99.6754
102.451
104.585
106.133
107.142
107.639
81.0932
86.8748
91.9306
96.1892
99.6754
102.451
104.585
106.133
107.142
107.639
81.0932
86.8748
91.9306
96.1892
99.6754
102.451
104.585
106.133
107.142
107.639
81.0932
86.8748
91.9307
96.1893
99.6754
102.451
104.585
106.133
107.142
107.639
81.0933
86.8749
91.9307
96.1893
99.6755
102.451
104.585
106.133
107.142
107.639
81.0934
86.875
91.9308
96.1894
99.6756
102.452
104.585
106.133
107.142
107.639
81.0935
86.8751
91.9309
96.1895
99.6757
102.452
104.585
106.134
107.142
107.639
72.8602
77.3936
81.4554
84.9721
87.9247
90.3256
92.2007
93.5782
94.4822
94.9299
72.8601
77.3935
81.4553
84.972
87.9246
90.3255
92.2006
93.5781
94.4821
94.9298
72.86
77.3934
81.4552
84.9719
87.9245
90.3254
92.2005
93.578
94.482
94.9298
72.8599
77.3933
81.4551
84.9719
87.9244
90.3253
92.2004
93.5779
94.482
94.9297
72.8599
77.3933
81.4551
84.9718
87.9244
90.3253
92.2004
93.5779
94.482
94.9297
72.8599
77.3933
81.4551
84.9718
87.9244
90.3253
92.2004
93.5779
94.482
94.9297
72.8599
77.3933
81.4551
84.9719
87.9245
90.3253
92.2004
93.578
94.482
94.9297
72.86
77.3934
81.4552
84.9719
87.9245
90.3254
92.2005
93.578
94.4821
94.9298
72.8601
77.3935
81.4553
84.972
87.9246
90.3255
92.2006
93.5781
94.4822
94.9299
72.8602
77.3936
81.4554
84.9721
87.9247
90.3256
92.2007
93.5783
94.4823
94.93
65.7315
69.1722
72.3235
75.1261
77.54
79.5458
81.1395
82.3255
83.1107
83.5015
65.7314
69.1721
72.3234
75.126
77.5398
79.5457
81.1394
82.3254
83.1106
83.5014
65.7313
69.172
72.3233
75.1259
77.5397
79.5456
81.1393
82.3253
83.1105
83.5014
65.7313
69.172
72.3232
75.1259
77.5397
79.5455
81.1393
82.3252
83.1105
83.5013
65.7313
69.1719
72.3232
75.1258
77.5397
79.5455
81.1393
82.3252
83.1104
83.5013
65.7313
69.1719
72.3232
75.1258
77.5397
79.5455
81.1393
82.3252
83.1104
83.5013
65.7313
69.172
72.3233
75.1259
77.5397
79.5455
81.1393
82.3253
83.1105
83.5013
65.7313
69.172
72.3233
75.1259
77.5398
79.5456
81.1394
82.3253
83.1105
83.5014
65.7314
69.1721
72.3234
75.126
77.5399
79.5457
81.1395
82.3254
83.1106
83.5015
65.7315
69.1722
72.3235
75.1262
77.54
79.5458
81.1396
82.3255
83.1108
83.5016
59.6005
62.0205
64.3297
66.4662
68.3672
69.9877
71.3004
72.2912
72.9535
73.285
59.6004
62.0204
64.3296
66.4661
68.3671
69.9876
71.3003
72.2911
72.9534
73.285
59.6003