/*--------------------------------*- C++ -*----------------------------------*\
  =========                 |
  \\      /  F ield         | OpenFOAM: The Open Source CFD Toolbox
   \\    /   O peration     | Website:  https://openfoam.org
    \\  /    A nd           | Version:  6
     \\/     M anipulation  |
\*---------------------------------------------------------------------------*/
FoamFile
{
    version     2.0;
    format      ascii;
    class       volScalarField;
    location    "1200";
    object      p;
}
// * * * * * * * * * * * * * * * * * * * * * * * * * * * * * * * * * * * * * //

dimensions      [0 2 -2 0 0 0 0];

internalField   nonuniform List<scalar> 
7000
(
0.0406264
0.0384132
0.037915
0.0377189
0.0376495
0.0377135
0.0379049
0.0382049
0.0387846
0.0411006
0.0383545
0.0361379
0.0356393
0.0354409
0.0353685
0.035429
0.035617
0.0359137
0.0364894
0.0388038
0.0378058
0.0355888
0.0350884
0.0348879
0.0348127
0.0348701
0.0350547
0.0353482
0.0359214
0.0382311
0.0375413
0.0353222
0.0348197
0.0346163
0.0345372
0.0345901
0.03477
0.0350591
0.0356284
0.0379328
0.0373879
0.0351658
0.0346607
0.0344535
0.0343697
0.034417
0.0345911
0.0348747
0.0354391
0.0377369
0.0373597
0.0351346
0.0346265
0.0344153
0.0343263
0.0343675
0.0345352
0.0348127
0.0353718
0.0376623
0.0374598
0.0352317
0.0347209
0.0345057
0.0344115
0.0344468
0.0346083
0.0348801
0.0354339
0.0377173
0.0376796
0.0354488
0.0349354
0.0347168
0.0346183
0.0346486
0.0348049
0.0350718
0.0356212
0.0378988
0.038194
0.03596
0.035445
0.0352237
0.0351218
0.0351483
0.0353006
0.0355637
0.0361096
0.0383839
0.0404253
0.0381905
0.0376721
0.0374476
0.0373418
0.0373639
0.0375114
0.0377703
0.0383137
0.0405824
0.0376724
0.0362898
0.0363338
0.036144
0.0360761
0.0361446
0.0363443
0.0366489
0.0366849
0.038183
0.0362281
0.0348432
0.0348889
0.0346961
0.0346251
0.0346903
0.0348867
0.0351888
0.035219
0.0367153
0.0362235
0.0348401
0.0348832
0.0346882
0.0346143
0.034676
0.034869
0.0351675
0.0351959
0.0366853
0.0359604
0.0345742
0.0346151
0.0344169
0.0343387
0.0343955
0.0345831
0.0348762
0.0349002
0.0363846
0.0358033
0.0344141
0.0344522
0.0342499
0.0341663
0.0342168
0.0343977
0.0346843
0.0347027
0.0361798
0.0357741
0.0343817
0.0344167
0.0342099
0.0341205
0.0341642
0.0343377
0.034617
0.0346293
0.036098
0.0358755
0.0344801
0.0345122
0.0343009
0.0342058
0.0342428
0.0344092
0.0346815
0.0346878
0.0361481
0.0360911
0.0346936
0.0347231
0.0345078
0.0344079
0.0344392
0.0345994
0.034866
0.0348672
0.03632
0.0360621
0.0346594
0.0346879
0.0344698
0.0343664
0.0343936
0.0345495
0.0348117
0.0348084
0.0362599
0.0374655
0.0360612
0.0360845
0.0358638
0.0357564
0.0357791
0.0359299
0.036187
0.0361834
0.03763
0.0351941
0.0344119
0.0347813
0.0346137
0.0346104
0.0346903
0.0348484
0.0351537
0.0348735
0.0358048
0.0343397
0.0335587
0.0339317
0.0337597
0.0337531
0.0338291
0.0339832
0.0342868
0.0339985
0.0349256
0.0346595
0.0338819
0.0342513
0.0340771
0.034067
0.0341392
0.0342892
0.0345885
0.0342989
0.0352161
0.0344095
0.0336275
0.0339947
0.0338168
0.0338016
0.0338677
0.0340109
0.0343034
0.0340078
0.034919
0.0343057
0.0335204
0.0338843
0.0337015
0.0336797
0.0337379
0.0338725
0.0341561
0.0338532
0.0347533
0.0342744
0.0334852
0.0338456
0.0336574
0.0336283
0.0336779
0.0338027
0.0340765
0.0337651
0.0346524
0.0343183
0.0335251
0.0338822
0.0336886
0.0336526
0.0336936
0.033809
0.0340731
0.0337534
0.0346285
0.0345174
0.0337224
0.0340764
0.0338779
0.0338359
0.0338698
0.0339771
0.0342335
0.0339074
0.0347705
0.034164
0.0333614
0.0337152
0.0335132
0.0334672
0.0334963
0.0335982
0.0338496
0.033517
0.0343789
0.0349728
0.0341644
0.0345103
0.0343061
0.034255
0.0342783
0.0343744
0.0346183
0.0342865
0.0351466
0.033902
0.0333554
0.0337511
0.0335805
0.0336609
0.033761
0.0338746
0.0342233
0.0339411
0.0346921
0.0332691
0.0327262
0.0331257
0.0329492
0.0330264
0.0331218
0.0332302
0.0335784
0.0332879
0.0340336
0.0336093
0.03307
0.0334647
0.0332858
0.0333586
0.0334491
0.0335522
0.0338944
0.033603
0.0343367
0.033341
0.0327956
0.0331878
0.0330041
0.0330701
0.0331523
0.0332462
0.0335786
0.0332782
0.0340029
0.0333021
0.032753
0.0331411
0.0329507
0.0330078
0.0330792
0.0331604
0.0334794
0.0331673
0.0338728
0.0332672
0.0327131
0.0330967
0.0328991
0.0329464
0.0330055
0.0330723
0.033376
0.0330501
0.0337337
0.0332394
0.0326792
0.0330587
0.0328541
0.0328918
0.032939
0.0329918
0.0332805
0.0329412
0.0336044
0.0334508
0.0328889
0.0332639
0.0330529
0.0330827
0.0331198
0.0331611
0.0334379
0.0330887
0.0337321
0.0330748
0.0325038
0.0328792
0.0326635
0.0326881
0.0327188
0.0327526
0.0330223
0.0326636
0.0333037
0.0336551
0.0330748
0.0334409
0.0332228
0.03324
0.0332634
0.0332901
0.0335494
0.0331916
0.03383
0.0330011
0.0325721
0.0329198
0.0327481
0.0328953
0.0330246
0.0331289
0.0335378
0.0333461
0.0340596
0.032469
0.0320453
0.0323962
0.0322169
0.032361
0.0324854
0.0325838
0.0329948
0.0327972
0.0335123
0.0327516
0.0323307
0.0326752
0.0324931
0.0326313
0.0327491
0.0328408
0.033244
0.0330454
0.0337485
0.0324608
0.0320318
0.0323734
0.0321845
0.0323134
0.0324197
0.032498
0.0328872
0.0326746
0.0333634
0.0324619
0.0320286
0.0323644
0.0321665
0.032283
0.0323735
0.0324326
0.0328004
0.0325679
0.033223
0.0324222
0.0319821
0.032312
0.0321041
0.0322067
0.0322792
0.0323162
0.0326589
0.0324023
0.0330174
0.0323447
0.0318962
0.0322206
0.032003
0.0320921
0.0321472
0.0321627
0.0324814
0.0322013
0.0327797
0.03257
0.0321192
0.0324375
0.0322116
0.0322895
0.0323303
0.0323286
0.0326283
0.0323321
0.0328776
0.0322473
0.0317868
0.0321057
0.0318733
0.0319444
0.0319763
0.0319638
0.0322535
0.0319431
0.0324777
0.0327188
0.0322456
0.0325547
0.0323193
0.0323805
0.0324029
0.0323821
0.0326583
0.0323459
0.0328816
0.0320039
0.0316948
0.0320253
0.0318795
0.0320807
0.0322487
0.032376
0.0328419
0.0327306
0.033448
0.0315724
0.0312706
0.0316034
0.0314489
0.0316474
0.0318111
0.0319342
0.0324088
0.032301
0.0330398
0.0318253
0.0315251
0.0318503
0.031692
0.0318828
0.0320382
0.0321533
0.0326186
0.0325115
0.0332433
0.0315341
0.0312239
0.0315453
0.0313778
0.031556
0.0316956
0.0317914
0.0322363
0.0321079
0.0328174
0.0315554
0.0312396
0.0315531
0.0313734
0.0315342
0.0316507
0.0317172
0.032127
0.0319633
0.0326107
0.0315098
0.0311852
0.0314907
0.0312972
0.0314383
0.0315282
0.0315601
0.0319277
0.0317195
0.0322885
0.0314007
0.0310649
0.0313632
0.0311563
0.0312784
0.0313427
0.0313415
0.0316692
0.0314195
0.031917
0.0316162
0.0312768
0.0315669
0.0313491
0.0314556
0.0314996
0.0314728
0.0317705
0.0314928
0.0319341
0.0313178
0.030968
0.0312584
0.031032
0.0311295
0.0311612
0.0311191
0.0314015
0.0311036
0.0315266
0.0316796
0.0313136
0.0315935
0.0313631
0.0314482
0.0314684
0.0314164
0.0316832
0.0313849
0.0318096
0.0309257
0.0307308
0.031059
0.0309571
0.0312082
0.0314243
0.031599
0.0321299
0.0321152
0.0329038
0.0305866
0.0304012
0.0307308
0.0306199
0.0308692
0.0310835
0.0312603
0.0318143
0.0318261
0.0326945
0.0308226
0.0306373
0.0309581
0.0308424
0.0310821
0.0312865
0.0314544
0.0320004
0.0320194
0.0329026
0.0305449
0.0303479
0.0306636
0.0305355
0.0307587
0.0309416
0.0310827
0.0315995
0.0315873
0.0324389
0.030576
0.0303714
0.0306767
0.0305323
0.0307313
0.0308809
0.030977
0.0314361
0.0313588
0.0320881
0.0305239
0.0303078
0.0306024
0.0304393
0.0306106
0.0307211
0.0307629
0.0311509
0.0309884
0.0315544
0.0303922
0.0301618
0.030447
0.0302656
0.0304104
0.0304837
0.0304748
0.0307975
0.030559
0.0309802
0.030583
0.0303469
0.0306217
0.030426
0.0305496
0.0305944
0.0305484
0.0308249
0.0305405
0.0308651
0.0302956
0.0300484
0.0303227
0.0301161
0.0302282
0.030257
0.03019
0.0304461
0.0301357
0.0304265
0.0305556
0.0302882
0.0305516
0.0303397
0.0304372
0.030453
0.0303768
0.030619
0.030308
0.0306159
0.0298637
0.0297574
0.0300746
0.030019
0.0303156
0.0305863
0.0308292
0.0314544
0.0315904
0.0325718
0.0295902
0.0294954
0.029813
0.0297489
0.030046
0.0303209
0.0305796
0.0312591
0.0314766
0.0326839
0.0298
0.0297034
0.0300112
0.0299413
0.0302269
0.0304911
0.0307427
0.0314222
0.0316711
0.032986
0.0295361
0.0294261
0.0297273
0.0296415
0.0299062
0.0301424
0.0303582
0.0309966
0.0312025
0.0324848
0.029569
0.0294489
0.0297368
0.0296295
0.0298613
0.0300502
0.0301975
0.0307392
0.0308152
0.0318337
0.0295102
0.0293754
0.0296494
0.0295173
0.0297108
0.0298429
0.0299058
0.0303244
0.0302299
0.0308708
0.0293638
0.0292112
0.0294732
0.0293169
0.0294743
0.0295536
0.0295397
0.0298506
0.0296154
0.0299467
0.0295295
0.0293686
0.0296176
0.0294432
0.0295727
0.0296135
0.0295473
0.0297894
0.0294811
0.029645
0.0292627
0.0290901
0.0293377
0.02915
0.0292653
0.0292858
0.0291932
0.0294091
0.0290707
0.0291957
0.0294478
0.0292515
0.0294882
0.0292939
0.0293936
0.0294019
0.0293039
0.0295156
0.0291967
0.0293702
0.028822
0.0287819
0.0290808
0.0290694
0.0294047
0.0297314
0.0300535
0.0307953
0.0311372
0.0324605
0.0285918
0.028565
0.0288632
0.0288449
0.0291846
0.029526
0.0298884
0.030738
0.0312658
0.0331272
0.0287686
0.0287379
0.0290256
0.0290002
0.0293272
0.0296586
0.0300203
0.0308898
0.0315165
0.0337476
0.0285166
0.0284707
0.0287501
0.0287053
0.0290063
0.0293029
0.0296191
0.0304353
0.0310012
0.0332242
0.0285446
0.0284856
0.0287484
0.028676
0.0289331
0.0291637
0.029378
0.0300348
0.0303457
0.0319742
0.0284793
0.0284019
0.0286473
0.0285425
0.028748
0.0288978
0.0289831
0.0294342
0.0294097
0.0301743
0.0283254
0.0282267
0.0284569
0.0283211
0.028479
0.0285559
0.0285281
0.0288085
0.0285326
0.02865
0.0284686
0.0283585
0.0285733
0.028415
0.0285378
0.0285653
0.0284679
0.0286539
0.028277
0.0281323
0.02823
0.0281079
0.0283203
0.0281467
0.0282529
0.0282569
0.0281295
0.0282915
0.0279016
0.0277513
0.0283635
0.0282149
0.0284172
0.0282365
0.0283287
0.0283255
0.0282063
0.0283919
0.0280648
0.0280701
0.0277605
0.0277736
0.0280533
0.0280826
0.0284456
0.0288179
0.0292064
0.0300531
0.0307128
0.0324651
0.0275624
0.0275904
0.0278689
0.0278939
0.028267
0.0286691
0.0291327
0.0301695
0.0311998
0.0341168
0.0277088
0.0277307
0.0279983
0.0280155
0.0283754
0.028771
0.0292502
0.0303534
0.0316501
0.0358742
0.0274699
0.0274752
0.027733
0.0277277
0.0280571
0.0284121
0.0288395
0.0298793
0.0310816
0.0353904
0.02749
0.0274789
0.0277168
0.0276773
0.0279507
0.0282171
0.0284985
0.0292846
0.0299751
0.0328922
0.0274193
0.027386
0.0276029
0.0275229
0.0277295
0.0278859
0.0279776
0.028434
0.028468
0.0292777
0.0272633
0.0272051
0.0274039
0.0272858
0.0274327
0.0274938
0.0274282
0.0276274
0.027228
0.0266724
0.0273847
0.027312
0.0274933
0.0273488
0.0274542
0.027457
0.0273074
0.0273895
0.0268755
0.0259757
0.0271735
0.0270888
0.0272668
0.0271055
0.027193
0.0271719
0.026995
0.0270652
0.0266097
0.0258571
0.0272685
0.0271551
0.0273246
0.027157
0.027235
0.0272184
0.0270732
0.0272202
0.0269533
0.0266197
0.0266562
0.0267136
0.026975
0.0270398
0.0274157
0.0278117
0.0282264
0.0290653
0.0298268
0.0319807
0.026485
0.026559
0.026819
0.0268829
0.0272754
0.0277168
0.0282438
0.0293445
0.0305859
0.0344434
0.0266063
0.0266724
0.0269216
0.0269774
0.0273575
0.0277982
0.0283681
0.0296125
0.0313033
0.0380184
0.0263831
0.0264316
0.0266699
0.0267008
0.0270469
0.0274421
0.0279588
0.0291421
0.0306161
0.037439
0.0263948
0.0264236
0.0266393
0.0266298
0.0269075
0.0271895
0.0275073
0.0283371
0.0290274
0.0332399
0.0263206
0.0263236
0.026515
0.026457
0.0266527
0.0267939
0.0268507
0.0272058
0.0269848
0.0273062
0.0261666
0.0261415
0.0263123
0.0262099
0.0263346
0.0263605
0.0262144
0.0262193
0.0254658
0.0235336
0.0262668
0.0262243
0.0263763
0.0262444
0.0263236
0.0262876
0.0260539
0.0259372
0.0251572
0.0231157
0.0260801
0.0260259
0.026174
0.0260246
0.026086
0.0260298
0.0257815
0.0256863
0.0251167
0.0239341
0.026145
0.0260609
0.0262029
0.0260496
0.0261098
0.0260768
0.0259031
0.025965
0.0258004
0.0257533
0.0255044
0.0255979
0.0258394
0.0259303
0.0262989
0.0266766
0.0270278
0.0276141
0.0276931
0.0283585
0.0253565
0.0254684
0.0257086
0.0258025
0.0261925
0.0266237
0.0270951
0.0279358
0.0282591
0.029933
0.0254577
0.0255601
0.0257904
0.0258768
0.0262563
0.0266909
0.0272232
0.028265
0.0288786
0.0333812
0.025252
0.0253367
0.025556
0.0256169
0.0259618
0.0263481
0.0268267
0.0278375
0.0280665
0.0320904
0.025257
0.0253193
0.0255145
0.0255304
0.0257984
0.0260558
0.0263041
0.0269423
0.0265148
0.0276552
0.0251821
0.0252158
0.0253846
0.0253464
0.025522
0.0256221
0.0255753
0.0256945
0.024709
0.0224691
0.025034
0.0250374
0.0251843
0.0250975
0.0251959
0.025174
0.0249155
0.0246708
0.023416
0.0198815
0.0251158
0.0250995
0.0252274
0.02511
0.0251628
0.0250859
0.0247679
0.0244509
0.0233923
0.0210652
0.0249522
0.0249247
0.0250486
0.024914
0.0249502
0.0248605
0.0245587
0.0243178
0.0236094
0.0234439
0.0249945
0.0249366
0.0250575
0.0249224
0.0249676
0.0249231
0.0247483
0.0247456
0.0245633
0.0263136
0.0243038
0.024426
0.0246456
0.0247547
0.0251016
0.0254323
0.0256656
0.0259573
0.0253714
0.0244038
0.0241771
0.0243196
0.0245384
0.0246541
0.0250257
0.0254106
0.0257521
0.0262618
0.0257896
0.025511
0.0242621
0.0243944
0.0246051
0.0247149
0.0250795
0.0254703
0.0258727
0.0266326
0.0263722
0.0287131
0.0240757
0.024191
0.0243917
0.0244777
0.0248109
0.0251555
0.0254946
0.0262715
0.0256177
0.0267104
0.0240768
0.0241682
0.024345
0.0243849
0.0246399
0.0248567
0.0249659
0.0254133
0.0244401
0.0228811
0.0240048
0.0240662
0.0242167
0.0242008
0.0243617
0.024428
0.0242687
0.0242341
0.0231531
0.019492
0.0238669
0.0238971
0.0240263
0.023961
0.0240446
0.0239969
0.0236579
0.0232789
0.0221047
0.0179329
0.0239345
0.0239434
0.0240547
0.0239598
0.0240008
0.0239078
0.0235439
0.023124
0.0219517
0.0188517
0.0237938
0.0237925
0.0238999
0.0237881
0.0238132
0.0237076
0.0233766
0.023059
0.0219033
0.0207301
0.0238206
0.0237888
0.0238964
0.0237876
0.0238301
0.0237814
0.0236099
0.0235728
0.0227295
0.0235525
0.0230518
0.0231974
0.0233958
0.0235223
0.023855
0.0241674
0.0243509
0.024539
0.0239209
0.0223162
0.0229453
0.0231134
0.0233123
0.0234504
0.0238134
0.0241869
0.0244862
0.0249087
0.0243679
0.0230086
0.0230185
0.0231765
0.0233699
0.0235056
0.0238695
0.0242611
0.0246306
0.0254015
0.0252496
0.0266186
0.0228531
0.0229961
0.023182
0.0232978
0.0236383
0.0239961
0.0242996
0.0251484
0.0248566
0.0250211
0.0228539
0.022973
0.0231372
0.0232092
0.023476
0.023718
0.0238082
0.0243355
0.0239204
0.0216289
0.0227889
0.022878
0.0230181
0.0230364
0.0232126
0.0233181
0.0231834
0.0232118
0.022769
0.018892
0.0226655
0.022724
0.0228448
0.0228153
0.0229158
0.0229124
0.0226241
0.0222836
0.0217425
0.0178297
0.0227233
0.0227599
0.0228651
0.0228075
0.0228666
0.0228148
0.0224953
0.0220976
0.0212738
0.0179652
0.0226055
0.0226333
0.0227345
0.0226597
0.0226999
0.0226202
0.0223019
0.0220165
0.0208288
0.0186707
0.0226231
0.0226206
0.022725
0.0226546
0.0227162
0.0226888
0.0225202
0.0225438
0.0213554
0.0208302
0.0217438
0.0219081
0.0220869
0.0222353
0.0225728
0.0229254
0.0231934
0.0234816
0.0232666
0.0218102
0.0216579
0.0218475
0.0220292
0.0221966
0.0225765
0.0230095
0.0234242
0.0240233
0.0240284
0.0228251
0.0217236
0.0219042
0.0220846
0.0222554
0.0226503
0.0231305
0.0236483
0.0247286
0.0256314
0.0281014
0.0215814
0.0217503
0.0219272
0.0220845
0.0224685
0.0229432
0.0234197
0.0246536
0.0258544
0.0283961
0.0215863
0.0217328
0.0218921
0.0220106
0.0223277
0.0227009
0.0229779
0.0238426
0.0248269
0.0249096
0.0215326
0.021651
0.0217902
0.0218597
0.0220906
0.0223306
0.0224023
0.0226855
0.0233004
0.0212892
0.0214276
0.0215176
0.0216411
0.0216664
0.0218229
0.0219475
0.0218731
0.0217246
0.0219346
0.019254
0.0214802
0.0215489
0.0216597
0.021659
0.0217743
0.0218378
0.0217029
0.0214672
0.0212151
0.0183436
0.0213853
0.0214467
0.0215534
0.0215344
0.0216265
0.0216431
0.0214491
0.0213374
0.0206135
0.0180558
0.0213986
0.0214306
0.0215429
0.0215277
0.0216424
0.0216991
0.02161
0.0218498
0.0209783
0.0196816
0.0203783
0.0205539
0.0207122
0.0208835
0.021235
0.021661
0.0221137
0.0226335
0.0229631
0.0218454
0.0203135
0.0205177
0.0206821
0.0208806
0.0212906
0.0218252
0.0224629
0.0233794
0.0242265
0.0242471
0.0203751
0.0205726
0.0207406
0.0209493
0.0213912
0.0220143
0.022807
0.0243327
0.0268164
0.0328786
0.0202577
0.0204478
0.0206175
0.020821
0.0212668
0.0219229
0.022733
0.0244946
0.0275959
0.0359473
0.0202706
0.0204413
0.0205989
0.0207706
0.0211569
0.0217192
0.0223335
0.0236426
0.0260336
0.0313029
0.0202319
0.0203781
0.020521
0.0206506
0.0209559
0.0213745
0.0217791
0.0224179
0.0239191
0.0256019
0.0201488
0.0202708
0.0204027
0.0204945
0.0207303
0.0210207
0.0212748
0.0214232
0.0221457
0.0213342
0.0202007
0.0203036
0.020427
0.0204972
0.0206964
0.0209176
0.0210792
0.0211122
0.0213262
0.019065
0.0201282
0.0202265
0.0203467
0.0203991
0.0205743
0.0207421
0.0207841
0.0209444
0.0208539
0.018078
0.0201428
0.0202129
0.0203416
0.0203974
0.0205972
0.0208035
0.0208999
0.021462
0.0213131
0.0197256
0.0189529
0.019126
0.0192541
0.0194333
0.0197799
0.0202499
0.0208874
0.0216789
0.0228147
0.0227252
0.0189095
0.0191146
0.0192516
0.0194638
0.0198801
0.0204819
0.0213226
0.0225217
0.0242445
0.0265232
0.0189699
0.019171
0.0193165
0.0195444
0.0200043
0.0207316
0.0217831
0.0236238
0.0274614
0.038928
0.0188785
0.0190773
0.0192304
0.0194624
0.0199394
0.0207333
0.0218665
0.0239969
0.0284258
0.0443587
0.018903
0.0190872
0.0192352
0.0194444
0.0198711
0.0205706
0.0214965
0.023117
0.0260087
0.0370828
0.0188827
0.0190483
0.0191885
0.0193667
0.0197257
0.0202758
0.020984
0.0219693
0.0235834
0.0288667
0.0188247
0.0189728
0.0191091
0.0192613
0.0195691
0.0199951
0.020563
0.0211201
0.0219729
0.0227245
0.0188799
0.0190135
0.019148
0.019288
0.0195756
0.0199469
0.0204225
0.0208752
0.0215337
0.0195706
0.0188298
0.0189623
0.0190958
0.0192216
0.019491
0.019826
0.0201596
0.0207054
0.0215105
0.0187744
0.0188491
0.0189566
0.0191028
0.019234
0.019534
0.0199252
0.0202829
0.0212384
0.0222406
0.0210404
0.0174714
0.0176204
0.017701
0.0178554
0.0181463
0.0185772
0.0193193
0.0203084
0.0225024
0.0255747
0.0174484
0.0176318
0.0177221
0.0179081
0.0182626
0.0188146
0.0197116
0.0209342
0.0231556
0.0287976
0.0175087
0.0176905
0.0177924
0.017995
0.0183899
0.019074
0.0201876
0.0218825
0.0257073
0.0416445
0.017443
0.0176284
0.0177428
0.0179577
0.0183783
0.0191436
0.0203713
0.0223671
0.0264037
0.0477588
0.0174814
0.0176586
0.017776
0.01798
0.0183675
0.0190451
0.0200418
0.0216127
0.0233966
0.0373323
0.0174816
0.0176488
0.0177681
0.0179588
0.0183127
0.0188733
0.0196845
0.0209051
0.0217602
0.0282492
0.0174507
0.0176103
0.0177361
0.0179213
0.0182663
0.0187546
0.019505
0.0205602
0.0216202
0.0234788
0.017513
0.0176655
0.0177989
0.0179884
0.0183466
0.0188332
0.0195659
0.0205974
0.0223493
0.0217493
0.0174839
0.0176404
0.0177765
0.0179593
0.0183111
0.0187984
0.0194297
0.0204743
0.0229378
0.0222314
0.0175121
0.0176478
0.017802
0.0179948
0.0183832
0.0189541
0.0196104
0.0209799
0.0237111
0.0250495
0.0159431
0.0160416
0.0160542
0.0161388
0.0163035
0.0165669
0.0172795
0.0181628
0.0208351
0.0324402
0.0159383
0.0160717
0.0160917
0.0161977
0.0163953
0.0167183
0.0174294
0.0181945
0.0197285
0.0313371
0.0159986
0.016132
0.0161644
0.0162824
0.0164991
0.0169107
0.0177434
0.0185818
0.0198284
0.0372155
0.0159576
0.0161006
0.0161494
0.0162866
0.016533
0.0170204
0.017945
0.0190564
0.0198525
0.04068
0.0160113
0.0161549
0.0162158
0.0163582
0.0166031
0.0170424
0.0177424
0.0187517
0.0177739
0.0308567
0.016033
0.0161782
0.016254
0.016409
0.0166809
0.0171086
0.0177389
0.0189368
0.0187084
0.0251171
0.0160299
0.0161808
0.0162766
0.0164543
0.016783
0.017255
0.018002
0.0194393
0.0211599
0.0262337
0.016101
0.0162548
0.0163696
0.0165733
0.0169612
0.0175176
0.0184157
0.0199629
0.023545
0.0303852
0.0160908
0.0162533
0.0163741
0.0165796
0.0169709
0.0175618
0.0184545
0.019891
0.0244079
0.0331954
0.0161284
0.0162753
0.0164184
0.0166376
0.0170627
0.0177425
0.0186623
0.0202204
0.024633
0.0344785
0.0143887
0.0144131
0.0143443
0.0143189
0.0142924
0.0142227
0.0146938
0.015373
0.0155425
0.0349509
0.0143987
0.0144561
0.0143897
0.0143687
0.0143255
0.0142122
0.0144536
0.0145991
0.0124444
0.0279479
0.0144573
0.0145152
0.0144592
0.0144414
0.0143808
0.0142681
0.0144193
0.0140485
0.0088952
0.0194856
0.0144381
0.0145113
0.0144741
0.0144799
0.0144487
0.0143963
0.0145622
0.0143144
0.00781793
0.0160466
0.0145061
0.0145902
0.0145747
0.0146049
0.0146172
0.0146206
0.0146791
0.0149156
0.00955315
0.0168759
0.0145477
0.0146474
0.0146611
0.0147344
0.0148518
0.0150317
0.015265
0.016322
0.014996
0.0235022
0.0145704
0.0146906
0.0147383
0.014864
0.0151113
0.0154931
0.0160928
0.017767
0.0201713
0.0347446
0.0146504
0.014784
0.0148614
0.0150344
0.0153862
0.0159391
0.0169057
0.0188851
0.0235163
0.0449887
0.0146547
0.0148008
0.0148848
0.0150645
0.0154219
0.0160039
0.0170542
0.0188402
0.0233483
0.0458324
0.0147015
0.0148353
0.0149415
0.015133
0.0155029
0.0161133
0.0171214
0.0186455
0.0215442
0.0401199
0.0319996
0.0319605
0.029433
0.0263402
0.0243249
0.023526
0.0234955
0.0238818
0.0245788
0.0231269
0.0340782
0.0330369
0.0297391
0.0261268
0.0236077
0.0225885
0.0227043
0.0234022
0.0243685
0.0230589
0.0382293
0.0353902
0.0312545
0.0268816
0.0236031
0.0220397
0.0220998
0.0231926
0.024416
0.023073
0.038434
0.036018
0.0314865
0.0266996
0.0230949
0.0212984
0.021326
0.022754
0.0240593
0.0225794
0.0343906
0.0328029
0.0285643
0.0243747
0.0214071
0.0201583
0.0204249
0.0216931
0.0228572
0.0213653
0.0269266
0.0270658
0.0239485
0.0212371
0.0196786
0.0192533
0.0197649
0.020704
0.0220318
0.0213288
0.0216194
0.0228236
0.0210493
0.0196393
0.0192283
0.0193848
0.0200112
0.0208765
0.0223489
0.0222057
0.0208192
0.0219333
0.0210483
0.0202687
0.0203457
0.0207314
0.0212757
0.0220036
0.0233119
0.0231706
0.0222142
0.0237575
0.0233571
0.022616
0.0224593
0.0226283
0.0229369
0.0232842
0.0241627
0.0235116
0.0243332
0.0264498
0.0259617
0.0248452
0.0241078
0.0238342
0.0238177
0.023841
0.024093
0.0222628
0.0278509
0.0265498
0.0246412
0.0227819
0.0216951
0.0215422
0.0220721
0.0232241
0.0245543
0.0245845
0.0284692
0.0265009
0.0243128
0.0221521
0.0206005
0.020097
0.0206294
0.0221153
0.0239417
0.0242998
0.0317278
0.0287342
0.0260183
0.0231743
0.0208268
0.019726
0.0200748
0.0218812
0.0237944
0.0239258
0.0326225
0.0296544
0.0262362
0.0231092
0.0203172
0.0189628
0.0193832
0.0214206
0.0231048
0.0227729
0.0290474
0.0266971
0.0233958
0.0208317
0.0185439
0.0177093
0.0184668
0.0203398
0.0216768
0.0213051
0.0227557
0.0221641
0.0198782
0.0183745
0.0170691
0.0167617
0.01765
0.0191944
0.0207566
0.0208443
0.0186086
0.0194644
0.0182701
0.0175147
0.0168906
0.0168136
0.0176852
0.0192794
0.0213052
0.0219576
0.0191448
0.0194396
0.0186727
0.0181333
0.017963
0.0182289
0.0192354
0.0208265
0.0230048
0.0238943
0.022199
0.0211587
0.0199356
0.0193183
0.0196797
0.0205154
0.0216778
0.0229969
0.0248112
0.0256866
0.0250156
0.0241606
0.0226487
0.0217526
0.0219954
0.0227359
0.0234854
0.0241453
0.025037
0.0254007
0.0238348
0.0231093
0.0222401
0.0214074
0.0207333
0.0203976
0.02067
0.0218435
0.0237038
0.0236736
0.0233778
0.0227978
0.0218387
0.0207015
0.0197319
0.0191887
0.0193146
0.0205147
0.0227653
0.0234184
0.0258056
0.0246982
0.0229257
0.0211867
0.0196963
0.0188152
0.0189367
0.0202513
0.0223981
0.0227528
0.0263965
0.0254509
0.0229713
0.0210205
0.0190419
0.0181629
0.0187657
0.0201352
0.021642
0.0212412
0.0235292
0.0229262
0.0206002
0.019081
0.0174596
0.0172264
0.0182922
0.0195583
0.0204397
0.0199086
0.0195663
0.019573
0.0182058
0.0173465
0.0163726
0.0164823
0.0175897
0.0186964
0.0198604
0.019395
0.0169048
0.0180422
0.0174176
0.0169886
0.0165384
0.0166256
0.0174448
0.0187043
0.02049
0.0201034
0.0169795
0.0180905
0.0177978
0.0177292
0.0177789
0.0180473
0.0188509
0.0201967
0.0222632
0.0221555
0.0198833
0.0193471
0.0185042
0.0183651
0.0189905
0.0198417
0.0210348
0.0224118
0.0243545
0.0246276
0.023231
0.0217096
0.0200338
0.0195858
0.0205088
0.0217552
0.0228533
0.0238611
0.0250914
0.0255027
0.0215543
0.0213356
0.021011
0.020785
0.0203613
0.019821
0.019575
0.0201347
0.0218386
0.0215604
0.0200547
0.0205639
0.0203037
0.019738
0.0194472
0.0189455
0.0184598
0.0188941
0.0207342
0.0213619
0.0225084
0.0219339
0.0206443
0.0198036
0.0192126
0.0186296
0.0184887
0.0190595
0.0202603
0.0207325
0.0230355
0.0226515
0.0208581
0.0197125
0.0185528
0.018296
0.0189589
0.019282
0.0193753
0.0191958
0.0203638
0.020507
0.0192044
0.0183369
0.0171833
0.0176118
0.0186721
0.0186296
0.0183425
0.0181661
0.0177919
0.0180229
0.0175648
0.017051
0.0162654
0.0169196
0.0176818
0.0179401
0.0182904
0.0186282
0.0161213
0.0171619
0.016994
0.0166488
0.0162303
0.0166717
0.0172475
0.0182234
0.0194282
0.0198484
0.0159293
0.017106
0.0170563
0.0172853
0.0174051
0.0177167
0.0185046
0.019934
0.0216737
0.0217663
0.018173
0.0181509
0.0175822
0.0177984
0.01852
0.0193377
0.0205323
0.021847
0.0237028
0.0238267
0.0211675
0.0199994
0.0188934
0.0190266
0.020196
0.0213092
0.0221269
0.0231245
0.0245419
0.0245674
0.0204819
0.0203382
0.0202721
0.0201046
0.0195557
0.0189546
0.0186858
0.0187821
0.0201802
0.0199213
0.0190099
0.0194436
0.0193888
0.0187541
0.0187059
0.0183481
0.0178296
0.0176984
0.0191733
0.0196168
0.0219605
0.0208865
0.0195844
0.0189801
0.0187006
0.0185732
0.0183408
0.018215
0.0187058
0.0190253
0.023062
0.0218857
0.0202487
0.0191826
0.0183842
0.0185668
0.0188291
0.018014
0.0175916
0.0174212
0.0204783
0.0201685
0.0192993
0.0182639
0.0173938
0.0178497
0.0183024
0.0169707
0.0166228
0.016462
0.0183361
0.0180123
0.0178505
0.0172909
0.0167374
0.0171693
0.0175551
0.0167729
0.0171587
0.0183367
0.0168266
0.0171707
0.0170607
0.0167524
0.0164688
0.0169163
0.0173537
0.0176057
0.0192577
0.0219092
0.0162978
0.0169198
0.0168901
0.0173119
0.0173467
0.0175836
0.018137
0.0193193
0.0223297
0.0254408
0.0177605
0.0177108
0.0172945
0.017861
0.0185205
0.0192113
0.0199748
0.0211266
0.0243671
0.0270514
0.0201313
0.0193368
0.0187507
0.0193204
0.0203724
0.0210265
0.0213962
0.0223791
0.0246816
0.0253968
0.0197101
0.019585
0.0197382
0.0190935
0.0179155
0.0174561
0.0178366
0.0179661
0.0189564
0.0183786
0.0195189
0.0190747
0.0187785
0.0176261
0.0172882
0.0171427
0.0171645
0.0169559
0.0181979
0.0181238
0.0239089
0.0213177
0.019221
0.0180186
0.0174508
0.0175891
0.0173562
0.0170641
0.0176058
0.0175682
0.0259607
0.0228131
0.0203994
0.0186154
0.0173247
0.0171995
0.0166819
0.0158264
0.0160969
0.0156471
0.0232698
0.0213835
0.0200588
0.0184415
0.0171309
0.016631
0.0158714
0.0143575
0.0147332
0.0145188
0.0205572
0.0191194
0.0188164
0.0182655
0.0179885
0.0173905
0.0164343
0.0150699
0.0154169
0.0169605
0.0186896
0.0178087
0.0177647
0.0177069
0.0181854
0.0181558
0.0175484
0.016757
0.0179283
0.0216106
0.0175313
0.0172806
0.0175468
0.0179729
0.0179992
0.0175686
0.0176411
0.0182738
0.0213443
0.0252133
0.0179239
0.0177541
0.0178304
0.0184986
0.0187793
0.0188062
0.0188166
0.0194743
0.0231952
0.0262423
0.0199165
0.019295
0.0191176
0.0197253
0.0203157
0.020469
0.0205177
0.0212728
0.0241951
0.0247385
0.0194531
0.0195047
0.0201437
0.0189988
0.0165024
0.0163055
0.0173544
0.0177539
0.018179
0.0162975
0.0205459
0.0193427
0.0190463
0.0168735
0.0154649
0.0155167
0.0164807
0.0168735
0.0176872
0.0154883
0.0265075
0.022264
0.0192615
0.0169254
0.0156012
0.015209
0.0154633
0.0158716
0.0165884
0.0155804
0.0298155
0.0243591
0.0207452
0.0178937
0.0156141
0.0141198
0.0136848
0.0138552
0.0145807
0.0139271
0.0261144
0.022762
0.0209225
0.018905
0.0164534
0.0142781
0.0125972
0.0118843
0.0127177
0.0122882
0.0219217
0.0198689
0.019758
0.0199096
0.0191853
0.0168979
0.0145036
0.0123048
0.011791
0.0125369
0.0193411
0.0181797
0.0183845
0.0187041
0.0199028
0.0192664
0.017298
0.0145384
0.0125188
0.0136145
0.0176027
0.0175329
0.0181708
0.0183558
0.0185617
0.0174233
0.0175891
0.0170974
0.0160209
0.0155265
0.0178546
0.0179054
0.018482
0.0188562
0.0185625
0.0175902
0.0175002
0.0178954
0.0193385
0.0177751
0.0204328
0.0195831
0.0194042
0.0196002
0.0195498
0.0192856
0.0194389
0.020545
0.0218007
0.0186146
0.0209701
0.0210252
0.0228135
0.0222004
0.0175239
0.0167332
0.0176596
0.0179742
0.017782
0.0148371
0.0213872
0.0205734
0.0214855
0.01848
0.014922
0.0152407
0.0170199
0.0180451
0.0161688
0.010892
0.0271935
0.0231358
0.0204244
0.017091
0.0146011
0.0143435
0.0156416
0.016721
0.0159679
0.0130347
0.0313813
0.025023
0.0212377
0.0175192
0.0144623
0.0129115
0.0133538
0.0142736
0.0151166
0.0139809
0.025508
0.0224279
0.0214346
0.019192
0.0153912
0.0124341
0.0113251
0.0117651
0.0125018
0.0113049
0.0202233
0.0192062
0.0203376
0.0215508
0.0195217
0.0157663
0.0124686
0.00966742
0.0088669
0.0078771
0.0184205
0.0182458
0.0191801
0.0198746
0.0210147
0.0200805
0.0165955
0.01045
0.00653916
0.00445944
0.017322
0.0177916
0.0186124
0.0189595
0.0196527
0.0188522
0.0194829
0.0157672
0.00796349
0.00205668
0.0190641
0.0184411
0.0187487
0.019236
0.0189478
0.0180515
0.0185611
0.0183046
0.0136869
0.00535833
0.0229341
0.0205398
0.019406
0.0194326
0.0194679
0.0198931
0.0210238
0.0214134
0.0170874
0.007912
0.0296872
0.0262101
0.0285495
0.0293792
0.02389
0.0197192
0.017766
0.0161849
0.0174685
0.0210532
0.0252869
0.0250713
0.0273747
0.0249517
0.0194928
0.0171924
0.0173834
0.0162591
0.0142459
0.0159779
0.0268571
0.0260446
0.0249588
0.0212497
0.0166473
0.0147929
0.0150076
0.0145534
0.0144096
0.0177681
0.0289675
0.025764
0.0241739
0.0199882
0.0153914
0.0127122
0.0113608
0.0106885
0.0138936
0.020468
0.0219878
0.0220053
0.0240561
0.0217479
0.0162098
0.0115304
0.00888331
0.00737154
0.010616
0.0193205
0.016754
0.0183209
0.021936
0.0244899
0.021943
0.0161117
0.009143
0.00348975
0.00625302
0.0152139
0.0185542
0.0179119
0.0196017
0.0221758
0.0241688
0.023394
0.0165774
0.00475596
0.00305517
0.00820889
0.0249219
0.0189412
0.0182175
0.0199977
0.0220808
0.0234767
0.0238359
0.0161713
0.00419907
0.00102747
0.031104
0.0210116
0.0167069
0.0182205
0.0205838
0.0225077
0.0242018
0.0234851
0.0127688
0.00248456
0.0337221
0.0230915
0.0171463
0.0187548
0.0222754
0.0253077
0.0271371
0.0258476
0.0162653
0.00623632
0.0528407
0.0363285
0.0333099
0.034022
0.0321308
0.0292461
0.0228536
0.0157742
0.0340375
0.0916782
0.0415877
0.0336991
0.0327771
0.0322495
0.0303252
0.0284742
0.0231095
0.0148427
0.0324057
0.0957312
0.0307034
0.0314734
0.0313573
0.0301784
0.0283457
0.0265462
0.0208967
0.0130212
0.0317492
0.0959746
0.0261327
0.0294145
0.0302957
0.029162
0.0269566
0.0241209
0.0170249
0.00946028
0.0310771
0.102577
0.0252298
0.0284199
0.0307507
0.0302657
0.027868
0.0238434
0.0146734
0.00575895
0.0294212
0.111143
0.0294934
0.0273441
0.0296071
0.0313182
0.0305071
0.0264597
0.0155998
0.00407897
0.0254033
0.103717
0.0448973