/*--------------------------------*- C++ -*----------------------------------*\
  =========                 |
  \\      /  F ield         | OpenFOAM: The Open Source CFD Toolbox
   \\    /   O peration     | Website:  https://openfoam.org
    \\  /    A nd           | Version:  6
     \\/     M anipulation  |
\*---------------------------------------------------------------------------*/
FoamFile
{
    version     2.0;
    format      ascii;
    class       volVectorField;
    location    "1200";
    object      U;
}
// * * * * * * * * * * * * * * * * * * * * * * * * * * * * * * * * * * * * * //

dimensions      [0 1 -1 0 0 0 0];

internalField   nonuniform List<vector> 
7000
(
(0.000593511 0.000607003 0.997868)
(0.000745441 0.000608379 0.999405)
(0.000200268 0.000608376 0.998942)
(6.4789e-05 0.000608911 0.998942)
(-3.04992e-07 0.000609598 0.998944)
(-6.39089e-05 0.000610351 0.998944)
(-0.000122535 0.000611093 0.99894)
(-0.000247975 0.000611768 0.998938)
(-0.000790194 0.000612765 0.99941)
(-0.000617065 0.00061237 0.997854)
(0.000594915 0.000771868 0.999414)
(0.000746539 0.000772957 1.00095)
(0.000200927 0.000773727 1.00049)
(6.58786e-05 0.000774734 1.00049)
(1.07795e-06 0.000776125 1.00049)
(-6.24416e-05 0.00077771 1.00049)
(-0.00012106 0.00077933 1.00049)
(-0.000246494 0.000780883 1.00049)
(-0.000789328 0.000782205 1.00096)
(-0.000617467 0.000783251 0.999403)
(0.000594903 0.000230402 0.998947)
(0.000747305 0.000231071 1.00048)
(0.000201945 0.000232086 1.00002)
(6.71823e-05 0.000233399 1.00002)
(2.63813e-06 0.000235106 1.00002)
(-6.07666e-05 0.000237075 1.00002)
(-0.000119441 0.000239115 1.00002)
(-0.000245056 0.000240994 1.00002)
(-0.000787853 0.000242619 1.00049)
(-0.000616318 0.000244682 0.998934)
(0.000595433 0.000103125 0.998947)
(0.000748295 0.000104205 1.00049)
(0.000203247 0.000105473 1.00002)
(6.89154e-05 0.000107171 1.00002)
(4.75302e-06 0.000109378 1.00003)
(-5.84547e-05 0.00011193 1.00003)
(-0.000117179 0.000114577 1.00002)
(-0.000242994 0.000117019 1.00002)
(-0.000785721 0.000119192 1.00049)
(-0.000615245 0.00012173 0.998936)
(0.000596093 4.4073e-05 0.99895)
(0.000749622 4.53999e-05 1.00049)
(0.000204881 4.6859e-05 1.00003)
(7.10875e-05 4.88465e-05 1.00003)
(7.39598e-06 5.14169e-05 1.00003)
(-5.55698e-05 5.4382e-05 1.00003)
(-0.000114353 5.74588e-05 1.00002)
(-0.000240407 6.0304e-05 1.00002)
(-0.000783105 6.28755e-05 1.00049)
(-0.000613873 6.58067e-05 0.998939)
(0.000596787 -1.78634e-05 0.99895)
(0.000751071 -1.65131e-05 1.00049)
(0.000206679 -1.50247e-05 1.00003)
(7.34729e-05 -1.29661e-05 1.00003)
(1.02882e-05 -1.0317e-05 1.00003)
(-5.24135e-05 -7.26961e-06 1.00003)
(-0.000111257 -4.10645e-06 1.00003)
(-0.000237559 -1.17638e-06 1.00002)
(-0.000780199 1.51527e-06 1.00049)
(-0.00061232 4.57232e-06 0.99894)
(0.000597441 -7.97859e-05 0.998947)
(0.000752478 -7.84887e-05 1.00049)
(0.000208434 -7.71421e-05 1.00002)
(7.57961e-05 -7.52559e-05 1.00002)
(1.30926e-05 -7.2842e-05 1.00003)
(-4.93595e-05 -7.00768e-05 1.00003)
(-0.00010826 -6.72124e-05 1.00002)
(-0.000234787 -6.45496e-05 1.00002)
(-0.000777363 -6.20752e-05 1.00049)
(-0.000610789 -5.93498e-05 0.998938)
(0.000598 -0.000211494 0.998946)
(0.000753751 -0.000210259 1.00049)
(0.000209935 -0.000209182 1.00002)
(7.77736e-05 -0.000207625 1.00002)
(1.54675e-05 -0.00020564 1.00003)
(-4.67832e-05 -0.000203373 1.00003)
(-0.00010573 -0.000201019 1.00002)
(-0.00023244 -0.000198827 1.00002)
(-0.000775025 -0.000196728 1.00049)
(-0.000609486 -0.000194671 0.998939)
(0.000598843 -0.000754661 0.999411)
(0.000754726 -0.000754084 1.00095)
(0.00021107 -0.000753066 1.00049)
(7.93178e-05 -0.000751631 1.00049)
(1.73418e-05 -0.000749896 1.00049)
(-4.47219e-05 -0.000747907 1.00049)
(-0.000103682 -0.000745831 1.00049)
(-0.000230486 -0.000743953 1.00048)
(-0.000773127 -0.000742213 1.00095)
(-0.000608871 -0.000740089 0.999401)
(0.000598324 -0.000598065 0.99787)
(0.000755374 -0.0005986 0.999409)
(0.000212478 -0.000597713 0.998946)
(8.09398e-05 -0.000597049 0.998946)
(1.92106e-05 -0.000596206 0.998949)
(-4.26709e-05 -0.000595215 0.998949)
(-0.000101711 -0.000594159 0.998946)
(-0.000228868 -0.000593164 0.998945)
(-0.000771159 -0.000592714 0.999414)
(-0.000607087 -0.000590902 0.997864)
(0.00144215 0.0014909 0.994349)
(0.00168041 0.00149854 0.999149)
(0.000382685 0.00149704 0.997301)
(0.000202314 0.00149958 0.997285)
(8.68294e-06 0.00150216 0.997267)
(-0.000191778 0.00150496 0.997258)
(-0.000367735 0.00150771 0.997257)
(-0.000515059 0.00150979 0.997256)
(-0.00181991 0.00151487 0.99917)
(-0.00152536 0.00151201 0.994207)
(0.00144983 0.00176604 0.999235)
(0.00168589 0.00177162 1.00405)
(0.000385615 0.00177307 1.0022)
(0.000207091 0.00177663 1.00219)
(1.41263e-05 0.00178114 1.00218)
(-0.000186219 0.00178607 1.00217)
(-0.000362443 0.00179097 1.00218)
(-0.000509777 0.00179561 1.00218)
(-0.00181693 0.00180043 1.0041)
(-0.00152814 0.00180426 0.999134)
(0.00144827 0.000471992 0.997345)
(0.00168732 0.000474973 1.00216)
(0.000388413 0.000477856 1.00031)
(0.000210604 0.000481576 1.00029)
(1.8193e-05 0.000486367 1.00028)
(-0.000182014 0.000491697 1.00027)
(-0.000358388 0.000497093 1.00027)
(-0.000506276 0.000502178 1.00027)
(-0.00181118 0.000506251 1.00219)
(-0.00152216 0.000514209 0.997232)
(0.00145081 0.000318434 0.997336)
(0.00169091 0.00032321 1.00215)
(0.000392171 0.000326899 1.0003)
(0.000215652 0.000331966 1.00029)
(2.42447e-05 0.000338452 1.00027)
(-0.000175557 0.000345718 1.00027)
(-0.000352073 0.000353109 1.00027)
(-0.000500613 0.000360007 1.00027)
(-0.00180413 0.000365779 1.00218)
(-0.00151824 0.00037561 0.997234)
(0.00145336 0.000141194 0.997326)
(0.00169546 0.000146504 1.00215)
(0.000397059 0.000150802 1.00029)
(0.000222154 0.000156859 1.00028)
(3.19461e-05 0.000164506 1.00027)
(-0.000167356 0.000173059 1.00026)
(-0.000344097 0.000181775 1.00027)
(-0.000493485 0.000189886 1.00027)
(-0.00179527 0.000196771 1.00218)
(-0.00151268 0.000208439 0.99724)
(0.00145603 -5.59717e-05 0.997325)
(0.00170036 -5.07627e-05 1.00215)
(0.000402466 -4.63946e-05 1.00029)
(0.000229353 -4.00667e-05 1.00028)
(4.04452e-05 -3.21421e-05 1.00027)
(-0.000158285 -2.32827e-05 1.00027)
(-0.000335241 -1.42259e-05 1.00027)
(-0.000485543 -5.79557e-06 1.00028)
(-0.00178543 1.47366e-06 1.00218)
(-0.00150651 1.37726e-05 0.997257)
(0.00145856 -0.000242597 0.997334)
(0.00170506 -0.000238011 1.00216)
(0.000407763 -0.000234066 1.00031)
(0.000236406 -0.000228209 1.00029)
(4.87309e-05 -0.000220976 1.00028)
(-0.000149437 -0.000212925 1.00028)
(-0.000326607 -0.000204707 1.00029)
(-0.000477778 -0.000197077 1.0003)
(-0.00177573 -0.000190261 1.0022)
(-0.00150041 -0.00017861 0.997283)
(0.00146024 -0.000412898 0.997343)
(0.0017091 -0.000408579 1.00218)
(0.000412333 -0.000405599 1.00032)
(0.000242443 -0.000400924 1.00031)
(5.57306e-05 -0.000395201 1.0003)
(-0.000142012 -0.000388824 1.0003)
(-0.000319389 -0.000382273 1.0003)
(-0.000471147 -0.000376065 1.00031)
(-0.00176717 -0.000370093 1.00221)
(-0.00149451 -0.000361767 0.997308)
(0.0014648 -0.00170675 0.999201)
(0.00171311 -0.00170531 1.00404)
(0.000415419 -0.00170111 1.00217)
(0.000246738 -0.00169653 1.00216)
(6.0819e-05 -0.00169087 1.00215)
(-0.000136455 -0.0016844 1.00215)
(-0.000313744 -0.00167752 1.00215)
(-0.000465562 -0.00167086 1.00216)
(-0.00176218 -0.00166666 1.00405)
(-0.00149399 -0.00165651 0.99915)
(0.00146106 -0.00145631 0.994373)
(0.0017147 -0.00146003 0.999208)
(0.000420332 -0.00145528 0.997349)
(0.000252438 -0.00145317 0.997341)
(6.77954e-05 -0.00144993 0.997334)
(-0.000128564 -0.00144615 0.997338)
(-0.000305597 -0.00144207 0.997351)
(-0.0004595 -0.00143763 0.997364)
(-0.00175276 -0.00143795 0.999254)
(-0.00148377 -0.00142765 0.994379)
(0.0019485 0.00203554 0.990158)
(0.00207522 0.0020508 0.998691)
(0.000353066 0.00204597 0.995463)
(0.000305239 0.00205136 0.995425)
(-1.16354e-05 0.00205593 0.995344)
(-0.000316276 0.00206109 0.99532)
(-0.000604199 0.00206639 0.995352)
(-0.000588383 0.00206938 0.995345)
(-0.00232934 0.00208102 0.998732)
(-0.00210584 0.00207314 0.989769)
(0.00196398 0.00222281 0.998911)
(0.00208609 0.00223375 1.00748)
(0.000359092 0.00223414 1.00424)
(0.000314839 0.002241 1.00422)
(-1.53577e-06 0.00224913 1.00415)
(-0.000306186 0.00225811 1.00414)
(-0.000595481 0.00226723 1.00419)
(-0.000579467 0.00227527 1.00419)
(-0.00232577 0.00228626 1.00759)
(-0.00211351 0.00229135 0.998631)
(0.00195893 0.000505647 0.995584)
(0.00208634 0.000511699 1.00415)
(0.000363778 0.000516503 1.00091)
(0.000320862 0.000523038 1.00088)
(5.67517e-06 0.000531753 1.00081)
(-0.000298496 0.000541614 1.00079)
(-0.000587784 0.000551878 1.00083)
(-0.000573001 0.0005619 1.00083)
(-0.00231312 0.000569513 1.00421)
(-0.00210026 0.000584014 0.995274)
(0.00196429 0.000508735 0.995562)
(0.00209316 0.000518262 1.00414)
(0.000370334 0.000524456 1.00089)
(0.000330084 0.000533614 1.00087)
(1.69838e-05 0.000545571 1.00079)
(-0.00028612 0.000559243 1.00078)
(-0.000575309 0.000573578 1.00082)
(-0.000561824 0.000587385 1.00082)
(-0.00229991 0.000598535 1.0042)
(-0.00209324 0.000617275 0.995283)
(0.00196871 0.000221535 0.995501)
(0.00210119 0.000231314 1.00409)
(0.000379019 0.00023864 1.00084)
(0.000341965 0.000249587 1.00081)
(3.1303e-05 0.000263613 1.00074)
(-0.00027047 0.000279667 1.00073)
(-0.000559634 0.00029658 1.00078)
(-0.000547895 0.00031278 1.00078)
(-0.00228232 0.000325961 1.00415)
(-0.00208181 0.000349651 0.995266)
(0.00197355 -7.41574e-05 0.995499)
(0.00210982 -6.47895e-05 1.0041)
(0.000388552 -5.73189e-05 1.00085)
(0.000355042 -4.59107e-05 1.00082)
(4.70603e-05 -3.14205e-05 1.00075)
(-0.000253144 -1.47826e-05 1.00075)
(-0.000542198 2.83262e-06 1.0008)
(-0.000532342 1.96865e-05 1.0008)
(-0.00226258 3.35752e-05 1.00416)
(-0.00206908 5.90144e-05 0.995314)
(0.00197832 -0.000376612 0.995557)
(0.00211813 -0.000369025 1.00417)
(0.000397867 -0.000362131 1.00091)
(0.000367845 -0.000351476 1.00089)
(6.24334e-05 -0.000338224 1.00082)
(-0.000236203 -0.000323072 1.00082)
(-0.000525154 -0.000307056 1.00087)
(-0.000517055 -0.000291875 1.00089)
(-0.00224308 -0.00027904 1.00423)
(-0.00205666 -0.000254799 0.995421)
(0.00198069 -0.00040405 0.995578)
(0.00212489 -0.000396896 1.00419)
(0.000406149 -0.000391818 1.00094)
(0.000378948 -0.000383354 1.00091)
(7.54825e-05 -0.00037308 1.00085)
(-0.000221953 -0.000361334 1.00085)
(-0.000510983 -0.000348889 1.00091)
(-0.000504289 -0.000337117 1.00092)
(-0.00222605 -0.000326752 1.00426)
(-0.00204444 -0.000308766 0.995483)
(0.00199094 -0.00212062 0.998825)
(0.00213384 -0.00211915 1.00745)
(0.000411401 -0.00210986 1.00419)
(0.000386521 -0.00210211 1.00416)
(8.44677e-05 -0.00209188 1.00409)
(-0.000211972 -0.00208004 1.00408)
(-0.000500842 -0.00206734 1.00413)
(-0.000494818 -0.0020548 1.00414)
(-0.00221818 -0.0020488 1.00747)
(-0.00204412 -0.0020286 0.998693)
(0.00198251 -0.00197459 0.990219)
(0.00213556 -0.00198298 0.998848)
(0.00041962 -0.00197237 0.995593)
(0.000396211 -0.00196922 0.995577)
(9.73019e-05 -0.00196304 0.995524)
(-0.00019712 -0.00195602 0.995534)
(-0.000485015 -0.00194858 0.995604)
(-0.000482058 -0.00193981 0.995634)
(-0.00219974 -0.00194145 0.998958)
(-0.00202482 -0.00192183 0.99024)
(0.00227038 0.00240145 0.984968)
(0.00222358 0.00242522 0.997653)
(0.000255485 0.00241618 0.993183)
(0.000364823 0.00242528 0.99313)
(-8.10989e-05 0.00243177 0.99297)
(-0.000428086 0.00243965 0.99292)
(-0.000832967 0.00244816 0.992979)
(-0.000621401 0.00245171 0.992941)
(-0.00262518 0.00247083 0.99771)
(-0.00252512 0.00245634 0.984166)
(0.00229479 0.00244169 0.998072)
(0.00224064 0.00245864 1.01082)
(0.000265426 0.00245732 1.00633)
(0.00038043 0.00246835 1.00631)
(-6.5648e-05 0.00248056 1.00617)
(-0.000412921 0.00249444 1.00615)
(-0.000820931 0.00250877 1.00624)
(-0.00060937 0.0025207 1.00621)
(-0.00262221 0.00253897 1.01102)
(-0.00253902 0.0025449 0.997478)
(0.00228531 0.000481667 0.993422)
(0.00223901 0.00049174 1.00615)
(0.000272533 0.000499029 1.00167)
(0.000389345 0.000509046 1.00163)
(-5.45292e-05 0.000522886 1.00148)
(-0.000400695 0.000538708 1.00145)
(-0.000808305 0.000555345 1.00153)
(-0.000599226 0.000572157 1.0015)
(-0.00260067 0.000584493 1.00627)
(-0.00251669 0.000607687 0.992773)
(0.00229441 0.000671931 0.993399)
(0.00225 0.000687606 1.00615)
(0.000282564 0.000696742 1.00166)
(0.000404064 0.000711302 1.00162)
(-3.62413e-05 0.000730553 1.00148)
(-0.000380419 0.000752884 1.00145)
(-0.000787513 0.000776698 1.00153)
(-0.000580265 0.000800244 1.00151)
(-0.00257869 0.000819552 1.00626)
(-0.0025052 0.000851607 0.992816)
(0.00230077 0.000272409 0.993278)
(0.0022621 0.000287687 1.00606)
(0.00029624 0.000298832 1.00155)
(0.000423123 0.00031628 1.00152)
(-1.29489e-05 0.000338922 1.00138)
(-0.000354494 0.000365332 1.00136)
(-0.000760944 0.000393769 1.00145)
(-0.000556342 0.000421867 1.00143)
(-0.00254749 0.00044486 1.00617)
(-0.00248437 0.00048734 0.99279)
(0.0023083 -5.72818e-05 0.993274)
(0.00227545 -4.27154e-05 1.00608)
(0.000311215 -3.11225e-05 1.00157)
(0.000444103 -1.29713e-05 1.00154)
(1.2792e-05 1.04192e-05 1.00141)
(-0.000325562 3.78741e-05 1.00139)
(-0.00073103 6.76605e-05 1.00149)
(-0.000529184 9.7125e-05 1.00148)
(-0.00251225 0.000121233 1.00619)
(-0.0024614 0.0001672 0.992896)
(0.00231625 -0.000478387 0.993389)
(0.00228864 -0.000467412 1.00622)
(0.000325804 -0.000456435 1.0017)
(0.000464598 -0.000439459 1.00167)
(3.78957e-05 -0.000418095 1.00154)
(-0.000297225 -0.00039309 1.00153)
(-0.000701699 -0.000365996 1.00164)
(-0.000502467 -0.000339465 1.00164)
(-0.00247782 -0.00031769 1.00633)
(-0.00243949 -0.000273035 0.993119)
(0.00231915 -0.00033435 0.993406)
(0.00229866 -0.000323988 1.00625)
(0.000339092 -0.00031625 1.00172)
(0.000482436 -0.000302659 1.0017)
(5.9223e-05 -0.000286299 1.00158)
(-0.000273399 -0.00026718 1.00157)
(-0.000677365 -0.000246464 1.00169)
(-0.000480587 -0.00022657 1.0017)
(-0.00244701 -0.000208745 1.00636)
(-0.00241676 -0.000176936 0.993224)
(0.00233647 -0.00229376 0.997911)
(0.00231411 -0.00229194 1.01078)
(0.000347114 -0.00227597 1.00623)
(0.000494589 -0.00226439 1.0062)
(7.35143e-05 -0.00224805 1.00607)
(-0.000257481 -0.00222929 1.00605)
(-0.000661143 -0.00220928 1.00615)
(-0.000464581 -0.00218808 1.00614)
(-0.0024355 -0.00218081 1.0108)
(-0.00241748 -0.00214697 0.997663)
(0.00232293 -0.00231197 0.985085)
(0.0023163 -0.00232549 0.997958)
(0.000359106 -0.00230764 0.993438)
(0.000508916 -0.00230349 0.993428)
(9.37319e-05 -0.0022933 0.993326)
(-0.000233874 -0.0022822 0.993345)
(-0.000634665 -0.00227092 0.993484)
(-0.000444253 -0.00225577 0.993523)
(-0.00240582 -0.00226087 0.998166)
(-0.00238549 -0.00222803 0.985144)
(0.0025025 0.00268472 0.979291)
(0.0022905 0.00271743 0.996332)
(0.000165984 0.00270412 0.990663)
(0.000390225 0.00271774 0.990581)
(-0.000198345 0.00272603 0.990349)
(-0.000540186 0.00273688 0.99026)
(-0.00107461 0.00274915 0.990316)
(-0.000702194 0.00275211 0.990239)
(-0.00289102 0.00277897 0.996406)
(-0.0028905 0.00275483 0.97787)
(0.00253662 0.00259036 0.997019)
(0.00231434 0.00261367 1.01417)
(0.000180635 0.00261111 1.00846)
(0.000413063 0.00262731 1.00843)
(-0.000176791 0.00264417 1.00823)
(-0.000519354 0.00266381 1.00819)
(-0.00105997 0.00268452 1.00829)
(-0.00068796 0.00269998 1.00824)
(-0.00289066 0.00272599 1.01447)
(-0.00291287 0.00273151 0.99592)
(0.00252255 0.000479304 0.991062)
(0.00231121 0.000494277 1.00817)
(0.000191111 0.000505064 1.00248)
(0.000425518 0.000519589 1.00242)
(-0.000160687 0.000540246 1.00222)
(-0.000501234 0.000564026 1.00216)
(-0.00104096 0.000589312 1.00224)
(-0.000673402 0.000615303 1.00218)
(-0.00285845 0.000634315 1.00834)
(-0.00287996 0.000669781 0.989875)
(0.00253635 0.000821379 0.991029)
(0.00232754 0.000844686 1.00818)
(0.000205667 0.000857565 1.00247)
(0.000447604 0.000879391 1.00242)
(-0.000133004 0.000908503 1.00222)
(-0.000470085 0.000942834 1.00217)
(-0.00100864 0.000980248 1.00226)
(-0.000643175 0.00101789 1.0022)
(-0.00282377 0.00104977 1.00834)
(-0.00286197 0.00110306 0.989961)
(0.00254484 0.000301046 0.990864)
(0.00234464 0.000323147 1.00806)
(0.000226055 0.000339347 1.00233)
(0.000476386 0.000365546 1.00229)
(-9.72344e-05 0.000400054 1.00209)
(-0.000429362 0.000441175 1.00205)
(-0.00096593 0.000486723 1.00216)
(-0.000604063 0.000532856 1.00212)
(-0.00277048 0.000571372 1.00822)
(-0.00282556 0.000646176 0.989981)
(0.0025558 -1.00454e-05 0.990857)
(0.00236412 1.11926e-05 1.00809)
(0.000248344 2.83136e-05 1.00235)
(0.000508187 5.55797e-05 1.00231)
(-5.74234e-05 9.13169e-05 1.00213)
(-0.000383413 0.000134254 1.0021)
(-0.000917129 0.000182265 1.00222)
(-0.000558731 0.000231132 1.0022)
(-0.0027092 0.000271905 1.00826)
(-0.0027847 0.000353748 0.990191)
(0.00256811 -0.000558948 0.99101)
(0.00238389 -0.000543641 1.00829)
(0.000269974 -0.00052709 1.00254)
(0.000539231 -0.000501716 1.0025)
(-1.85748e-05 -0.000469173 1.00233)
(-0.000338376 -0.000430206 1.00231)
(-0.000869115 -0.000386681 1.00245)
(-0.000513683 -0.000342693 1.00244)
(-0.00264925 -0.000305929 1.00847)
(-0.00274598 -0.00022804 0.990556)
(0.00257173 -0.000280824 0.99103)
(0.00239813 -0.000266354 1.00833)
(0.000289966 -0.000255381 1.00257)
(0.000566088 -0.000234944 1.00254)
(1.42306e-05 -0.000210373 1.00238)
(-0.000300769 -0.000180965 1.00237)
(-0.000829559 -0.000148156 1.00252)
(-0.000477207 -0.000116012 1.00253)
(-0.0025969 -8.69405e-05 1.00851)
(-0.0027077 -3.1547e-05 0.990744)
(0.0025969 -0.00239183 0.996756)
(0.00242084 -0.00238888 1.01412)
(0.000301338 -0.00236542 1.0083)
(0.000584454 -0.00234897 1.00827)
(3.57756e-05 -0.00232445 1.00808)
(-0.000276517 -0.00229657 1.00805)
(-0.000804513 -0.00226689 1.00818)
(-0.0004522 -0.00223478 1.00816)
(-0.00257638 -0.00222237 1.01413)
(-0.00270483 -0.00216999 0.996366)
(0.00257824 -0.00256363 0.979476)
(0.00242437 -0.00258233 0.996836)
(0.000318127 -0.0025564 0.991085)
(0.000604653 -0.00255104 0.991077)
(6.54772e-05 -0.00253545 0.990945)
(-0.00024173 -0.00251917 0.990979)
(-0.000765289 -0.00250317 0.991176)
(-0.000420258 -0.00248077 0.991239)
(-0.00253225 -0.00248628 0.997181)
(-0.00266014 -0.00243985 0.979616)
(0.00266579 0.00290812 0.973522)
(0.00230041 0.00295 0.994969)
(7.8094e-05 0.00293256 0.988097)
(0.000377357 0.00295128 0.987959)
(-0.000362352 0.00296123 0.987662)
(-0.000673364 0.00297498 0.987523)
(-0.00134614 0.00299066 0.987542)
(-0.000845436 0.00299087 0.987432)
(-0.00317911 0.00302349 0.995095)
(-0.00324058 0.00297913 0.97122)
(0.00271034 0.00269664 0.996)
(0.00233177 0.00272677 1.01761)
(9.83846e-05 0.00272368 1.01068)
(0.000408612 0.00274599 1.01061)
(-0.000334198 0.00276817 1.01037)
(-0.000647085 0.00279431 1.0103)
(-0.00133117 0.00282155 1.01039)
(-0.000832771 0.00283929 1.0103)
(-0.0031924 0.00287036 1.01806)
(-0.00328057 0.00286395 0.994116)
(0.00269178 0.000496483 0.988704)
(0.00232785 0.000517524 1.01026)
(0.000113227 0.000532949 1.00335)
(0.000425517 0.00055345 1.00325)
(-0.000311722 0.000583179 1.00299)
(-0.000621769 0.00061762 1.00289)
(-0.00130442 0.000654431 1.00295)
(-0.000813883 0.000693036 1.00285)
(-0.00315218 0.000720148 1.0105)
(-0.00323862 0.00077294 0.986699)
(0.0027112 0.000959786 0.988636)
(0.00235085 0.000992459 1.01026)
(0.000133837 0.00101031 1.00332)
(0.000457535 0.00104198 1.00323)
(-0.00027133 0.00108455 1.00298)
(-0.000575532 0.00113576 1.00289)
(-0.00125573 0.00119302 1.00296)
(-0.000767647 0.00125212 1.00288)
(-0.00309632 0.00130434 1.01049)
(-0.00320763 0.00139785 0.986824)
(0.00272234 0.000318098 0.988442)
(0.00237439 0.000348756 1.01012)
(0.000163315 0.000371807 1.00317)
(0.000499641 0.000409897 1.00308)
(-0.000217913 0.000460998 1.00284)
(-0.000513051 0.000523466 1.00277)
(-0.00118812 0.000594861 1.00287)
(-0.000703059 0.000670169 1.00281)
(-0.0030031 0.000736921 1.01035)
(-0.00314333 0.000872524 0.986961)
(0.00273773 5.90614e-05 0.988429)
(0.00240192 8.8953e-05 1.01017)
(0.000195532 0.000113446 1.0032)
(0.000546472 0.000153179 1.00312)
(-0.000157854 0.000206286 1.0029)
(-0.000441669 0.000271797 1.00285)
(-0.00110942 0.000347428 1.00298)
(-0.000626053 0.000427917 1.00296)
(-0.00289296 0.000499368 1.01042)
(-0.00306986 0.000647786 0.987349)
(0.0027558 -0.000618995 0.988601)
(0.00243041 -0.000597923 1.01042)
(0.000226658 -0.000573935 1.00341)
(0.000592169 -0.000537283 1.00335)
(-9.93248e-05 -0.000489142 1.00314)
(-0.000371811 -0.000430024 1.00312)
(-0.00103215 -0.000361955 1.00327)
(-0.000549654 -0.000289556 1.00328)
(-0.00278674 -0.000227234 1.01068)
(-0.00300121 -8.90546e-05 0.987912)
(0.00276068 -0.000239733 0.988644)
(0.00245031 -0.000220059 1.0105)
(0.000255526 -0.000204821 1.00348)
(0.00063124 -0.000175303 1.00343)
(-5.03129e-05 -0.000139479 1.00323)
(-0.000314187 -9.55311e-05 1.00322)
(-0.000968903 -4.4995e-05 1.0034)
(-0.000489693 6.28613e-06 1.00343)
(-0.00269711 5.42934e-05 1.01076)
(-0.00293554 0.000149334 0.98825)
(0.00279437 -0.00244141 0.995604)
(0.00248117 -0.00243615 1.01755)
(0.000271318 -0.0024043 1.01045)
(0.000657977 -0.00238141 1.01038)
(-1.88674e-05 -0.00234622 1.01015)
(-0.000278047 -0.00230634 1.01011)
(-0.000931134 -0.00226398 1.01025)
(-0.000449876 -0.002216 1.01024)
(-0.00266045 -0.00219662 1.01755)
(-0.00292553 -0.00211893 0.995056)
(0.00277116 -0.00275178 0.973783)
(0.0024873 -0.00277517 0.995726)
(0.000294109 -0.00274047 0.988729)
(0.000685738 -0.00273328 0.988704)
(2.29159e-05 -0.00271081 0.988566)
(-0.000229484 -0.00268795 0.988621)
(-0.000874837 -0.0026664 0.988868)
(-0.000404908 -0.00263368 0.988984)
(-0.00260077 -0.00264149 0.996248)
(-0.00286543 -0.00257831 0.974069)
(0.00276566 0.00307855 0.96775)
(0.00225166 0.00312953 0.993587)
(-2.60789e-05 0.00310821 0.985532)
(0.000318457 0.00313228 0.985318)
(-0.000575103 0.00314347 0.98496)
(-0.000847144 0.00315915 0.984758)
(-0.00166367 0.0031761 0.984712)
(-0.00105464 0.00316825 0.984571)
(-0.00352778 0.00319842 0.993823)
(-0.00361838 0.0031133 0.964206)
(0.00282119 0.00276161 0.995049)
(0.00229137 0.002799 1.02113)
(9.15213e-07 0.00279607 1.01299)
(0.000359041 0.00282523 1.01287)
(-0.000540753 0.00285322 1.01259)
(-0.000817743 0.00288568 1.01247)
(-0.00165497 0.00291792 1.01252)
(-0.00105681 0.00293281 1.01239)
(-0.00357832 0.00295999 1.02176)
(-0.00369168 0.0029224 0.991884)
(0.00279839 0.000519044 0.986401)
(0.00228735 0.000547624 1.01239)
(2.10208e-05 0.000568827 1.00428)
(0.000381414 0.000597157 1.00413)
(-0.00051052 0.000638693 1.00382)
(-0.00078411 0.000687053 1.00367)
(-0.00162007 0.000739198 1.00367)
(-0.00103502 0.000793516 1.00352)
(-0.00352996 0.000832996 1.01275)
(-0.003642 0.000904377 0.983049)
(0.00282431 0.00108543 0.986277)
(0.00231848 0.00112951 1.01237)
(4.9645e-05 0.00115397 1.00422)
(0.000426586 0.00119877 1.00407)
(-0.000453139 0.0012596 1.00377)
(-0.000717078 0.00133452 1.00364)
(-0.00154886 0.00142103 1.00366)
(-0.000964612 0.00151247 1.00353)
(-0.00344753 0.00159753 1.01268)
(-0.00359761 0.00175391 0.983237)
(0.00283894 0.000330533 0.986062)
(0.00235048 0.000371955 1.01223)
(9.12742e-05 0.000404219 1.00406)
(0.000486895 0.000458354 1.00392)
(-0.000374731 0.000532623 1.00365)
(-0.000622219 0.000626181 1.00354)
(-0.00144227 0.000737681 1.0036)
(-0.000859037 0.000860653 1.00352)
(-0.00328571 0.000973317 1.01256)
(-0.00348186 0.00122635 0.983637)
(0.00286004 0.000144732 0.98604)
(0.00238851 0.000185722 1.01231)
(0.000136877 0.000219935 1.0041)
(0.00055457 0.000276621 1.00398)
(-0.000285527 0.000354058 1.00373)
(-0.000512023 0.000452532 1.00366)
(-0.00131515 0.000571307 1.00377)
(-0.000729062 0.000704179 1.00375)
(-0.00308493 0.000827994 1.01267)
(-0.00333969 0.00110777 0.984381)
(0.00288541 -0.000655392 0.986217)
(0.00242828 -0.000626683 1.01259)
(0.000180752 -0.000592938 1.00435)
(0.000620503 -0.000541244 1.00424)
(-0.000198833 -0.000471503 1.00401)
(-0.000404713 -0.000383494 1.00398)
(-0.00119093 -0.000277886 1.00413)
(-0.000599346 -0.000159952 1.00417)
(-0.00289152 -5.19079e-05 1.01299)
(-0.00320862 0.000196227 0.985277)
(0.00289255 -0.000196111 0.986295)
(0.00245587 -0.000169912 1.01273)
(0.000221187 -0.000148965 1.00447)
(0.000675957 -0.000107663 1.00437)
(-0.000127327 -5.67444e-05 1.00415)
(-0.000317902 7.41309e-06 1.00414)
(-0.00109159 8.38582e-05 1.00433)
(-0.000499853 0.000165074 1.00441)
(-0.00273836 0.000243589 1.01311)
(-0.00309759 0.000403197 0.985857)
(0.00293554 -0.00244277 0.994479)
(0.002496 -0.00243415 1.02105)
(0.000242821 -0.00239284 1.01267)
(0.000713522 -0.00236164 1.01255)
(-8.27168e-05 -0.00231307 1.01228)
(-0.000265254 -0.00225791 1.01222)
(-0.00103478 -0.00219883 1.01236)
(-0.00043877 -0.00213207 1.01238)
(-0.00267671 -0.00210189 1.02102)
(-0.00307439 -0.00199229 0.993832)
(0.00290827 -0.00288268 0.96809)
(0.0025058 -0.00291036 0.994654)
(0.000272784 -0.00286619 0.986417)
(0.000750688 -0.00285637 0.986363)
(-2.6237e-05 -0.00282552 0.986236)
(-0.000199936 -0.0027948 0.986321)
(-0.000960441 -0.00276635 0.986618)
(-0.000379845 -0.00272426 0.986814)
(-0.00259984 -0.00273307 0.995393)
(-0.00299936 -0.00265314 0.968648)
(0.0028134 0.0032082 0.961971)
(0.00215686 0.00326804 0.992145)
(-0.000149226 0.00324318 0.98296)
(0.000211217 0.00327234 0.982661)
(-0.000839823 0.0032837 0.982245)
(-0.00107857 0.00329882 0.981973)
(-0.00205131 0.00331123 0.981842)
(-0.00137374 0.00328316 0.981671)
(-0.00402115 0.00329446 0.992692)
(-0.00404959 0.00310915 0.956833)
(0.00288043 0.00279949 0.994136)
(0.00220565 0.00284451 1.02464)
(-0.000114848 0.00284248 1.01534)
(0.000261116 0.0028788 1.01517)
(-0.000801579 0.0029124 1.01485)
(-0.00105279 0.00294928 1.01469)
(-0.00206474 0.00298053 1.01465)
(-0.00141586 0.00297871 1.01444)
(-0.00417995 0.00297946 1.0256)
(-0.00421509 0.00282557 0.988995)
(0.00285389 0.000546784 0.984148)
(0.00220243 0.000584458 1.01453)
(-8.86324e-05 0.00061266 1.00527)
(0.00028995 0.000650956 1.00505)
(-0.000762545 0.000707368 1.0047)
(-0.00101106 0.000773232 1.00449)
(-0.00202458 0.000844299 1.0044)
(-0.00139958 0.000918145 1.00417)
(-0.00416372 0.000962841 1.01515)
(-0.0041841 0.00104965 0.978819)
(0.0028871 0.00120066 0.983957)
(0.00224323 0.00125837 1.01448)
(-4.96779e-05 0.00129144 1.00517)
(0.000352071 0.00135336 1.00495)
(-0.000682997 0.00143859 1.00461)
(-0.000916327 0.00154638 1.00442)
(-0.00192128 0.00167515 1.00436)
(-0.00130076 0.00181844 1.00416)
(-0.00403047 0.00195987 1.01502)
(-0.00410281 0.00226076 0.979073)
(0.00290639 0.000343211 0.983726)
(0.00228619 0.000398002 1.01437)
(7.86526e-06 0.000442365 1.00501)
(0.000436944 0.000517839 1.00482)
(-0.000569477 0.000624106 1.00451)
(-0.000773729 0.000762699 1.00436)
(-0.00175288 0.000935644 1.00436)
(-0.00111738 0.00113797 1.00424)
(-0.00372081 0.00135638 1.0149)
(-0.00388689 0.00185296 0.979915)
(0.00293473 0.000242646 0.983689)
(0.00233768 0.000297592 1.01447)
(7.12207e-05 0.000344383 1.00507)
(0.000533174 0.000423675 1.00489)
(-0.000438593 0.000534664 1.00462)
(-0.000604783 0.000680936 1.00453)
(-0.00154748 0.000865937 1.00461)
(-0.000881672 0.00108637 1.00459)
(-0.0033216 0.00132422 1.01503)
(-0.00361579 0.0018727 0.981257)
(0.0029691 -0.000670099 0.983855)
(0.00239168 -0.000631454 1.01479)
(0.000131899 -0.000585298 1.00534)
(0.000626541 -0.000513877 1.00518)
(-0.00031222 -0.000414863 1.00494)
(-0.000441901 -0.00028596 1.00489)
(-0.00134806 -0.000124458 1.00505)
(-0.00065497 6.81667e-05 1.00514)
(-0.00295228 0.000259513 1.01536)
(-0.00336806 0.000717516 0.982703)
(0.0029798 -0.000149334 0.983972)
(0.00242938 -0.000115206 1.01498)
(0.000187026 -8.67948e-05 1.00551)
(0.000703494 -3.05576e-05 1.00536)
(-0.000210057 4.02433e-05 1.00514)
(-0.000313497 0.00013186 1.00513)
(-0.00119348 0.000245364 1.00534)
(-0.000492133 0.000371481 1.00548)
(-0.00269168 0.000494398 1.0155)
(-0.00318269 0.000767544 0.983646)
(0.00303255 -0.00241025 0.99334)
(0.00247979 -0.00239687 1.02455)
(0.000216236 -0.00234511 1.0149)
(0.000754758 -0.00230346 1.01472)
(-0.000148413 -0.00223888 1.01443)
(-0.000238453 -0.00216525 1.01435)
(-0.00111092 -0.00208651 1.01449)
(-0.000404322 -0.00199828 1.01455)
(-0.00258949 -0.00195817 1.02448)
(-0.00313399 -0.00182237 0.992709)
(0.00300221 -0.00296886 0.962383)
(0.00249474 -0.00299996 0.993582)
(0.000254541 -0.0029459 0.984138)
(0.000802974 -0.00293245 0.984054)
(-7.52575e-05 -0.00289214 0.983956)
(-0.000155815 -0.00285268 0.984081)
(-0.00101919 -0.00281806 0.984431)
(-0.00033449 -0.00276729 0.984727)
(-0.00251809 -0.00278011 0.994548)
(-0.00306141 -0.00270466 0.963308)
(0.0028216 0.00330958 0.956211)
(0.00203215 0.00337767 0.990638)
(-0.000287508 0.00334969 0.980387)
(5.89399e-05 0.00338307 0.98)
(-0.00115461 0.00339252 0.979533)
(-0.00137801 0.00340176 0.979195)
(-0.0025307 0.00339841 0.978979)
(-0.001814 0.00332762 0.978817)
(-0.00474793 0.00328159 0.99175)
(-0.00472678 0.00284745 0.949207)
(0.00290045 0.00282616 0.993264)
(0.00209037 0.00287885 1.02813)
(-0.00024576 0.00287846 1.01772)
(0.000116674 0.00292167 1.0175)
(-0.00111828 0.00295946 1.01715)
(-0.00136998 0.0029954 1.01692)
(-0.00259648 0.00301232 1.01678)
(-0.00195989 0.00296386 1.01645)
(-0.0051466 0.00287989 1.02951)
(-0.00508223 0.0024078 0.984889)
(0.00287088 0.000583825 0.981957)
(0.00208899 0.000632039 1.01666)
(-0.000212649 0.00066849 1.00631)
(0.000152676 0.000719017 1.00602)
(-0.00107043 0.00079332 1.00563)
(-0.00132347 0.000879886 1.00535)
(-0.00256283 0.00097208 1.00514)
(-0.00198512 0.00105881 1.0048)
(-0.00522389 0.00110428 1.01766)
(-0.00513324 0.00113916 0.973048)
(0.00291212 0.00130972 0.981686)
(0.00214102 0.00138332 1.01658)
(-0.000160829 0.00142731 1.00616)
(0.000235834 0.00151091 1.00588)
(-0.000963034 0.00162786 1.0055)
(-0.00119305 0.00178009 1.00525)
(-0.00242149 0.00197018 1.00507)
(-0.00183734 0.00219117 1.00476)
(-0.00502965 0.00243439 1.01743)
(-0.00500872 0.00299772 0.97358)
(0.0029375 0.00035987 0.981441)
(0.00219786 0.000430937 1.01649)
(-8.3003e-05 0.000490745 1.00602)
(0.000353046 0.000593874 1.00576)
(-0.000801209 0.000743218 1.00542)
(-0.000979886 0.000945776 1.00523)
(-0.00215235 0.00121362 1.00516)
(-0.00151856 0.0015557 1.00496)
(-0.00443444 0.00194399 1.01731)
(-0.00455735 0.00300784 0.975352)
(0.0029748 0.000348687 0.981382)
(0.00226619 0.000420732 1.01663)
(3.28814e-06 0.000483336 1.00609)
(0.000487373 0.000591927 1.00586)
(-0.000611997 0.000747966 1.00557)
(-0.000722616 0.00096182 1.00546)
(-0.00181406 0.00124851 1.00551)