/*--------------------------------*- C++ -*----------------------------------*\
  =========                 |
  \\      /  F ield         | OpenFOAM: The Open Source CFD Toolbox
   \\    /   O peration     | Website:  https://openfoam.org
    \\  /    A nd           | Version:  6
     \\/     M anipulation  |
\*---------------------------------------------------------------------------*/
FoamFile
{
    version     2.0;
    format      ascii;
    class       volScalarField;
    location    "0.79";
    object      T;
}
// * * * * * * * * * * * * * * * * * * * * * * * * * * * * * * * * * * * * * //

dimensions      [0 0 0 1 0 0 0];

internalField   nonuniform List<scalar> 
7000
(
106.4
106.398
106.395
106.39
106.385
106.379
106.372
106.367
106.363
106.361
106.4
106.398
106.395
106.39
106.385
106.379
106.372
106.367
106.363
106.361
106.4
106.398
106.395
106.39
106.385
106.379
106.372
106.367
106.363
106.361
106.4
106.398
106.395
106.39
106.385
106.379
106.372
106.367
106.363
106.361
106.4
106.398
106.395
106.39
106.385
106.379
106.372
106.367
106.363
106.361
106.4
106.398
106.395
106.39
106.385
106.379
106.372
106.367
106.363
106.361
106.4
106.398
106.395
106.39
106.385
106.379
106.372
106.367
106.363
106.361
106.4
106.398
106.395
106.39
106.385
106.379
106.372
106.367
106.363
106.361
106.4
106.398
106.395
106.39
106.385
106.379
106.372
106.367
106.363
106.361
106.4
106.398
106.395
106.39
106.385
106.379
106.372
106.367
106.363
106.361
99.224
99.2188
99.2086
99.1943
99.1768
99.1577
99.1387
99.1218
99.1091
99.1023
99.224
99.2187
99.2086
99.1943
99.1768
99.1577
99.1387
99.1218
99.1091
99.1023
99.224
99.2187
99.2086
99.1943
99.1768
99.1577
99.1387
99.1218
99.1091
99.1023
99.224
99.2187
99.2086
99.1943
99.1768
99.1577
99.1387
99.1218
99.1091
99.1023
99.224
99.2187
99.2086
99.1943
99.1768
99.1577
99.1387
99.1218
99.1091
99.1023
99.224
99.2187
99.2086
99.1943
99.1768
99.1577
99.1387
99.1218
99.1091
99.1023
99.224
99.2187
99.2086
99.1943
99.1768
99.1577
99.1387
99.1218
99.1091
99.1023
99.224
99.2187
99.2086
99.1943
99.1768
99.1577
99.1387
99.1218
99.1091
99.1023
99.224
99.2187
99.2086
99.1943
99.1768
99.1577
99.1387
99.1218
99.1091
99.1023
99.224
99.2187
99.2086
99.1943
99.1768
99.1577
99.1387
99.1218
99.1091
99.1023
92.1176
92.1087
92.0913
92.0666
92.0364
92.0031
91.9697
91.9398
91.9171
91.9049
92.1176
92.1086
92.0913
92.0666
92.0364
92.003
91.9696
91.9398
91.9171
91.9048
92.1176
92.1086
92.0913
92.0666
92.0364
92.003
91.9696
91.9397
91.9171
91.9048
92.1176
92.1086
92.0912
92.0666
92.0364
92.003
91.9696
91.9397
91.9171
91.9048
92.1176
92.1086
92.0912
92.0666
92.0364
92.003
91.9696
91.9397
91.9171
91.9048
92.1176
92.1086
92.0912
92.0666
92.0364
92.003
91.9696
91.9397
91.9171
91.9048
92.1176
92.1086
92.0912
92.0666
92.0364
92.003
91.9696
91.9397
91.9171
91.9048
92.1176
92.1086
92.0912
92.0666
92.0364
92.003
91.9696
91.9397
91.9171
91.9048
92.1176
92.1086
92.0913
92.0666
92.0364
92.003
91.9696
91.9398
91.9171
91.9048
92.1176
92.1086
92.0913
92.0666
92.0364
92.0031
91.9696
91.9398
91.9171
91.9048
85.1267
85.1137
85.0884
85.0524
85.0078
84.958
84.9075
84.8617
84.8265
84.8072
85.1267
85.1137
85.0884
85.0523
85.0077
84.958
84.9075
84.8617
84.8264
84.8072
85.1267
85.1137
85.0884
85.0523
85.0077
84.958
84.9075
84.8616
84.8264
84.8072
85.1266
85.1137
85.0884
85.0523
85.0077
84.9579
84.9074
84.8616
84.8264
84.8072
85.1266
85.1136
85.0884
85.0523
85.0077
84.9579
84.9074
84.8616
84.8264
84.8072
85.1266
85.1136
85.0884
85.0523
85.0077
84.9579
84.9074
84.8616
84.8264
84.8072
85.1266
85.1136
85.0884
85.0523
85.0077
84.9579
84.9074
84.8616
84.8264
84.8072
85.1266
85.1137
85.0884
85.0523
85.0077
84.9579
84.9074
84.8616
84.8264
84.8072
85.1266
85.1137
85.0884
85.0523
85.0077
84.958
84.9075
84.8616
84.8264
84.8072
85.1267
85.1137
85.0884
85.0523
85.0077
84.958
84.9075
84.8617
84.8265
84.8072
78.2955
78.2781
78.2442
78.1954
78.1343
78.065
77.9934
77.927
77.8748
77.8458
78.2954
78.2781
78.2442
78.1953
78.1342
78.065
77.9933
77.9269
77.8748
77.8457
78.2954
78.2781
78.2442
78.1953
78.1342
78.065
77.9933
77.9269
77.8747
77.8457
78.2954
78.278
78.2441
78.1953
78.1342
78.0649
77.9933
77.9269
77.8747
77.8457
78.2954
78.278
78.2441
78.1953
78.1342
78.0649
77.9933
77.9269
77.8747
77.8457
78.2954
78.278
78.2441
78.1953
78.1342
78.0649
77.9933
77.9269
77.8747
77.8457
78.2954
78.278
78.2441
78.1953
78.1342
78.0649
77.9933
77.9269
77.8747
77.8457
78.2954
78.278
78.2441
78.1953
78.1342
78.0649
77.9933
77.9269
77.8747
77.8457
78.2954
78.2781
78.2442
78.1953
78.1342
78.065
77.9933
77.9269
77.8748
77.8457
78.2954
78.2781
78.2442
78.1953
78.1342
78.065
77.9933
77.9269
77.8748
77.8458
71.6661
71.6442
71.601
71.5381
71.4582
71.3657
71.2673
71.1732
71.0967
71.0528
71.6661
71.6441
71.601
71.5381
71.4582
71.3656
71.2673
71.1732
71.0967
71.0528
71.6661
71.6441
71.6009
71.538
71.4581
71.3656
71.2673
71.1731
71.0966
71.0528
71.6661
71.6441
71.6009
71.538
71.4581
71.3656
71.2672
71.1731
71.0966
71.0527
71.666
71.6441
71.6009
71.538
71.4581
71.3656
71.2672
71.1731
71.0966
71.0527
71.666
71.6441
71.6009
71.538
71.4581
71.3656
71.2672
71.1731
71.0966
71.0527
71.666
71.6441
71.6009
71.538
71.4581
71.3656
71.2672
71.1731
71.0966
71.0527
71.6661
71.6441
71.6009
71.538
71.4581
71.3656
71.2672
71.1731
71.0966
71.0528
71.6661
71.6441
71.6009
71.538
71.4581
71.3656
71.2673
71.1732
71.0967
71.0528
71.6661
71.6441
71.601
71.5381
71.4582
71.3656
71.2673
71.1732
71.0967
71.0528
65.2783
65.2517
65.1991
65.1214
65.0208
64.901
64.7689
64.6365
64.523
64.4542
65.2783
65.2517
65.199
65.1214
65.0207
64.9009
64.7689
64.6365
64.5229
64.4542
65.2782
65.2516
65.199
65.1213
65.0207
64.9009
64.7688
64.6365
64.5229
64.4542
65.2782
65.2516
65.199
65.1213
65.0207
64.9009
64.7688
64.6364
64.5229
64.4541
65.2782
65.2516
65.199
65.1213
65.0207
64.9009
64.7688
64.6364
64.5229
64.4541
65.2782
65.2516
65.199
65.1213
65.0207
64.9009
64.7688
64.6364
64.5229
64.4541
65.2782
65.2516
65.199
65.1213
65.0207
64.9009
64.7688
64.6364
64.5229
64.4541
65.2782
65.2516
65.199
65.1213
65.0207
64.9009
64.7688
64.6364
64.5229
64.4542
65.2782
65.2517
65.199
65.1213
65.0207
64.9009
64.7689
64.6365
64.5229
64.4542
65.2782
65.2517
65.199
65.1214
65.0207
64.9009
64.7689
64.6365
64.5229
64.4542
59.1681
59.1374
59.076
58.9841
58.8623
58.7123
58.5389
58.3533
58.1802
58.0647
59.1681
59.1373
59.0759
58.984
58.8622
58.7122
58.5388
58.3533
58.1801
58.0647
59.168
59.1373
59.0759
58.984
58.8622
58.7122
58.5388
58.3532
58.1801
58.0647
59.168
59.1373
59.0759
58.984
58.8621
58.7122
58.5387
58.3532
58.1801
58.0646
59.168
59.1372
59.0759
58.984
58.8621
58.7122
58.5387
58.3532
58.1801
58.0646
59.168
59.1372
59.0759
58.984
58.8621
58.7122
58.5387
58.3532
58.1801
58.0646
59.168
59.1373
59.0759
58.984
58.8621
58.7122
58.5387
58.3532
58.1801
58.0646
59.168
59.1373
59.0759
58.984
58.8622
58.7122
58.5388
58.3532
58.1801
58.0647
59.168
59.1373
59.0759
58.984
58.8622
58.7122
58.5388
58.3532
58.1801
58.0647
59.168
59.1373
59.0759
58.984
58.8622
58.7123
58.5388
58.3533
58.1802
58.0647
53.3674
53.3337
53.2657
53.1624
53.022
52.8426
52.6225
52.3655
52.0931
51.8768
53.3674
53.3336
53.2656
53.1623
53.022
52.8425
52.6225
52.3654
52.0931
51.8767
53.3674
53.3336
53.2656
53.1623
53.022
52.8425
52.6224
52.3654
52.093
51.8767
53.3673
53.3336
53.2655
53.1622
53.0219
52.8425
52.6224
52.3654
52.093
51.8767
53.3673
53.3335
53.2655
53.1622
53.0219
52.8424
52.6224
52.3654
52.093
51.8767
53.3673
53.3335
53.2655
53.1622
53.0219
52.8424
52.6224
52.3654
52.093
51.8767
53.3673
53.3335
53.2655
53.1622
53.0219
52.8424
52.6224
52.3654
52.093
51.8767
53.3673
53.3336
53.2656
53.1623
53.0219
52.8425
52.6224
52.3654
52.093
51.8767
53.3674
53.3336
53.2656
53.1623
53.022
52.8425
52.6224
52.3654
52.0931
51.8767
53.3674
53.3336
53.2656
53.1623
53.022
52.8425
52.6225
52.3655
52.0931
51.8768
47.9029
47.868
47.7973
47.6886
47.5377
47.3373
47.0753
46.7344
46.3005
45.8295
47.9028
47.8679
47.7972
47.6885
47.5376
47.3372
47.0753
46.7344
46.3004
45.8294
47.9028
47.8679
47.7972
47.6885
47.5376
47.3372
47.0752
46.7343
46.3004
45.8294
47.9028
47.8679
47.7972
47.6885
47.5376
47.3371
47.0752
46.7343
46.3004
45.8293
47.9027
47.8678
47.7972
47.6885
47.5375
47.3371
47.0752
46.7343
46.3003
45.8293
47.9027
47.8678
47.7972
47.6884
47.5375
47.3371
47.0752
46.7343
46.3003
45.8293
47.9027
47.8679
47.7972
47.6885
47.5375
47.3371
47.0752
46.7343
46.3004
45.8293
47.9028
47.8679
47.7972
47.6885
47.5376
47.3372
47.0752
46.7343
46.3004
45.8294
47.9028
47.8679
47.7972
47.6885
47.5376
47.3372
47.0753
46.7344
46.3004
45.8294
47.9028
47.8679
47.7973
47.6886
47.5376
47.3372
47.0753
46.7344
46.3005
45.8295
42.7946
42.7612
42.6935
42.5889
42.4418
42.2416
41.9664
41.569
40.9323
39.7122
42.7945
42.7612
42.6935
42.5888
42.4417
42.2415
41.9664
41.5689
40.9322
39.7121
42.7945
42.7611
42.6935
42.5888
42.4417
42.2415
41.9663
41.5689
40.9322
39.7121
42.7945
42.7611
42.6934
42.5887
42.4417
42.2414
41.9663
41.5689
40.9321
39.7121
42.7944
42.7611
42.6934
42.5887
42.4416
42.2414
41.9663
41.5688
40.9321
39.712
42.7944
42.7611
42.6934
42.5887
42.4416
42.2414
41.9663
41.5688
40.9321
39.712
42.7945
42.7611
42.6934
42.5887
42.4417
42.2414
41.9663
41.5689
40.9321
39.712
42.7945
42.7611
42.6934
42.5888
42.4417
42.2415
41.9663
41.5689
40.9322
39.7121
42.7945
42.7612
42.6935
42.5888
42.4417
42.2415
41.9664
41.5689
40.9322
39.7121
42.7945
42.7612
42.6935
42.5888
42.4418
42.2416
41.9664
41.569
40.9323
39.7122
38.0554
38.0267
37.9687
37.8796
37.7556
37.5885
37.3616
37.0424
36.5703
35.8544
38.0554
38.0266
37.9686
37.8796
37.7556
37.5884
37.3616
37.0424
36.5703
35.8544
38.0553
38.0266
37.9686
37.8795
37.7555
37.5884
37.3615
37.0423
36.5702
35.8543
38.0553
38.0266
37.9686
37.8795
37.7555
37.5884
37.3615
37.0423
36.5702
35.8543
38.0553
38.0266
37.9685
37.8795
37.7555
37.5883
37.3615
37.0423
36.5702
35.8542
38.0553
38.0266
37.9685
37.8795
37.7555
37.5883
37.3615
37.0423
36.5702
35.8542
38.0553
38.0266
37.9685
37.8795
37.7555
37.5883
37.3615
37.0423
36.5702
35.8543
38.0553
38.0266
37.9686
37.8795
37.7555
37.5884
37.3615
37.0423
36.5702
35.8543
38.0553
38.0266
37.9686
37.8795
37.7555
37.5884
37.3615
37.0423
36.5703
35.8543
38.0554
38.0267
37.9686
37.8796
37.7556
37.5885
37.3616
37.0424
36.5703
35.8544
33.6905
33.6693
33.6272
33.5647
33.4817
33.377
33.2474
33.0878
32.8981
32.7115
33.6905
33.6693
33.6272
33.5646
33.4816
33.3769
33.2473
33.0877
32.898
32.7114
33.6904
33.6692
33.6271
33.5646
33.4816
33.3769
33.2472
33.0877
32.8979
32.7114
33.6904
33.6692
33.6271
33.5646
33.4815
33.3769
33.2472
33.0876
32.8979
32.7113
33.6904
33.6692
33.6271
33.5645
33.4815
33.3768
33.2472
33.0876
32.8979
32.7113
33.6904
33.6692
33.6271
33.5645
33.4815
33.3768
33.2472
33.0876
32.8979
32.7113
33.6904
33.6692
33.6271
33.5646
33.4815
33.3768
33.2472
33.0876
32.8979
32.7113
33.6904
33.6692
33.6271
33.5646
33.4816
33.3769
33.2472
33.0877
32.8979
32.7114
33.6905
33.6692
33.6272
33.5646
33.4816
33.3769
33.2473
33.0877
32.898
32.7114
33.6905
33.6693
33.6272
33.5647
33.4817
33.377
33.2473
33.0878
32.898
32.7115
29.6975
29.6859
29.6643
29.636
29.6058
29.5808
29.5712
29.5939
29.681
29.8997
29.6974
29.6858
29.6643
29.6359
29.6058
29.5808
29.5712
29.5938
29.6809
29.8996
29.6974
29.6858
29.6642
29.6359
29.6057
29.5807
29.5711
29.5938
29.6809
29.8995
29.6974
29.6858
29.6642
29.6359
29.6057
29.5807
29.5711
29.5938
29.6808
29.8995
29.6973
29.6857
29.6642
29.6359
29.6057
29.5807
29.5711
29.5937
29.6808
29.8995
29.6973
29.6857
29.6642
29.6359
29.6057
29.5807
29.5711
29.5937
29.6808
29.8995
29.6974
29.6858
29.6642
29.6359
29.6057
29.5807
29.5711
29.5938
29.6808
29.8995
29.6974
29.6858
29.6642
29.6359
29.6057
29.5807
29.5711
29.5938
29.6808
29.8995
29.6974
29.6858
29.6643
29.6359
29.6058
29.5807
29.5712
29.5938
29.6809
29.8996
29.6974
29.6859
29.6643
29.636
29.6058
29.5808
29.5712
29.5939
29.681
29.8996
26.0673
26.0663
26.0673
26.0764
26.1033
26.1625
26.2749
26.4708
26.7955
27.3166
26.0672
26.0662
26.0673
26.0764
26.1033
26.1625
26.2748
26.4707
26.7954
27.3165
26.0672
26.0662
26.0672
26.0763
26.1033
26.1624
26.2747
26.4707
26.7954
27.3164
26.0671
26.0662
26.0672
26.0763
26.1032
26.1624
26.2747
26.4707
26.7954
27.3164
26.0671
26.0662
26.0672
26.0763
26.1032
26.1624
26.2747
26.4706
26.7953
27.3164
26.0671
26.0662
26.0672
26.0763
26.1032
26.1624
26.2747
26.4706
26.7953
27.3164
26.0671
26.0662
26.0672
26.0763
26.1032
26.1624
26.2747
26.4707
26.7954
27.3164
26.0671
26.0662
26.0672
26.0763
26.1032
26.1624
26.2747
26.4707
26.7954
27.3164
26.0672
26.0662
26.0673
26.0764
26.1033
26.1624
26.2748
26.4707
26.7954
27.3165
26.0672
26.0663
26.0673
26.0764
26.1033
26.1625
26.2748
26.4708
26.7955
27.3165
22.7856
22.7951
22.8181
22.8633
22.9444
23.0821
23.305
23.6526
24.1756
24.9343
22.7856
22.795
22.8181
22.8632
22.9444
23.082
23.305
23.6526
24.1755
24.9342
22.7855
22.795
22.818
22.8632
22.9443
23.082
23.3049
23.6525
24.1754
24.9342
22.7855
22.795
22.818
22.8632
22.9443
23.0819
23.3049
23.6525
24.1754
24.9342
22.7855
22.7949
22.818
22.8632
22.9443
23.0819
23.3049
23.6525
24.1754
24.9341
22.7855
22.7949
22.818
22.8632
22.9443
23.0819
23.3049
23.6525
24.1754
24.9341
22.7855
22.795
22.818
22.8632
22.9443
23.0819
23.3049
23.6525
24.1754
24.9342
22.7855
22.795
22.818
22.8632
22.9443
23.082
23.3049
23.6525
24.1754
24.9342
22.7855
22.795
22.8181
22.8632
22.9444
23.082
23.305
23.6526
24.1755
24.9342
22.7856
22.7951
22.8181
22.8633
22.9444
23.082
23.305
23.6526
24.1756
24.9343
19.8347
19.8532
19.8952
19.9711
20.0977
20.3001
20.6138
21.086
21.7749
22.7406
19.8347
19.8532
19.8952
19.971
20.0976
20.3001
20.6137
21.0859
21.7749
22.7405
19.8347
19.8532
19.8952
19.971
20.0976
20.3
20.6137
21.0859
21.7748
22.7404
19.8346
19.8531
19.8951
19.971
20.0976
20.3
20.6136
21.0858
21.7748
22.7404
19.8346
19.8531
19.8951
19.971
20.0976
20.3
20.6136
21.0858
21.7748
22.7404
19.8346
19.8531
19.8951
19.971
20.0976
20.3
20.6136
21.0858
21.7748
22.7404
19.8346
19.8531
19.8951
19.971
20.0976
20.3
20.6136
21.0858
21.7748
22.7404
19.8346
19.8532
19.8952
19.971
20.0976
20.3
20.6137
21.0859
21.7748
22.7404
19.8347
19.8532
19.8952
19.971
20.0976
20.3001
20.6137
21.0859
21.7749
22.7405
19.8347
19.8532
19.8952
19.9711
20.0977
20.3001
20.6138
21.086
21.7749
22.7406
17.1948
17.2201
17.2761
17.374
17.5325
17.7794
18.1554
18.7176
19.5413
20.7095
17.1948
17.2201
17.276
17.374
17.5324
17.7794
18.1554
18.7176
19.5413
20.7094
17.1947
17.22
17.276
17.3739
17.5324
17.7793
18.1554
18.7175
19.5412
20.7094
17.1947
17.22
17.276
17.3739
17.5324
17.7793
18.1553
18.7175
19.5412
20.7093
17.1947
17.22
17.276
17.3739
17.5324
17.7793
18.1553
18.7175
19.5412
20.7093
17.1947
17.22
17.276
17.3739
17.5324
17.7793
18.1553
18.7175
19.5412
20.7093
17.1947
17.22
17.276
17.3739
17.5324
17.7793
18.1553
18.7175
19.5412
20.7093
17.1947
17.22
17.276
17.3739
17.5324
17.7793
18.1554
18.7175
19.5412
20.7094
17.1948
17.22
17.276
17.374
17.5324
17.7794
18.1554
18.7176
19.5413
20.7094
17.1948
17.2201
17.2761
17.374
17.5325
17.7794
18.1555
18.7176
19.5413
20.7095
14.8455
14.8748
14.9386
15.048
15.2213
15.4867
15.8864
16.4862
17.3904
18.7601
14.8455
14.8747
14.9385
15.048
15.2213
15.4866
15.8864
16.4862
17.3903
18.7601
14.8454
14.8747
14.9385
15.0479
15.2213
15.4866
15.8863
16.4861
17.3903
18.76
14.8454
14.8747
14.9385
15.0479
15.2212
15.4865
15.8863
16.4861
17.3903
18.76
14.8454
14.8747
14.9385
15.0479
15.2212
15.4865
15.8863
16.4861
17.3902
18.76
14.8454
14.8747
14.9385
15.0479
15.2212
15.4865
15.8863
16.4861
17.3902
18.76
14.8454
14.8747
14.9385
15.0479
15.2212
15.4865
15.8863
16.4861
17.3903
18.76
14.8454
14.8747
14.9385
15.0479
15.2213
15.4866
15.8863
16.4861
17.3903
18.76
14.8455
14.8747
14.9385
15.048
15.2213
15.4866
15.8864
16.4862
17.3903
18.7601
14.8455
14.8748
14.9386
15.048
15.2213
15.4867
15.8864
16.4862
17.3904
18.7601
12.7671
12.7974
12.8627
12.9727
13.1431
13.3976
13.7726
14.3275
15.1787
16.6242
12.767
12.7974
12.8627
12.9727
13.143
13.3976
13.7725
14.3274
15.1787
16.6241
12.767
12.7973
12.8627
12.9726
13.143
13.3975
13.7725
14.3274
15.1786
16.6241
12.767
12.7973
12.8626
12.9726
13.143
13.3975
13.7725
14.3274
15.1786
16.6241
12.767
12.7973
12.8626
12.9726
13.143
13.3975
13.7725
14.3274
15.1786
16.624
12.767
12.7973
12.8626
12.9726
13.143
13.3975
13.7725
14.3274
15.1786
16.624
12.767
12.7973
12.8626
12.9726
13.143
13.3975
13.7725
14.3274
15.1786
16.6241
12.767
12.7973
12.8627
12.9726
13.143
13.3975
13.7725
14.3274
15.1786
16.6241
12.767
12.7974
12.8627
12.9727
13.143
13.3976
13.7725
14.3274
15.1787
16.6241
12.7671
12.7974
12.8627
12.9727
13.1431
13.3976
13.7726
14.3275
15.1787
16.6242
36.6893
35.9702
36.8771
39.1938
42.9097
48.1493
55.1762
64.4579
76.8421
94.0278
36.6892
35.9701
36.8771
39.1937
42.9096
48.1492
55.1761
64.4578
76.842
94.0276
36.6891
35.97
36.877
39.1937
42.9095
48.1491
55.176
64.4577
76.8419
94.0275
36.6891
35.97
36.8769
39.1936
42.9094
48.149
55.1759
64.4576
76.8418
94.0274
36.6891
35.9699
36.8769
39.1936
42.9094
48.149
55.1759
64.4576
76.8418
94.0274
36.6891
35.9699
36.8769
39.1936
42.9094
48.149
55.1759
64.4576
76.8418
94.0274
36.6891
35.9699
36.8769
39.1936
42.9094
48.149
55.1759
64.4576
76.8418
94.0274
36.6891
35.97
36.8769
39.1936
42.9094
48.149
55.1759
64.4576
76.8419
94.0275
36.6891
35.97
36.877
39.1937
42.9095
48.1491
55.176
64.4577
76.8419
94.0276
36.6892
35.9701
36.8771
39.1937
42.9096
48.1492
55.1761
64.4578
76.842
94.0276
34.9047
34.9162
36.0879
38.4612
42.0967
47.1153
53.7152
62.1869
72.9062
86.1803
34.9046
34.9161
36.0878
38.4611
42.0966
47.1152
53.7151
62.1868
72.9061
86.1802
34.9046
34.916
36.0877
38.461
42.0965
47.1151
53.715
62.1867
72.906
86.1801
34.9045
34.916
36.0877
38.4609
42.0964
47.1151
53.715
62.1867
72.9059
86.18
34.9045
34.9159
36.0877
38.4609
42.0964
47.115
53.7149
62.1866
72.9059
86.18
34.9045
34.9159
36.0877
38.4609
42.0964
47.115
53.7149
62.1866
72.9059
86.18
34.9045
34.9159
36.0877
38.4609
42.0964
47.115
53.7149
62.1866
72.9059
86.18
34.9046
34.916
36.0877
38.461
42.0965
47.1151
53.715
62.1867
72.906
86.18
34.9046
34.916
36.0878
38.461
42.0965
47.1151
53.7151
62.1868
72.9061
86.1801
34.9047
34.9161
36.0878
38.4611
42.0966
47.1152
53.7152
62.1869
72.9062
86.1802
32.6864
33.2763
34.7177
37.1317
40.6097
45.2513
51.1739
58.4974
67.2787
77.3277
32.6864
33.2762
34.7176
37.1316
40.6096
45.2512
51.1738
58.4972
67.2785
77.3276
32.6863
33.2762
34.7175
37.1315
40.6095
45.2511
51.1737
58.4971
67.2784
77.3275
32.6863
33.2761
34.7175
37.1315
40.6095
45.2511
51.1736
58.4971
67.2784
77.3274
32.6862
33.2761
34.7174
37.1314
40.6095
45.251
51.1736
58.497
67.2783
77.3274
32.6862
33.2761
34.7174
37.1314
40.6095
45.251
51.1736
58.497
67.2783
77.3274
32.6862
33.2761
34.7175
37.1314
40.6095
45.251
51.1736
58.4971
67.2783
77.3274
32.6863
33.2761
34.7175
37.1315
40.6095
45.2511
51.1737
58.4971
67.2784
77.3275
32.6863
33.2762
34.7176
37.1316
40.6096
45.2512
51.1738
58.4972
67.2785
77.3275
32.6864
33.2763
34.7176
37.1316
40.6097
45.2513
51.1739
58.4973
67.2786
77.3277
30.386
31.3607
32.9942
35.401
38.6647
42.8531
48.0181
54.1732
61.2406
68.9514
30.3859
31.3607
32.9941
35.4009
38.6646
42.853
48.0179
54.1731
61.2405
68.9513
30.3859
31.3606
32.994
35.4009
38.6645
42.8529
48.0179
54.173
61.2404
68.9512
30.3858
31.3605
32.994
35.4008
38.6645
42.8529
48.0178
54.173
61.2403
68.9511
30.3858
31.3605
32.994
35.4008
38.6644
42.8529
48.0178
54.1729
61.2403
68.9511
30.3858
31.3605
32.9939
35.4008
38.6644
42.8529
48.0178
54.1729
61.2403
68.9511
30.3858
31.3605
32.994
35.4008
38.6645
42.8529
48.0178
54.173
61.2403
68.9511
30.3859
31.3606
32.994
35.4008
38.6645
42.8529
48.0178
54.173
61.2404
68.9512
30.3859
31.3606
32.9941
35.4009
38.6646
42.853
48.0179
54.1731
61.2405
68.9513
30.386
31.3607
32.9942
35.401
38.6647
42.8531
48.018
54.1732
61.2406
68.9514
28.1312
29.361
31.1137
33.472
36.495
40.2189
44.6508
49.7519
55.4073
61.3889
28.1312
29.3609
31.1136
33.4719
36.4949
40.2188
44.6507
49.7518
55.4072
61.3888
28.1311
29.3608
31.1135
33.4718
36.4948
40.2187
44.6506
49.7517
55.4071
61.3887
28.1311
29.3608
31.1135
33.4718
36.4947
40.2186
44.6506
49.7517
55.407
61.3886
28.131
29.3608
31.1135
33.4718
36.4947
40.2186
44.6506
49.7516
55.407
61.3886
28.131
29.3608
31.1135
33.4718
36.4947
40.2186
44.6506
49.7516
55.407
61.3886
28.1311
29.3608
31.1135
33.4718
36.4947
40.2186
44.6506
49.7517
55.407
61.3886
28.1311
29.3608
31.1135
33.4718
36.4948
40.2187
44.6506
49.7517
55.4071
61.3887
28.1312
29.3609
31.1136
33.4719
36.4949
40.2187
44.6507
49.7518
55.4072
61.3888
28.1312
29.361
31.1137
33.472
36.495
40.2188
44.6508
49.7519
55.4073
61.3889
25.9926
27.4089
29.239
31.5309
34.3174
37.6088
41.3841
45.5807
50.0838
54.7225
25.9925
27.4088
29.2389
31.5308
34.3173
37.6087
41.384
45.5805
50.0837
54.7224
25.9925
27.4087
29.2388
31.5307
34.3172
37.6086
41.3839
45.5804
50.0836
54.7223
25.9924
27.4087
29.2388
31.5306
34.3172
37.6086
41.3838
45.5804
50.0835
54.7222
25.9924
27.4087
29.2387
31.5306
34.3172
37.6086
41.3838
45.5804
50.0835
54.7222
25.9924
27.4087
29.2387
31.5306
34.3172
37.6086
41.3838
45.5804
50.0835
54.7222
25.9924
27.4087
29.2388
31.5306
34.3172
37.6086
41.3838
45.5804
50.0835
54.7223
25.9925
27.4087
29.2388
31.5307
34.3172
37.6086
41.3839
45.5804
50.0836
54.7223
25.9925
27.4088
29.2389
31.5308
34.3173
37.6087
41.384
45.5805
50.0837
54.7224
25.9926
27.4089
29.2389
31.5308
34.3174
37.6088
41.3841
45.5806
50.0838
54.7225
24.0208
25.6071
27.5071
29.7404
32.3201
35.2382
38.4552
41.8949
45.4464
48.981
24.0207
25.607
27.507
29.7403
32.32
35.2381
38.4551
41.8947
45.4463
48.9808
24.0206
25.6069
27.5069
29.7402
32.32
35.238
38.455
41.8947
45.4462
48.9807
24.0206
25.6069
27.5069
29.7402
32.3199
35.238
38.4549
41.8946
45.4462
48.9807
24.0206
25.6069
27.5069
29.7401
32.3199
35.238
38.4549
41.8946
45.4462
48.9807
24.0206
25.6069
27.5069
29.7401
32.3199
35.238
38.4549
41.8946
45.4462
48.9807
24.0206
25.6069
27.5069
29.7402
32.3199
35.238
38.4549
41.8946
45.4462
48.9807
24.0206
25.6069
27.5069
29.7402
32.32
35.2381
38.455
41.8947
45.4462
48.9808
24.0207
25.607
27.507
29.7403
32.32
35.2381
38.4551
41.8947
45.4463
48.9808
24.0208
25.6071
27.5071
29.7404
32.3201
35.2382
38.4552
41.8949
45.4465
48.981
22.2581
24.0473
26.0387
28.241
30.6615
33.2828
36.052
38.8764
41.6325
44.1971
22.258
24.0472
26.0386
28.2409
30.6614
33.2827
36.0519
38.8763
41.6323
44.1969
22.2579
24.0471
26.0386
28.2408
30.6613
33.2827
36.0518
38.8762
41.6323
44.1969
22.2579
24.0471
26.0385
28.2408
30.6612
33.2826
36.0517
38.8762
41.6322
44.1968
22.2579
24.0471
26.0385
28.2408
30.6612
33.2826
36.0517
38.8762
41.6322
44.1968
22.2579
24.0471
26.0385
28.2408
30.6612
33.2826
36.0517
38.8762
41.6322
44.1968
22.2579
24.0471
26.0385
28.2408
30.6612
33.2826
36.0517
38.8762
41.6322
44.1968
22.2579
24.0471
26.0386
28.2408
30.6613
33.2827
36.0518
38.8762
41.6323
44.1969
22.258
24.0472
26.0387
28.2409
30.6614
33.2828
36.0519
38.8763
41.6324
44.197
22.2581
24.0473
26.0387
28.241
30.6615
33.2829
36.052
38.8764
41.6325
44.1971
20.7579
22.8313
24.9485
27.1535
29.4712
31.8855
34.332
36.6937
38.8009
40.4567
20.7578
22.8312
24.9484
27.1534
29.4711
31.8854
34.3319
36.6936
38.8008
40.4566
20.7578
22.8311
24.9483
27.1534
29.4711
31.8853
34.3318
36.6935
38.8008
40.4565
20.7577
22.8311
24.9483
27.1533
29.471
31.8853
34.3318
36.6935
38.8007
40.4564
20.7577
22.8311
24.9483
27.1533
29.471
31.8852
34.3317
36.6934
38.8007
40.4564
20.7577
22.8311
24.9483
27.1533
29.471
31.8852
34.3318
36.6934
38.8007
40.4564
20.7577
22.8311
24.9483
27.1534
29.471
31.8853
34.3318
36.6935
38.8007
40.4565
20.7578
22.8312
24.9484
27.1534
29.4711
31.8853
34.3318
36.6935
38.8008
40.4565
20.7578
22.8312
24.9484
27.1535
29.4712
31.8854
34.3319
36.6936
38.8009
40.4566
20.7579
22.8313
24.9485
27.1536
29.4713
31.8855
34.332
36.6937
38.801
40.4567
19.6713
22.1083
24.3523
26.5777
28.8479
31.1552
33.4278
35.5229
37.1989
38.0423
19.6713
22.1082
24.3522
26.5776
28.8479
31.1551
33.4277
35.5228
37.1988
38.0422
19.6712
22.1082
24.3522
26.5775
28.8478
31.155
33.4277
35.5227
37.1987
38.0421
19.6712
22.1081
24.3521
26.5775
28.8478
31.155
33.4276
35.5227
37.1987
38.0421
19.6712
22.1081
24.3521
26.5775
28.8478
31.155
33.4276
35.5227
37.1987
38.042
19.6712
22.1081
24.3521
26.5775
28.8478
31.155
33.4276
35.5227
37.1987
38.0421
19.6712
22.1081
24.3522
26.5775
28.8478
31.155
33.4276
35.5227
37.1987
38.0421
19.6713
22.1082
24.3522
26.5776
28.8478
31.155
33.4277
35.5227
37.1988
38.0421
19.6713
22.1082
24.3523
26.5776
28.8479
31.1551
33.4278
35.5228
37.1988
38.0422
19.6714
22.1083
24.3523
26.5777
28.848
31.1552
33.4279
35.5229
37.199
38.0423
119.955
132.31
139.903
145.231
149.181
152.153
154.359
155.926
156.934
157.427
119.955
132.31
139.903
145.23
149.181
152.153
154.359
155.926
156.934
157.426
119.954
132.31
139.903
145.23
149.181
152.153
154.359
155.926
156.933
157.426
119.954
132.31
139.903
145.23
149.181
152.153
154.359
155.926
156.933
157.426
119.954
132.31
139.903
145.23
149.181
152.153
154.359
155.926
156.933
157.426
119.954
132.31
139.903
145.23
149.181
152.153
154.359
155.926
156.933
157.426
119.954
132.31
139.903
145.23
149.181
152.153
154.359
155.926
156.933
157.426
119.954
132.31
139.903
145.23
149.181
152.153
154.359
155.926
156.933
157.426
119.955
132.31
139.903
145.23
149.181
152.153
154.359
155.926
156.934
157.427
119.955
132.31
139.903
145.231
149.181
152.153
154.359
155.926
156.934
157.427
101.352
112.404
120.231
125.923
130.156
133.324
135.662
137.317
138.376
138.894
101.352
112.404
120.231
125.922
130.155
133.324
135.662
137.316
138.376
138.894
101.352
112.404
120.231
125.922
130.155
133.323
135.662
137.316
138.376
138.893
101.352
112.403
120.231
125.922
130.155
133.323
135.662
137.316
138.376
138.893
101.352
112.403
120.231
125.922
130.155
133.323
135.662
137.316
138.376
138.893
101.352
112.403
120.231
125.922
130.155
133.323
135.662
137.316
138.376
138.893
101.352
112.403
120.231
125.922
130.155
133.323
135.662
137.316
138.376
138.893
101.352
112.404
120.231
125.922
130.155
133.324
135.662
137.316
138.376
138.893
101.352
112.404
120.231
125.922
130.155
133.324
135.662
137.316
138.376
138.894
101.352
112.404
120.231
125.923
130.156
133.324
135.662
137.317
138.376
138.894
87.7881
96.6596
103.651
109.046
113.181
116.322
118.659
120.317
121.381
121.901
87.7879
96.6595
103.651
109.046
113.181
116.322
118.658
120.317
121.381
121.901
87.7878
96.6594
103.651
109.045
113.181
116.322
118.658
120.317
121.381
121.901
87.7877
96.6593
103.651
109.045
113.18
116.322
118.658
120.317
121.381
121.901
87.7877
96.6593
103.651
109.045
113.18
116.322
118.658
120.317
121.381
121.901
87.7877
96.6593
103.651
109.045
113.18
116.322
118.658
120.317
121.381
121.901
87.7877
96.6593
103.651
109.045
113.181
116.322
118.658
120.317
121.381
121.901
87.7878
96.6594
103.651
109.045
113.181
116.322
118.658
120.317
121.381
121.901
87.7879
96.6595
103.651
109.046
113.181
116.322
118.658
120.317
121.381
121.901
87.788
96.6596
103.651
109.046
113.181
116.322
118.659
120.317
121.381
121.901
76.7265
83.7323
89.6253
94.4024
98.1888
101.128
103.345
104.932
105.955
106.457
76.7264
83.7322
89.6252
94.4023
98.1887
101.128
103.345
104.931
105.955
106.457
76.7263
83.7321
89.6251
94.4022
98.1886
101.128
103.344
104.931
105.955
106.457
76.7262
83.732
89.625
94.4021
98.1885
101.128
103.344
104.931
105.955
106.457
76.7262
83.732
89.625
94.4021
98.1885
101.128
103.344
104.931
105.955
106.457
76.7262
83.732
89.625
94.4021
98.1885
101.128
103.344
104.931
105.955
106.457
76.7262
83.732
89.625
94.4021
98.1885
101.128
103.344
104.931
105.955
106.457
76.7263
83.7321
89.6251
94.4022
98.1886
101.128
103.344
104.931
105.955
106.457
76.7264
83.7322
89.6252
94.4023
98.1887
101.128
103.345
104.931
105.955
106.457
76.7265
83.7323
89.6253
94.4024
98.1888
101.128
103.345
104.932
105.955
106.457
67.3389
72.8457
77.6634
81.7158
85.0249
87.652
89.6647
91.1219
92.0686
92.5347
67.3388
72.8456
77.6633
81.7157
85.0247
87.6519
89.6646
91.1218
92.0685
92.5346
67.3387
72.8455
77.6632
81.7156
85.0246
87.6518
89.6645
91.1217
92.0684
92.5345
67.3386
72.8454
77.6631
81.7155
85.0246
87.6517
89.6644
91.1216
92.0684
92.5344
67.3386
72.8454
77.6631
81.7155
85.0245
87.6517
89.6644
91.1216
92.0683
92.5344
67.3386
72.8454
77.6631
81.7155
85.0245
87.6517
89.6644
91.1216
92.0684
92.5344
67.3386
72.8454
77.6631
81.7155
85.0246
87.6517
89.6644
91.1217
92.0684
92.5345
67.3387
72.8455
77.6632
81.7156
85.0246
87.6518
89.6645
91.1217
92.0685
92.5345
67.3388
72.8456
77.6633
81.7157
85.0248
87.6519
89.6646
91.1219
92.0686
92.5347
67.3389
72.8457
77.6635
81.7158
85.0249
87.652
89.6648
91.122
92.0687
92.5348
59.2845
63.5604
67.399
70.7217
73.507
75.7666
77.5271
78.8174
79.6627
80.0807
59.2843
63.5603
67.3988
70.7215
73.5068
75.7665
77.527
78.8173
79.6625
80.0806
59.2843
63.5602
67.3987
70.7214
73.5067
75.7664
77.5269
78.8172
79.6624
80.0806
59.2842
63.5601
67.3987
70.7214
73.5067
75.7663
77.5268
78.8171
79.6624
80.0805
59.2842
63.5601
67.3986
70.7213
73.5066
75.7663
77.5268
78.8171
79.6624
80.0805
59.2842
63.5601
67.3986
70.7213
73.5066
75.7663
77.5268
78.8171
79.6624
80.0805
59.2842
63.5601
67.3987
70.7214
73.5067
75.7664
77.5268
78.8172
79.6624
80.0805
59.2843
63.5602
67.3987
70.7215
73.5067
75.7664
77.5269
78.8172
79.6625
80.0806
59.2844
63.5603
67.3989
70.7216
73.5068
75.7665
77.527
78.8173
79.6626
80.0807
59.2845
63.5604
67.399
70.7217
73.507
75.7667
77.5272
78.8175
79.6628
80.0809
52.3871
55.6039
58.5596
61.1901
63.4536
65.3311
66.8199
67.9255
68.6563
69.0197
52.387
55.6037
58.5595
61.19
63.4534
65.331
66.8198
67.9254
68.6562
69.0196
52.3869
55.6036
58.5594
61.1899
63.4534
65.3309
66.8197
67.9253
68.6561
69.0195
52.3868
55.6036
58.5594
61.1898
63.4533
65.3309
66.8196
67.9252
68.656
69.0195
52.3868
55.6036
58.5593
61.1898
63.4533
65.3308
66.8196
67.9252
68.656
69.0194
52.3868
55.6036
58.5593
61.1898
63.4533
65.3308
66.8196
67.9252
68.656
69.0195
52.3868
55.6036
58.5594
61.1898
63.4533
65.3309
66.8196
67.9252
68.6561
69.0195
52.3869
55.6037
58.5594
61.1899
63.4534
65.3309
66.8197
67.9253
68.6561
69.0196
52.387
55.6038
58.5595
61.19
63.4535
65.3311
66.8198
67.9254
68.6563
69.0197
52.3871
55.6039
58.5597
61.1901
63.4536
65.3312
66.82
67.9256
68.6564
69.0198
46.528
48.7743
50.9269
52.9206
54.6934
56.2022
57.4223
58.3414
58.955
59.2618
46.5278
48.7742
50.9268
52.9205
54.6933
56.2021