/*--------------------------------*- C++ -*----------------------------------*\
  =========                 |
  \\      /  F ield         | OpenFOAM: The Open Source CFD Toolbox
   \\    /   O peration     | Website:  https://openfoam.org
    \\  /    A nd           | Version:  6
     \\/     M anipulation  |
\*---------------------------------------------------------------------------*/
FoamFile
{
    version     2.0;
    format      ascii;
    class       volScalarField;
    location    "0.05";
    object      T;
}
// * * * * * * * * * * * * * * * * * * * * * * * * * * * * * * * * * * * * * //

dimensions      [0 0 0 1 0 0 0];

internalField   nonuniform List<scalar> 
56000
(
0.984097
0.984097
0.984174
0.984174
0.984234
0.984234
0.984275
0.984275
0.984302
0.984302
0.984322
0.984322
0.984336
0.984336
0.984345
0.984345
0.984351
0.984351
0.984354
0.984354
0.984354
0.984354
0.984351
0.984351
0.984345
0.984345
0.984336
0.984336
0.984322
0.984322
0.984302
0.984302
0.984275
0.984275
0.984234
0.984234
0.984174
0.984174
0.984097
0.984097
0.951868
0.951868
0.952013
0.952013
0.952147
0.952147
0.952249
0.952249
0.952325
0.952325
0.952381
0.952381
0.952422
0.952422
0.95245
0.95245
0.952468
0.952468
0.952477
0.952477
0.952477
0.952477
0.952468
0.952468
0.95245
0.95245
0.952422
0.952422
0.952381
0.952381
0.952325
0.952325
0.952249
0.952249
0.952147
0.952147
0.952013
0.952013
0.951868
0.951868
0.919144
0.919144
0.919322
0.919322
0.919503
0.919503
0.91965
0.91965
0.919765
0.919765
0.919852
0.919852
0.919916
0.919916
0.919962
0.919962
0.919991
0.919991
0.920005
0.920005
0.920005
0.920005
0.919991
0.919991
0.919962
0.919962
0.919916
0.919916
0.919852
0.919852
0.919765
0.919765
0.91965
0.91965
0.919503
0.919503
0.919322
0.919322
0.919144
0.919144
0.885884
0.885884
0.886083
0.886083
0.886294
0.886294
0.886473
0.886473
0.886618
0.886618
0.88673
0.88673
0.886815
0.886815
0.886875
0.886875
0.886915
0.886915
0.886934
0.886934
0.886934
0.886934
0.886915
0.886915
0.886875
0.886875
0.886815
0.886815
0.88673
0.88673
0.886618
0.886618
0.886473
0.886473
0.886294
0.886294
0.886083
0.886083
0.885884
0.885884
0.852062
0.852062
0.852275
0.852275
0.852507
0.852507
0.85271
0.85271
0.852877
0.852877
0.85301
0.85301
0.853111
0.853111
0.853185
0.853185
0.853233
0.853233
0.853256
0.853256
0.853256
0.853256
0.853233
0.853233
0.853185
0.853185
0.853111
0.853111
0.85301
0.85301
0.852877
0.852877
0.85271
0.85271
0.852507
0.852507
0.852275
0.852275
0.852062
0.852062
0.817658
0.817658
0.817881
0.817881
0.818129
0.818129
0.81835
0.81835
0.818535
0.818535
0.818684
0.818684
0.818799
0.818799
0.818883
0.818883
0.818938
0.818938
0.818965
0.818965
0.818965
0.818965
0.818938
0.818938
0.818883
0.818883
0.818799
0.818799
0.818684
0.818684
0.818535
0.818535
0.81835
0.81835
0.818129
0.818129
0.817881
0.817881
0.817658
0.817658
0.782656
0.782656
0.782887
0.782887
0.783147
0.783147
0.783382
0.783382
0.783581
0.783581
0.783742
0.783742
0.783869
0.783869
0.783962
0.783962
0.784023
0.784023
0.784053
0.784053
0.784053
0.784053
0.784023
0.784023
0.783962
0.783962
0.783869
0.783869
0.783742
0.783742
0.783581
0.783581
0.783382
0.783382
0.783147
0.783147
0.782887
0.782887
0.782656
0.782656
0.74704
0.74704
0.747279
0.747279
0.747548
0.747548
0.747794
0.747794
0.748004
0.748004
0.748177
0.748177
0.748312
0.748312
0.748412
0.748412
0.748478
0.748478
0.74851
0.74851
0.74851
0.74851
0.748478
0.748478
0.748412
0.748412
0.748312
0.748312
0.748177
0.748177
0.748004
0.748004
0.747794
0.747794
0.747548
0.747548
0.747279
0.747279
0.74704
0.74704
0.710798
0.710798
0.711043
0.711043
0.71132
0.71132
0.711576
0.711576
0.711795
0.711795
0.711976
0.711976
0.712118
0.712118
0.712224
0.712224
0.712294
0.712294
0.712328
0.712328
0.712328
0.712328
0.712294
0.712294
0.712224
0.712224
0.712118
0.712118
0.711976
0.711976
0.711795
0.711795
0.711576
0.711576
0.71132
0.71132
0.711043
0.711043
0.710798
0.710798
0.673916
0.673916
0.674166
0.674166
0.674451
0.674451
0.674714
0.674714
0.674941
0.674941
0.675128
0.675128
0.675277
0.675277
0.675388
0.675387
0.675461
0.675461
0.675497
0.675497
0.675497
0.675497
0.675461
0.675461
0.675388
0.675387
0.675277
0.675277
0.675128
0.675128
0.674941
0.674941
0.674714
0.674714
0.674451
0.674451
0.674166
0.674166
0.673916
0.673916
0.636381
0.636381
0.636637
0.636637
0.636928
0.636928
0.637198
0.637198
0.637431
0.637431
0.637624
0.637624
0.637778
0.637778
0.637892
0.637892
0.637967
0.637967
0.638005
0.638005
0.638005
0.638005
0.637967
0.637967
0.637892
0.637892
0.637778
0.637778
0.637624
0.637624
0.637431
0.637431
0.637198
0.637198
0.636928
0.636928
0.636637
0.636637
0.636381
0.636381
0.598182
0.598182
0.598442
0.598442
0.59874
0.59874
0.599015
0.599015
0.599253
0.599253
0.599451
0.599451
0.599608
0.599608
0.599725
0.599725
0.599803
0.599803
0.599842
0.599842
0.599842
0.599842
0.599803
0.599803
0.599725
0.599725
0.599608
0.599608
0.599451
0.599451
0.599253
0.599253
0.599015
0.599015
0.59874
0.59874
0.598442
0.598442
0.598182
0.598182
0.559307
0.559306
0.559571
0.559571
0.559874
0.559874
0.560154
0.560154
0.560396
0.560396
0.560598
0.560597
0.560757
0.560757
0.560876
0.560876
0.560955
0.560955
0.560995
0.560994
0.560995
0.560994
0.560955
0.560955
0.560876
0.560876
0.560757
0.560757
0.560598
0.560597
0.560396
0.560396
0.560154
0.560154
0.559874
0.559874
0.559571
0.559571
0.559307
0.559306
0.519744
0.519742
0.520012
0.520011
0.520319
0.520318
0.520603
0.520602
0.520848
0.520847
0.521051
0.52105
0.521213
0.521211
0.521333
0.521331
0.521412
0.521411
0.521452
0.521451
0.521452
0.521451
0.521412
0.521411
0.521333
0.521331
0.521213
0.521211
0.521051
0.52105
0.520848
0.520847
0.520603
0.520602
0.520319
0.520318
0.520012
0.520011
0.519744
0.519742
0.479482
0.479478
0.479754
0.47975
0.480064
0.48006
0.48035
0.480346
0.480597
0.480593
0.480801
0.480797
0.480962
0.480958
0.481082
0.481078
0.481161
0.481157
0.4812
0.481196
0.4812
0.481196
0.481161
0.481157
0.481082
0.481078
0.480962
0.480958
0.480801
0.480797
0.480597
0.480593
0.48035
0.480346
0.480064
0.48006
0.479754
0.47975
0.479482
0.479478
0.438515
0.4385
0.43879
0.438775
0.439101
0.439087
0.439387
0.439373
0.439633
0.439619
0.439835
0.439821
0.439995
0.439981
0.440113
0.440098
0.44019
0.440176
0.440229
0.440215
0.440229
0.440215
0.44019
0.440176
0.440113
0.440098
0.439995
0.439981
0.439835
0.439821
0.439633
0.439619
0.439387
0.439373
0.439101
0.439087
0.43879
0.438775
0.438515
0.4385
0.396842
0.396787
0.397117
0.397063
0.397428
0.397375
0.397712
0.397659
0.397953
0.397901
0.398151
0.398098
0.398306
0.398253
0.39842
0.398367
0.398495
0.398442
0.398532
0.398479
0.398532
0.398479
0.398495
0.398442
0.39842
0.398367
0.398306
0.398253
0.398151
0.398098
0.397953
0.397901
0.397712
0.397659
0.397428
0.397375
0.397117
0.397063
0.396842
0.396787
0.354498
0.35429
0.35477
0.354565
0.355076
0.354872
0.355352
0.355149
0.355585
0.355382
0.355774
0.355571
0.35592
0.355718
0.356028
0.355825
0.356098
0.355896
0.356133
0.355931
0.356133
0.355931
0.356098
0.355896
0.356028
0.355825
0.35592
0.355718
0.355774
0.355571
0.355585
0.355382
0.355352
0.355149
0.355076
0.354872
0.35477
0.354565
0.354498
0.35429
0.311636
0.310869
0.311902
0.311147
0.312198
0.311447
0.31246
0.311711
0.312678
0.31193
0.312853
0.312105
0.312987
0.312239
0.313085
0.312336
0.313149
0.3124
0.31318
0.312431
0.31318
0.312431
0.313149
0.3124
0.313085
0.312336
0.312987
0.312239
0.312853
0.312105
0.312678
0.31193
0.31246
0.311711
0.312198
0.311447
0.311902
0.311147
0.311636
0.310869
0.268783
0.265925
0.26902
0.266203
0.269289
0.266487
0.269523
0.266726
0.269716
0.266918
0.269868
0.26707
0.269985
0.267185
0.27007
0.267269
0.270125
0.267323
0.270152
0.26735
0.270152
0.26735
0.270125
0.267323
0.27007
0.267269
0.269985
0.267185
0.269868
0.26707
0.269716
0.266918
0.269523
0.266726
0.269289
0.266487
0.26902
0.266203
0.268783
0.265925
0.228067
0.217155
0.228225
0.217352
0.228432
0.21757
0.228618
0.217753
0.228774
0.217901
0.228898
0.218017
0.228993
0.218106
0.229063
0.218171
0.229108
0.218213
0.22913
0.218234
0.22913
0.218234
0.229108
0.218213
0.229063
0.218171
0.228993
0.218106
0.228898
0.218017
0.228774
0.217901
0.228618
0.217753
0.228432
0.21757
0.228225
0.217352
0.228067
0.217155
0.198025
0.189771
0.198142
0.189915
0.1983
0.190082
0.198446
0.190227
0.198569
0.190346
0.19867
0.19044
0.198747
0.190514
0.198804
0.190567
0.198841
0.190601
0.198859
0.190618
0.198859
0.190618
0.198841
0.190601
0.198804
0.190567
0.198747
0.190514
0.19867
0.19044
0.198569
0.190346
0.198446
0.190227
0.1983
0.190082
0.198142
0.189915
0.198025
0.189771
0.175975
0.170483
0.176051
0.170575
0.176162
0.170692
0.176271
0.1708
0.176367
0.170894
0.176446
0.17097
0.176509
0.17103
0.176555
0.171074
0.176585
0.171103
0.1766
0.171117
0.1766
0.171117
0.176585
0.171103
0.176555
0.171074
0.176509
0.17103
0.176446
0.17097
0.176367
0.170894
0.176271
0.1708
0.176162
0.170692
0.176051
0.170575
0.175974
0.170483
0.159275
0.1556
0.159326
0.15566
0.159403
0.155742
0.159482
0.155823
0.159556
0.155895
0.159618
0.155956
0.159668
0.156005
0.159705
0.156041
0.15973
0.156065
0.159742
0.156076
0.159742
0.156076
0.15973
0.156065
0.159705
0.156041
0.159668
0.156005
0.159618
0.155956
0.159556
0.155895
0.159482
0.155823
0.159403
0.155742
0.159326
0.15566
0.159275
0.1556
0.146172
0.143609
0.146205
0.143649
0.146259
0.143706
0.146317
0.143766
0.146372
0.143822
0.146421
0.14387
0.14646
0.143908
0.14649
0.143938
0.14651
0.143957
0.14652
0.143967
0.14652
0.143967
0.14651
0.143957
0.14649
0.143938
0.14646
0.143908
0.146421
0.14387
0.146372
0.143822
0.146317
0.143766
0.146259
0.143706
0.146205
0.143649
0.146172
0.143609
0.135583
0.133709
0.135605
0.133737
0.135643
0.133777
0.135685
0.13382
0.135726
0.133862
0.135763
0.133899
0.135794
0.13393
0.135818
0.133953
0.135834
0.133969
0.135842
0.133977
0.135842
0.133977
0.135834
0.133969
0.135818
0.133953
0.135794
0.13393
0.135763
0.133899
0.135726
0.133862
0.135685
0.13382
0.135643
0.133777
0.135605
0.133737
0.135583
0.133709
0.126837
0.125407
0.126853
0.125426
0.126879
0.125453
0.126909
0.125485
0.12694
0.125516
0.126968
0.125545
0.126992
0.125569
0.12701
0.125587
0.127023
0.1256
0.127029
0.125606
0.127029
0.125606
0.127023
0.1256
0.12701
0.125587
0.126992
0.125569
0.126968
0.125545
0.12694
0.125516
0.126909
0.125485
0.126879
0.125453
0.126853
0.125426
0.126837
0.125407
0.119503
0.11837
0.119513
0.118382
0.119531
0.118401
0.119553
0.118424
0.119576
0.118447
0.119597
0.118469
0.119615
0.118487
0.11963
0.118501
0.119639
0.118511
0.119644
0.118516
0.119644
0.118516
0.119639
0.118511
0.11963
0.118501
0.119615
0.118487
0.119597
0.118469
0.119576
0.118447
0.119553
0.118424
0.119531
0.118402
0.119513
0.118382
0.119503
0.11837
0.113289
0.112363
0.113296
0.112371
0.113309
0.112384
0.113324
0.112401
0.113341
0.112417
0.113357
0.112433
0.11337
0.112447
0.113381
0.112458
0.113389
0.112465
0.113392
0.112469
0.113392
0.112469
0.113389
0.112465
0.113381
0.112458
0.11337
0.112447
0.113357
0.112433
0.113341
0.112417
0.113324
0.112401
0.113309
0.112384
0.113296
0.112371
0.113289
0.112363
0.107993
0.107216
0.107998
0.107222
0.108007
0.107231
0.108018
0.107242
0.10803
0.107254
0.108042
0.107266
0.108052
0.107276
0.10806
0.107284
0.108065
0.107289
0.108068
0.107292
0.108068
0.107292
0.108065
0.107289
0.10806
0.107284
0.108052
0.107276
0.108042
0.107266
0.10803
0.107254
0.108018
0.107242
0.108007
0.107231
0.107998
0.107222
0.107993
0.107216
0.10347
0.102802
0.103473
0.102806
0.10348
0.102812
0.103488
0.10282
0.103496
0.102829
0.103504
0.102837
0.103512
0.102844
0.103517
0.10285
0.103521
0.102854
0.103524
0.102856
0.103524
0.102856
0.103521
0.102854
0.103517
0.10285
0.103512
0.102844
0.103504
0.102837
0.103496
0.102829
0.103488
0.10282
0.10348
0.102812
0.103473
0.102806
0.10347
0.102802
0.0996099
0.0990255
0.0996127
0.099028
0.0996173
0.0990324
0.0996229
0.0990379
0.0996288
0.0990437
0.0996345
0.0990492
0.0996396
0.0990542
0.0996437
0.0990582
0.0996466
0.099061
0.099648
0.0990624
0.099648
0.0990624
0.0996466
0.099061
0.0996437
0.0990582
0.0996396
0.0990542
0.0996345
0.0990492
0.0996288
0.0990437
0.0996229
0.0990379
0.0996173
0.0990324
0.0996127
0.099028
0.0996099
0.0990255
0.0963314
0.0958105
0.0963338
0.0958124
0.0963372
0.0958154
0.0963412
0.0958191
0.0963453
0.095823
0.0963492
0.0958266
0.0963526
0.0958298
0.0963553
0.0958324
0.0963572
0.0958343
0.0963582
0.0958352
0.0963582
0.0958352
0.0963572
0.0958343
0.0963553
0.0958324
0.0963526
0.0958298
0.0963492
0.0958266
0.0963453
0.095823
0.0963412
0.0958191
0.0963372
0.0958154
0.0963338
0.0958124
0.0963314
0.0958105
0.0935711
0.0930992
0.0935734
0.0931007
0.0935761
0.0931028
0.093579
0.0931052
0.0935817
0.0931076
0.0935842
0.0931098
0.0935863
0.0931117
0.093588
0.0931132
0.0935892
0.0931143
0.0935898
0.0931148
0.0935898
0.0931148
0.0935892
0.0931143
0.093588
0.0931132
0.0935863
0.0931117
0.0935842
0.0931098
0.0935817
0.0931076
0.093579
0.0931052
0.0935761
0.0931028
0.0935734
0.0931007
0.0935711
0.0930992
0.0912797
0.0908457
0.0912823
0.090847
0.0912845
0.0908484
0.0912866
0.0908498
0.0912883
0.0908511
0.0912898
0.0908521
0.0912909
0.090853
0.0912918
0.0908537
0.0912925
0.0908542
0.0912928
0.0908545
0.0912928
0.0908545
0.0912925
0.0908542
0.0912918
0.0908537
0.0912909
0.090853
0.0912898
0.0908521
0.0912883
0.0908511
0.0912866
0.0908498
0.0912845
0.0908484
0.0912823
0.090847
0.0912797
0.0908458
0.0894192
0.0890142
0.0894223
0.0890152
0.0894242
0.0890159
0.0894256
0.0890166
0.0894266
0.0890169
0.0894273
0.0890171
0.0894277
0.0890173
0.089428
0.0890174
0.0894283
0.0890175
0.0894284
0.0890175
0.0894284
0.0890175
0.0894283
0.0890175
0.089428
0.0890174
0.0894277
0.0890173
0.0894273
0.0890171
0.0894266
0.0890169
0.0894257
0.0890166
0.0894242
0.0890159
0.0894223
0.0890153
0.0894192
0.0890142
0.0879601
0.0875765
0.0879641
0.0875773
0.0879655
0.087577
0.0879664
0.0875769
0.0879668
0.0875765
0.0879669
0.0875761
0.0879668
0.0875757
0.0879668
0.0875754
0.0879667
0.0875753
0.0879667
0.0875752
0.0879667
0.0875752
0.0879667
0.0875753
0.0879668
0.0875754
0.0879668
0.0875757
0.0879669
0.0875761
0.0879668
0.0875765
0.0879664
0.0875769
0.0879655
0.087577
0.0879641
0.0875773
0.0879601
0.0875766
0.0868798
0.0865103
0.0868849
0.08651
0.0868856
0.086508
0.086886
0.0865069
0.0868859
0.0865059
0.0868856
0.086505
0.0868852
0.0865043
0.0868849
0.0865038
0.0868847
0.0865035
0.0868846
0.0865033
0.0868846
0.0865033
0.0868847
0.0865035
0.0868849
0.0865038
0.0868853
0.0865043
0.0868856
0.086505
0.0868859
0.0865059
0.086886
0.0865069
0.0868856
0.086508
0.086885
0.08651
0.0868798
0.0865103
0.0861642
0.0858037
0.0861711
0.0858004
0.0861709
0.0857947
0.0861708
0.0857923
0.0861704
0.0857907
0.0861699
0.0857896
0.0861694
0.0857888
0.0861689
0.0857882
0.0861686
0.0857878
0.0861685
0.0857876
0.0861685
0.0857876
0.0861686
0.0857878
0.0861689
0.0857882
0.0861694
0.0857888
0.0861699
0.0857896
0.0861704
0.0857907
0.0861708
0.0857923
0.0861709
0.0857947
0.0861712
0.0858004
0.0861642
0.0858037
0.0858076
0.0855125
0.085822
0.0855179
0.0858255
0.0855165
0.0858267
0.0855159
0.0858269
0.0855152
0.0858266
0.0855145
0.0858262
0.0855139
0.0858258
0.0855133
0.0858255
0.085513
0.0858253
0.0855128
0.0858253
0.0855128
0.0858255
0.085513
0.0858258
0.0855133
0.0858262
0.0855139
0.0858267
0.0855145
0.0858269
0.0855152
0.0858267
0.0855159
0.0858255
0.0855165
0.085822
0.085518
0.0858076
0.0855125
0.184119
0.162504
0.146369
0.13336
0.122329
0.112632
0.103879
0.0958182
0.0882726
0.0811173
0.0742597
0.0676309
0.0611797
0.0548688
0.0486723
0.0425727
0.0365584
0.0306168
0.0246994
0.0186848
0.184181
0.162549
0.146396
0.133375
0.122338
0.112637
0.103881
0.0958163
0.0882666
0.0811059
0.0742411
0.0676027
0.0611385
0.0548103
0.048591
0.0424616
0.0364089
0.0304201
0.0244376
0.0183209
0.184311
0.162644
0.146463
0.133424
0.122375
0.112665
0.103901
0.0958285
0.0882698
0.0810979
0.0742188
0.0675619
0.0610738
0.0547149
0.0484567
0.0422785
0.0361658
0.0301066
0.0240376
0.0178072
0.184435
0.162738
0.146532
0.133476
0.122415
0.112695
0.103922
0.0958397
0.0882696
0.0810836
0.0741865
0.0675065
0.0609889
0.0545927
0.0482878
0.0420522
0.0358706
0.0297328
0.0235732
0.0172404
0.184542
0.162821
0.146597
0.133527
0.122454
0.112724
0.103942
0.0958492
0.0882669
0.0810657
0.0741493
0.0674446
0.0608957
0.0544603
0.048107
0.0418129
0.0355624
0.0293475
0.0231038
0.0166863
0.184631
0.162891
0.146652
0.133571
0.122489
0.112751
0.10396
0.0958569
0.0882626
0.0810466
0.0741115
0.067383
0.0608041
0.0543313
0.0479323
0.0415835
0.0352697
0.0289857
0.0226697
0.0161861
0.1847
0.162946
0.146698
0.133608
0.122518
0.112772
0.103974
0.0958625
0.0882577
0.0810286
0.0740768
0.0673272
0.0607218
0.0542162
0.0477775
0.0413815
0.0350138
0.0286721
0.0222981
0.0157658
0.18475
0.162988
0.146732
0.133635
0.12254
0.112789
0.103985
0.0958663
0.0882531
0.0810133
0.0740481
0.0672816
0.060655
0.0541233
0.047653
0.0412198
0.0348101
0.0284241
0.022007
0.015441
0.184784
0.163015
0.146754
0.133654
0.122555
0.1128
0.103992
0.0958686
0.0882495
0.0810024
0.0740278
0.0672495
0.0606081
0.0540583
0.0475661
0.0411074
0.034669
0.0282531
0.0218076
0.0152206
0.1848
0.163028
0.146765
0.133663
0.122563
0.112806
0.103995
0.0958697
0.0882476
0.0809967
0.0740173
0.0672329
0.060584
0.0540249
0.0475215
0.0410498
0.0345969
0.028166
0.0217064
0.0151094
0.1848
0.163028
0.146765
0.133663
0.122563
0.112806
0.103995
0.0958697
0.0882476
0.0809967
0.0740173
0.0672329
0.060584
0.0540249
0.0475215
0.0410498
0.0345969
0.028166
0.0217064
0.0151094
0.184784
0.163015
0.146754
0.133654
0.122555
0.1128
0.103992
0.0958686
0.0882495
0.0810024
0.0740278
0.0672495
0.0606081
0.0540583
0.0475661
0.0411074
0.034669
0.0282531
0.0218076
0.0152206
0.18475
0.162988
0.146732
0.133635
0.12254
0.112789
0.103985
0.0958663
0.0882531
0.0810133
0.0740481
0.0672816
0.060655
0.0541233
0.047653
0.0412198
0.0348101
0.0284241
0.022007
0.015441
0.1847
0.162946
0.146698
0.133608
0.122518
0.112772
0.103974
0.0958625
0.0882577
0.0810286
0.0740768
0.0673272
0.0607218
0.0542162
0.0477775
0.0413815
0.0350138
0.0286721
0.0222981
0.0157658
0.184631
0.162891
0.146652
0.133571
0.122489
0.112751
0.10396
0.0958569
0.0882626
0.0810466
0.0741115
0.067383
0.0608041
0.0543313
0.0479323
0.0415835
0.0352697
0.0289857
0.0226697
0.0161861
0.184542
0.162821
0.146597
0.133527
0.122454
0.112724
0.103942
0.0958492
0.0882669
0.0810657
0.0741493
0.0674446
0.0608957
0.0544603
0.048107
0.0418129
0.0355624
0.0293475
0.0231038
0.0166863
0.184435
0.162738
0.146532
0.133476
0.122415
0.112695
0.103922
0.0958397
0.0882696
0.0810836
0.0741865
0.0675065
0.0609889
0.0545927
0.0482878
0.0420522
0.0358706
0.0297328
0.0235732
0.0172404
0.184311
0.162644
0.146463
0.133424
0.122375
0.112665
0.103901
0.0958285
0.0882698
0.0810979
0.0742188
0.0675619
0.0610738
0.0547149
0.0484567
0.0422785
0.0361658
0.0301066
0.0240376
0.0178072
0.184181
0.162549
0.146396
0.133375
0.122338
0.112637
0.103881
0.0958163
0.0882666
0.0811059
0.0742411
0.0676027
0.0611385
0.0548103
0.048591
0.0424616
0.0364089
0.0304201
0.0244376
0.0183209
0.184119
0.162504
0.146369
0.13336
0.122329
0.112632
0.103879
0.0958182
0.0882726
0.0811173
0.0742597
0.0676309
0.0611797
0.0548688
0.0486723
0.0425727
0.0365584
0.0306168
0.0246994
0.0186848
0.172902
0.157031
0.143314
0.131481
0.121091
0.111781
0.103279
0.0953891
0.0879664
0.0809023
0.0741147
0.0675411
0.0611351
0.0548633
0.0487036
0.042645
0.0366866
0.0308383
0.025119
0.0195969
0.172999
0.157103
0.143366
0.131519
0.121121
0.111804
0.103297
0.0954023
0.0879741
0.0809032
0.0741068
0.0675216
0.0611001
0.0548079
0.0486216
0.0425285
0.0365264
0.0306245
0.0248389
0.0192385
0.173127
0.157202
0.14344
0.131575
0.121165
0.111839
0.103323
0.09542
0.087982
0.0808991
0.0740871
0.0674818
0.0610341
0.0547081
0.0484788
0.0423319
0.0362637
0.0302842
0.0244086
0.0187105
0.173242
0.157294
0.143511
0.13163
0.121208
0.111872
0.103347
0.095434
0.0879842
0.0808865
0.0740555
0.0674257
0.0609464
0.0545802
0.0483006
0.0420916
0.0359491
0.0298843
0.0239141
0.0181218
0.173341
0.157374
0.143575
0.131682
0.121249
0.111903
0.103369
0.0954455
0.0879831
0.0808697
0.0740186
0.0673629
0.0608507
0.0544429
0.0481117
0.0418401
0.0356239
0.0294761
0.0234175
0.0175431
0.173421
0.15744
0.14363
0.131726
0.121285
0.111931
0.103388
0.0954543
0.08798
0.0808514
0.073981
0.0673005
0.0607569
0.0543098
0.0479303
0.0416006
0.035317
0.0290949
0.0229596
0.0170185
0.173483
0.157493
0.143674
0.131763
0.121314
0.111953
0.103403
0.0954608
0.0879759
0.080834
0.0739465
0.0672442
0.0606731
0.0541917
0.0477703
0.0413908
0.0350499
0.0287657
0.0225684
0.0165764
0.173529
0.157532
0.143707
0.13179
0.121336
0.11197
0.103414
0.0954652
0.0879719
0.0808192
0.073918
0.0671984
0.0606053
0.0540967
0.0476422
0.0412234
0.0348379
0.028506
0.0222622
0.0162339
0.173559
0.157558
0.143728
0.131808
0.121351
0.111982
0.103422
0.095468
0.0879687
0.0808086
0.0738979
0.0671661
0.0605578
0.0540303
0.0475529
0.0411072
0.0346912
0.0283272
0.0220526
0.0160012
0.173574
0.15757
0.143739
0.131817
0.121359
0.111987
0.103425
0.0954692
0.087967
0.0808031
0.0738875
0.0671495
0.0605334
0.0539963
0.0475072
0.0410478
0.0346164
0.0282362
0.0219462
0.0158837
0.173574
0.15757
0.143739
0.131817
0.121359
0.111987
0.103425
0.0954692
0.087967
0.0808031
0.0738875
0.0671495
0.0605334
0.0539963
0.0475072
0.0410478
0.0346164
0.0282362
0.0219462
0.0158837
0.173559
0.157558
0.143728
0.131808
0.121351
0.111982
0.103422
0.095468
0.0879687
0.0808086
0.0738979
0.0671661
0.0605578
0.0540303
0.0475529
0.0411072
0.0346912
0.0283272
0.0220526
0.0160012
0.173529
0.157532
0.143707
0.13179
0.121336
0.11197
0.103414
0.0954652
0.0879719
0.0808192
0.073918
0.0671984
0.0606053
0.0540967
0.0476422
0.0412234
0.0348379
0.028506
0.0222622
0.0162339
0.173483
0.157493
0.143674
0.131763
0.121314
0.111953
0.103403
0.0954608
0.0879759
0.080834
0.0739465
0.0672442
0.0606731
0.0541917
0.0477703
0.0413908
0.0350499
0.0287657
0.0225684
0.0165764
0.173421
0.15744
0.14363
0.131726
0.121285
0.111931
0.103388
0.0954543
0.08798
0.0808514
0.073981
0.0673005
0.0607569
0.0543098
0.0479303
0.0416006
0.035317
0.0290949
0.0229596
0.0170185
0.173341
0.157374
0.143575
0.131682
0.121249
0.111903
0.103369
0.0954455
0.0879831
0.0808697
0.0740186
0.0673629
0.0608507
0.0544429
0.0481117
0.0418401
0.0356239
0.0294761
0.0234175
0.0175431
0.173242
0.157294
0.143511
0.13163
0.121208
0.111872
0.103347
0.095434
0.0879842
0.0808865
0.0740555
0.0674257
0.0609464
0.0545802
0.0483006
0.0420916
0.0359491
0.0298843
0.0239141
0.0181218
0.173127
0.157202
0.14344
0.131575
0.121165
0.111839
0.103323
0.09542
0.087982
0.0808991
0.0740871
0.0674818
0.0610341
0.0547081
0.0484788
0.0423319
0.0362637
0.0302842
0.0244086
0.0187105
0.172999
0.157103
0.143366
0.131519
0.121121
0.111804
0.103297
0.0954023
0.0879741
0.0809032
0.0741068
0.0675216
0.0611001
0.0548079
0.0486216
0.0425285
0.0365264
0.0306245
0.0248389
0.0192385
0.172902
0.157031
0.143314
0.131481
0.121091
0.111781
0.103279
0.0953891
0.0879664
0.0809023
0.0741147
0.0675411
0.0611351
0.0548633
0.0487036
0.042645
0.0366866
0.0308383
0.025119
0.0195969
0.16037
0.149086
0.138127
0.127951
0.118595
0.10996
0.101922
0.0943633
0.0871868
0.080312
0.0736743
0.0672235
0.0609218
0.0547428
0.048672
0.0427076
0.0368628
0.0311708
0.0256931
0.0205524
0.160443
0.149145
0.138173
0.127986
0.118623
0.109982
0.101939
0.0943756
0.0871934
0.0803111
0.0736638
0.0671999
0.0608806
0.0546783
0.0485772
0.0425739
0.0366807
0.030931
0.0253879
0.0201826
0.160542
0.149227
0.138238
0.128038
0.118664
0.110015
0.101964
0.0943918
0.0871995
0.0803044
0.0736403
0.0671544
0.060806
0.054566
0.0484168
0.0423537
0.0363882
0.0305551
0.0249212
0.0196297
0.160636
0.149307
0.138304
0.128091
0.118707
0.110049
0.101988
0.0944064
0.0872018
0.0802911
0.0736066
0.0670939
0.0607109
0.0544267
0.0482218
0.0420905
0.0360442
0.0301198
0.0243895
0.0190106
0.160719
0.149378
0.138364
0.128141
0.118747
0.110081
0.102011
0.0944185
0.087201
0.0802738
0.0735679
0.0670274
0.0606087
0.0542791
0.0480179
0.0418182
0.0356922
0.0296791
0.0238578
0.0183999
0.160788
0.149438
0.138415
0.128184
0.118783
0.110108
0.10203
0.0944279
0.0871981
0.0802552
0.0735288
0.066962
0.0605095
0.0541374
0.0478237
0.0415612
0.0353623
0.0292698
0.0233689
0.0178449
0.160842
0.149486
0.138456
0.128219
0.118811
0.110131
0.102045
0.0944347
0.0871942
0.0802374
0.0734931
0.0669033
0.0604214
0.0540124
0.0476536
0.0413372
0.0350766
0.0289177
0.0229517
0.0173759
0.160882
0.149521
0.138486
0.128245
0.118833
0.110147
0.102057
0.0944393
0.0871903
0.0802225
0.0734639
0.0668557
0.0603504
0.0539123
0.0475179
0.0411592
0.0348506
0.0286404
0.0226254
0.0170119
0.160908
0.149544
0.138507
0.128262
0.118848
0.110159
0.102064
0.0944422
0.0871872
0.0802118
0.0734433
0.0668223
0.0603009
0.0538427
0.0474236
0.0410359
0.0346946
0.0284498
0.0224021
0.0167643
0.160921
0.149555
0.138517
0.128271
0.118855
0.110164
0.102068
0.0944436
0.0871856
0.0802062
0.0734327
0.0668052
0.0602755
0.053807
0.0473755
0.040973
0.0346151
0.0283529
0.0222888
0.0166392
0.160921
0.149555
0.138517
0.128271
0.118855
0.110164
0.102068
0.0944436
0.0871856
0.0802062
0.0734327
0.0668052
0.0602755
0.053807
0.0473755
0.040973
0.0346151
0.0283529
0.0222888
0.0166392
0.160908
0.149544
0.138507
0.128262
0.118848
0.110159
0.102064
0.0944422
0.0871872
0.0802118
0.0734433
0.0668223
0.0603009
0.0538427
0.0474236
0.0410359
0.0346946
0.0284498
0.0224021
0.0167643
0.160882
0.149521
0.138486
0.128245
0.118833
0.110147
0.102057
0.0944393
0.0871903
0.0802225
0.0734639
0.0668557
0.0603504
0.0539123
0.0475179
0.0411592
0.0348506
0.0286404
0.0226254
0.0170119
0.160842
0.149486
0.138456
0.128219
0.118811
0.110131
0.102045
0.0944347
0.0871942
0.0802374
0.0734931
0.0669033
0.0604214
0.0540124
0.0476536
0.0413372
0.0350766
0.0289177
0.0229517
0.0173759
0.160788
0.149438
0.138415
0.128184
0.118783
0.110108
0.10203
0.0944279
0.0871981
0.0802552
0.0735288
0.066962
0.0605095
0.0541374
0.0478237
0.0415612
0.0353623
0.0292698
0.0233689
0.0178449
0.160719
0.149378
0.138364
0.128141
0.118747
0.110081
0.102011
0.0944185
0.087201
0.0802738
0.0735679
0.0670274
0.0606087
0.0542791
0.0480179
0.0418182
0.0356922
0.0296791
0.0238578
0.0183999
0.160636
0.149307
0.138304
0.128091
0.118707
0.110049
0.101988
0.0944064
0.0872018
0.0802911
0.0736066
0.0670939
0.0607109
0.0544267
0.0482218
0.0420905
0.0360442
0.0301198
0.0243895
0.0190106
0.160542
0.149227
0.138238
0.128038
0.118664
0.110015
0.101964
0.0943918
0.0871995
0.0803044
0.0736403
0.0671544
0.060806
0.054566
0.0484168
0.0423537
0.0363882
0.0305551
0.0249212
0.0196297
0.160443
0.149145
0.138173
0.127986
0.118623
0.109982
0.101939
0.0943756
0.0871934
0.0803111
0.0736638
0.0671999
0.0608806
0.0546783
0.0485772
0.0425738
0.0366807
0.030931
0.0253879
0.0201826
0.16037
0.149086
0.138127
0.127951
0.118595
0.10996
0.101922
0.0943633
0.0871868
0.080312
0.0736743
0.0672235
0.0609218
0.0547428
0.048672
0.0427076
0.0368628
0.0311708
0.0256931
0.0205524
0.148916
0.140732
0.132097
0.123559
0.115346
0.10752
0.100066
0.0929434
0.0860996
0.079486
0.0730596
0.0667846
0.0606343
0.0545916
0.0486506
0.0428193
0.0371228
0.0316089
0.0263546
0.0214785
0.14897
0.14078
0.132137
0.123591
0.115372
0.107541
0.100084
0.0929555
0.0861057
0.0794843
0.0730472
0.0667579
0.0605882
0.0545199
0.0485459
0.0426729
0.0369261
0.0313544
0.0260392
0.0211082
0.149045
0.140845
0.132192
0.123638
0.115411
0.107572
0.100107
0.0929709
0.0861108
0.0794759
0.0730209
0.0667077
0.0605065
0.0543972
0.0483712
0.0424343
0.0366118
0.0309555
0.0255531
0.0205451
0.14912
0.140912
0.13225
0.123687
0.115452
0.107605
0.100132
0.0929852
0.0861125
0.0794612
0.0729845
0.0666426
0.060404
0.0542469
0.0481609
0.0421511
0.0362436
0.0304938
0.024997
0.0199078
0.149187
0.140973
0.132303
0.123733
0.11549
0.107636
0.100154
0.092997
0.0861111
0.0794427
0.0729433
0.0665718
0.0602947
0.0540887
0.0479421
0.0418594
0.0358678
0.0300265
0.0244392
0.0192743
0.149244
0.141025
0.132349
0.123772
0.115523
0.107663
0.100172
0.093006
0.0861076
0.0794228
0.072902
0.0665024
0.0601892
0.0539376
0.0477347
0.0415848
0.0355163
0.0295927
0.0239252
0.0186953
0.14929
0.141066
0.132386
0.123804
0.115551
0.107684
0.100187
0.0930124
0.0861032
0.0794041
0.0728645
0.0664404
0.0600959
0.0538048
0.0475534
0.0413461
0.0352124
0.0292196
0.0234859
0.018204
0.149323
0.141097
0.132414
0.123828
0.115571
0.1077
0.100198
0.0930168
0.0860989
0.0793884
0.0728338
0.0663903
0.060021
0.0536986
0.0474091
0.0411567
0.0349722
0.0289259
0.0231419
0.0178216
0.149345
0.141117
0.132432
0.123845
0.115585
0.107711
0.100206
0.0930194
0.0860955
0.0793771
0.0728122
0.0663553
0.0599687
0.0536249
0.0473091
0.0410257
0.0348065
0.0287239
0.0229063
0.0175609
0.149356
0.141127
0.132441
0.123853
0.115592
0.107716
0.100209
0.0930207
0.0860937
0.0793713
0.0728011
0.0663373
0.059942
0.0535871
0.047258
0.0409589
0.0347221
0.0286213
0.0227868
0.0174289
0.149356
0.141127
0.132441
0.123853
0.115592
0.107716
0.100209
0.0930207
0.0860937
0.0793713
0.0728011
0.0663373
0.059942
0.0535871
0.047258
0.0409589
0.0347221
0.0286213
0.0227868
0.0174289
0.149345
0.141117
0.132432
0.123845
0.115585
0.107711
0.100206
0.0930194
0.0860955
0.0793771
0.0728122
0.0663553
0.0599687
0.0536249
0.0473091
0.0410257
0.0348065
0.0287239
0.0229063
0.0175609
0.149323
0.141097
0.132414
0.123828
0.115571
0.1077
0.100198
0.0930168
0.0860989
0.0793884
0.0728338
0.0663903
0.060021
0.0536986
0.0474091
0.0411567
0.0349722
0.0289259
0.0231419
0.0178216
0.14929
0.141066
0.132386
0.123804
0.115551
0.107684
0.100187
0.0930124
0.0861032
0.0794041
0.0728645
0.0664404
0.0600959
0.0538048
0.0475534
0.0413461
0.0352124
0.0292196
0.0234859
0.018204
0.149244
0.141025
0.132349
0.123772
0.115523
0.107663
0.100172
0.093006
0.0861076
0.0794228
0.072902
0.0665024
0.0601892
0.0539376
0.0477347
0.0415848
0.0355163
0.0295927
0.0239252
0.0186953
0.149187
0.140973
0.132303
0.123733
0.11549
0.107636
0.100154
0.092997
0.0861111
0.0794427
0.0729433
0.0665718
0.0602947
0.0540887
0.0479421
0.0418594
0.0358678
0.0300265
0.0244392
0.0192743
0.14912
0.140912
0.13225
0.123687
0.115452
0.107605
0.100132
0.0929852
0.0861125
0.0794612
0.0729845
0.0666426
0.060404
0.0542469
0.0481608
0.0421511
0.0362436
0.0304938
0.024997
0.0199078
0.149045
0.140845
0.132192