/*--------------------------------*- C++ -*----------------------------------*\
  =========                 |
  \\      /  F ield         | OpenFOAM: The Open Source CFD Toolbox
   \\    /   O peration     | Website:  https://openfoam.org
    \\  /    A nd           | Version:  6
     \\/     M anipulation  |
\*---------------------------------------------------------------------------*/
FoamFile
{
    version     2.0;
    format      ascii;
    class       volScalarField;
    location    "1100";
    object      p;
}
// * * * * * * * * * * * * * * * * * * * * * * * * * * * * * * * * * * * * * //

dimensions      [0 2 -2 0 0 0 0];

internalField   nonuniform List<scalar> 
7000
(
0.0396874
0.0374631
0.0369567
0.0367501
0.0366684
0.0367196
0.0368995
0.0371907
0.0377649
0.0400779
0.0374413
0.0352165
0.0347121
0.0345069
0.0344267
0.0344798
0.0346617
0.0349549
0.0355298
0.0378474
0.0369152
0.0346923
0.0341884
0.033984
0.0339049
0.0339591
0.0341422
0.0344364
0.0350126
0.0373306
0.0366804
0.0344585
0.0339553
0.0337518
0.0336737
0.033729
0.0339132
0.0342082
0.0347852
0.0371042
0.0365626
0.0343415
0.0338389
0.0336362
0.033559
0.0336153
0.0338002
0.0340958
0.0346731
0.0369928
0.0365724
0.034352
0.0338499
0.0336478
0.0335712
0.0336279
0.0338132
0.0341089
0.0346861
0.0370055
0.0367088
0.0344891
0.0339873
0.0337854
0.0337091
0.033766
0.0339512
0.0342465
0.0348231
0.0371416
0.0369595
0.03474
0.0342384
0.0340366
0.0339602
0.0340169
0.0342017
0.0344965
0.0350723
0.0373895
0.0374991
0.0352787
0.0347773
0.0345755
0.034499
0.0345555
0.0347398
0.0350339
0.0356086
0.0379258
0.0397655
0.0375473
0.0370449
0.0368431
0.0367668
0.036823
0.0370068
0.0373001
0.0378751
0.0401895
0.0367444
0.0353491
0.0353859
0.0351842
0.0351024
0.0351563
0.0353422
0.0356352
0.0356644
0.0371564
0.0353258
0.033931
0.033972
0.0337712
0.0336912
0.0337475
0.033936
0.0342323
0.0342609
0.0357577
0.0353436
0.0339527
0.0339933
0.0337935
0.0337146
0.0337721
0.0339621
0.0342597
0.0342904
0.035786
0.035112
0.0337216
0.0337629
0.0335643
0.0334867
0.0335456
0.0337369
0.0340357
0.0340673
0.0355655
0.0349921
0.0336026
0.0336444
0.0334468
0.0333702
0.0334302
0.0336226
0.0339221
0.0339541
0.0354535
0.035002
0.0336134
0.0336557
0.0334587
0.0333828
0.0334434
0.0336363
0.0339359
0.0339675
0.0354671
0.0351411
0.0337533
0.033796
0.0335993
0.0335238
0.0335846
0.0337773
0.0340765
0.0341071
0.0356058
0.0353894
0.0340027
0.0340453
0.0338486
0.0337731
0.0338337
0.034026
0.0343245
0.0343541
0.035851
0.0353835
0.0339939
0.0340374
0.0338406
0.0337648
0.0338249
0.0340164
0.034314
0.0343415
0.0358404
0.0368239
0.0354357
0.0354763
0.0352805
0.0352051
0.0352653
0.0354565
0.0357529
0.0357824
0.0372796
0.034292
0.0334946
0.0338565
0.0336739
0.0336528
0.0337132
0.0338514
0.0341381
0.0338448
0.0347579
0.0334673
0.0326745
0.0330431
0.032861
0.0328428
0.0329066
0.0330487
0.0333418
0.0330473
0.0339648
0.0338099
0.0330234
0.0333907
0.03321
0.0331932
0.0332587
0.033403
0.0336978
0.0334072
0.034323
0.0335938
0.0328071
0.0331755
0.0329964
0.0329813
0.0330488
0.0331952
0.0334919
0.0332025
0.0341234
0.0335299
0.0327446
0.0331136
0.0329357
0.032922
0.032991
0.0331389
0.0334368
0.0331481
0.0340706
0.0335403
0.0327562
0.0331256
0.0329486
0.0329357
0.0330055
0.0331539
0.0334519
0.0331625
0.0340852
0.0336243
0.0328409
0.0332107
0.0330341
0.0330217
0.0330916
0.0332396
0.0335369
0.0332456
0.0341673
0.0338581
0.033077
0.0334465
0.0332698
0.0332573
0.0333269
0.0334741
0.0337703
0.0334775
0.0343956
0.0335257
0.0327395
0.0331106
0.0329334
0.0329205
0.0329892
0.0331352
0.0334301
0.0331332
0.0340551
0.034373
0.0335846
0.0339506
0.0337754
0.0337627
0.0338314
0.033977
0.0342691
0.0339763
0.0348998
0.0330202
0.0324547
0.0328403
0.0326487
0.0327038
0.0327744
0.0328566
0.0331737
0.0328678
0.0335783
0.0324225
0.0318651
0.0322586
0.0320675
0.0321279
0.0322041
0.0322924
0.0326207
0.0323169
0.0330361
0.0327874
0.0322374
0.0326289
0.0324402
0.0325026
0.0325816
0.0326736
0.0330052
0.0327083
0.0334288
0.032557
0.0320063
0.0323997
0.0322132
0.0322781
0.0323602
0.0324558
0.032791
0.0324964
0.033226
0.0325624
0.0320144
0.0324085
0.0322237
0.0322906
0.0323749
0.0324728
0.03281
0.0325162
0.0332479
0.0325737
0.0320272
0.0324219
0.0322382
0.0323063
0.0323917
0.0324902
0.0328272
0.0325318
0.0332631
0.03259
0.0320437
0.0324388
0.0322557
0.0323243
0.0324096
0.0325072
0.0328423
0.0325435
0.0332731
0.0328398
0.0322969
0.0326912
0.0325081
0.0325765
0.0326612
0.0327572
0.0330899
0.0327883
0.0335113
0.0324846
0.0319358
0.0323326
0.0321482
0.032216
0.0322993
0.0323929
0.0327235
0.0324152
0.0331413
0.0331058
0.0325521
0.032943
0.0327616
0.0328286
0.0329116
0.0330049
0.0333304
0.0330254
0.0337541
0.0321249
0.0316712
0.0320039
0.0318017
0.0319114
0.031995
0.0320489
0.0324051
0.0321707
0.0328105
0.0316338
0.0311912
0.0315326
0.0313315
0.0314498
0.0315426
0.0316071
0.0319827
0.0317589
0.0324202
0.0319442
0.0315095
0.0318483
0.031651
0.0317723
0.0318699
0.031941
0.0323231
0.0321118
0.0327824
0.0316971
0.0312614
0.0316031
0.0314088
0.0315341
0.0316367
0.0317138
0.0321027
0.0318965
0.0325827
0.0317488
0.0313173
0.03166
0.0314681
0.0315963
0.0317024
0.031783
0.0321751
0.0319705
0.0326595
0.0317615
0.031332
0.0316755
0.0314852
0.0316151
0.0317226
0.0318038
0.0321951
0.0319868
0.0326739
0.0317339
0.031304
0.0316482
0.0314586
0.0315889
0.0316961
0.0317755
0.0321632
0.0319479
0.0326311
0.0320031
0.0315777
0.0319205
0.0317311
0.031861
0.0319669
0.0320435
0.0324264
0.0322052
0.032877
0.0317029
0.0312717
0.0316179
0.0314265
0.0315555
0.0316591
0.0317316
0.0321105
0.0318782
0.0325488
0.0322187
0.0317804
0.0321207
0.0319332
0.0320602
0.0321628
0.0322343
0.0326045
0.0323722
0.0330446
0.0311188
0.0307768
0.0310848
0.0308948
0.03104
0.0311374
0.031184
0.0315623
0.0313794
0.0319625
0.0307345
0.0304073
0.0307247
0.0305376
0.0306958
0.0308083
0.0308739
0.0312855
0.0311308
0.0317665
0.0310192
0.0307001
0.0310152
0.0308334
0.0309964
0.0311169
0.0311942
0.0316194
0.0314868
0.0321503
0.0307786
0.030459
0.030778
0.0306005
0.0307696
0.0308981
0.0309856
0.0314241
0.0313017
0.0319943
0.0308583
0.0305442
0.0308645
0.0306906
0.0308641
0.030998
0.0310913
0.0315346
0.0314141
0.0321106
0.0308728
0.0305614
0.0308829
0.0307112
0.0308872
0.0310232
0.031117
0.0315578
0.031429
0.0321179
0.0308206
0.0305086
0.0308312
0.0306604
0.0308369
0.0309722
0.0310626
0.0314962
0.0313544
0.0320319
0.0310867
0.0307799
0.0311008
0.0309304
0.0311062
0.0312393
0.0313249
0.0317494
0.0315959
0.0322537
0.0308141
0.0305018
0.0308264
0.0306534
0.0308279
0.0309574
0.0310362
0.0314526
0.0312816
0.0319315
0.0312246
0.030903
0.0312221
0.0310535
0.0312249
0.0313522
0.0314279
0.0318304
0.0316532
0.0322938
0.0300205
0.0297816
0.0300769
0.0299121
0.0300811
0.03019
0.0302381
0.0306267
0.0304865
0.0310426
0.029735
0.029515
0.0298208
0.029662
0.0298498
0.0299829
0.0300643
0.0305092
0.0304315
0.0311101
0.0300075
0.0297961
0.0301001
0.0299488
0.0301441
0.0302901
0.0303915
0.0308622
0.0308268
0.0315769
0.0297882
0.0295772
0.0298866
0.0297412
0.0299458
0.0301045
0.0302231
0.0307171
0.0307067
0.0315118
0.0298864
0.0296825
0.0299937
0.0298534
0.0300646
0.0302315
0.0303591
0.030861
0.0308526
0.0316602
0.0299033
0.0297027
0.0300156
0.0298786
0.0300932
0.0302631
0.030391
0.0308877
0.0308599
0.031643
0.0298367
0.0296354
0.0299499
0.0298141
0.0300294
0.030198
0.0303204
0.030805
0.0307514
0.0315061
0.0300857
0.0298902
0.0302027
0.0300675
0.0302818
0.030447
0.0305616
0.0310312
0.030956
0.0316759
0.0298279
0.0296276
0.029944
0.0298056
0.0300179
0.0301779
0.0302818
0.0307379
0.0306345
0.0313266
0.0301423
0.0299298
0.0302411
0.0301071
0.0303153
0.0304712
0.0305684
0.0310017
0.0308741
0.0315328
0.0289327
0.0287689
0.0290396
0.0288965
0.0290755
0.0291881
0.0292365
0.0296303
0.0295544
0.0301283
0.0287191
0.0285779
0.0288604
0.0287275
0.0289328
0.0290828
0.0291868
0.0296762
0.0297277
0.0305861
0.0289702
0.0288379
0.0291196
0.0289969
0.0292138
0.0293838
0.029521
0.0300606
0.0301989
0.0312534
0.0287729
0.0286424
0.0289311
0.0288166
0.0290472
0.0292371
0.029403
0.0299869
0.0301782
0.0313696
0.028882
0.02876
0.0290513
0.0289441
0.0291843
0.0293865
0.0295664
0.0301631
0.0303497
0.0315209
0.0289015
0.0287837
0.0290774
0.0289748
0.0292198
0.0294262
0.0296061
0.0301899
0.0303325
0.0314046
0.0288286
0.0287105
0.0290064
0.0289054
0.0291516
0.0293564
0.0295277
0.0300908
0.0301861
0.0311807
0.0290602
0.0289482
0.029242
0.0291423
0.0293871
0.0295873
0.0297474
0.0302867
0.0303449
0.0312778
0.0288273
0.0287111
0.0290089
0.0289054
0.0291478
0.0293406
0.0294851
0.030001
0.0300104
0.0308812
0.029072
0.028942
0.0292355
0.0291364
0.0293736
0.0295598
0.0296909
0.0301673
0.030124
0.0308592
0.0278616
0.0277483
0.0279842
0.0278553
0.0280282
0.0281307
0.028165
0.0285457
0.0285291
0.0291582
0.0276969
0.0276097
0.0278586
0.0277451
0.0279537
0.0281108
0.0282328
0.0287634
0.0289668
0.0301937
0.02792
0.0278418
0.0280915
0.0279913
0.0282167
0.0284042
0.0285793
0.0291955
0.0295735
0.0313143
0.0277425
0.0276678
0.0279263
0.0278373
0.0280824
0.0282997
0.0285211
0.0292137
0.0297212
0.0318038
0.0278558
0.0277909
0.0280531
0.027974
0.0282322
0.0284671
0.0287094
0.029422
0.0299145
0.0318925
0.027878
0.0278183
0.0280837
0.0280107
0.0282755
0.0285158
0.0287562
0.0294484
0.0298395
0.0315071
0.0278059
0.0277464
0.0280147
0.0279441
0.0282108
0.0284489
0.0286776
0.0293414
0.0296486
0.031129
0.0280227
0.0279694
0.0282358
0.0281672
0.0284325
0.0286652
0.0288791
0.0295114
0.0297664
0.0311445
0.0278215
0.0277656
0.028036
0.0279634
0.0282259
0.0284492
0.0286417
0.0292401
0.0294226
0.0306405
0.0280201
0.0279486
0.0282161
0.0281477
0.0284043
0.0286179
0.0287873
0.0293229
0.0293728
0.0302321
0.0267727
0.0266961
0.0268951
0.0267731
0.0269214
0.0269888
0.0269692
0.0272693
0.0273006
0.027974
0.0266442
0.0265965
0.0268097
0.0267086
0.0269022
0.0270435
0.0271502
0.0276645
0.0280571
0.0299616
0.0268412
0.0268025
0.0270182
0.0269338
0.0271505
0.0273351
0.0275215
0.0281831
0.0289431
0.0323113
0.0266836
0.0266502
0.0268766
0.026807
0.0270504
0.0272785
0.027538
0.0283395
0.0293969
0.0337311
0.0267967
0.0267742
0.0270055
0.0269489
0.0272099
0.0274622
0.0277515
0.028583
0.0295941
0.0334041
0.0268217
0.0268052
0.0270408
0.026992
0.027262
0.0275214
0.0278057
0.0285969
0.0293766
0.0321375
0.0267546
0.0267391
0.0269785
0.0269333
0.0272067
0.027465
0.0277363
0.0284882
0.0291306
0.0314481
0.026956
0.0269469
0.0271849
0.027143
0.0274161
0.02767
0.0279258
0.0286441
0.0292224
0.0314318
0.026785
0.0267745
0.0270167
0.0269711
0.0272418
0.0274856
0.0277162
0.0283887
0.0288498
0.0306574
0.0269488
0.0269222
0.0271631
0.027122
0.0273871
0.0276187
0.0278128
0.0283797
0.0285873
0.0294197
0.0256443
0.0255966
0.0257595
0.0256386
0.0257451
0.0257486
0.0256217
0.0256919
0.0255115
0.0260016
0.0255445
0.0255277
0.0257057
0.0256105
0.0257706
0.0258638
0.025895
0.026226
0.0263518
0.0282325
0.0257198
0.025712
0.0258945
0.0258193
0.0260089
0.026159
0.0263045
0.0268579
0.0274833
0.0318549
0.0255829
0.0255819
0.025777
0.0257205
0.0259448
0.0261551
0.0264123
0.0271913
0.0283318
0.0346063
0.0256936
0.0257041
0.0259056
0.025865
0.0261116
0.0263538
0.0266481
0.0274665
0.0285797
0.0339277
0.0257211
0.0257383
0.0259451
0.0259143
0.0261722
0.0264226
0.0267039
0.0274558
0.028261
0.031811
0.0256612
0.0256801
0.0258917
0.025866
0.0261295
0.0263812
0.0266489
0.0273605
0.0280279
0.0311297
0.0258466
0.025872
0.0260831
0.0260625
0.0263279
0.0265784
0.0268355
0.0275185
0.0281608
0.0313493
0.0257015
0.0257273
0.0259428
0.0259196
0.0261841
0.0264268
0.0266586
0.0272896
0.0278036
0.030369
0.0258379
0.0258469
0.0260632
0.0260455
0.0263066
0.0265376
0.0267244
0.0272155
0.0274261
0.0284246
0.0244783
0.0244557
0.0245852
0.0244633
0.0245171
0.0244255
0.0241187
0.0237417
0.0225686
0.0211805
0.024401
0.0244097
0.0245541
0.0244599
0.0245693
0.0245665
0.0244039
0.0242256
0.0227968
0.0208054
0.0245577
0.024575
0.0247255
0.0246536
0.024796
0.0248559
0.0248166
0.0248517
0.02359
0.0227188
0.0244403
0.0244654
0.02463
0.0245799
0.0247637
0.0248992
0.0250064
0.025326
0.0246181
0.025743
0.024547
0.0245835
0.0247557
0.024724
0.024935
0.0251124
0.0252762
0.0256821
0.0252073
0.026223
0.0245766
0.02462
0.0247985
0.0247784
0.0250039
0.0251959
0.025358
0.0257465
0.0253001
0.0257539
0.0245248
0.0245705
0.0247548
0.0247417
0.0249766
0.0251771
0.0253401
0.0257398
0.0253319
0.0261127
0.0246941
0.0247462
0.0249314
0.0249258
0.0251666
0.025374
0.0255429
0.0259445
0.0255751
0.0267872
0.024572
0.0246257
0.0248157
0.0248095
0.025053
0.0252608
0.0254241
0.0258017
0.025467
0.0266681
0.0246852
0.0247226
0.0249161
0.0249178
0.0251636
0.0253712
0.0255091
0.0257903
0.0254719
0.0262202
0.0232744
0.0232758
0.0233766
0.0232576
0.0232641
0.0230754
0.0225755
0.0217593
0.0195596
0.0159511
0.0232138
0.0232455
0.0233596
0.0232672
0.0233236
0.0232061
0.0227941
0.0220827
0.0194273
0.0140513
0.0233541
0.0233935
0.0235151
0.0234457
0.0235354
0.0234763
0.0231693
0.0226502
0.0199878
0.0146089
0.0232545
0.023302
0.0234385
0.0233927
0.023528
0.0235532
0.0234166
0.0232352
0.0211999
0.0184309
0.0233561
0.0234142
0.0235592
0.0235336
0.0236999
0.0237785
0.0237304
0.0237006
0.0221293
0.0204429
0.0233875
0.023452
0.0236041
0.0235915
0.023776
0.0238809
0.0238585
0.0238842
0.0225585
0.0210779
0.0233443
0.0234112
0.0235701
0.0235663
0.0237645
0.0238883
0.0238866
0.0239713
0.0227202
0.0216028
0.0234989
0.023572
0.0237331
0.0237396
0.0239488
0.0240895
0.0241142
0.0242337
0.0229881
0.0221169
0.0233976
0.0234738
0.0236406
0.0236494
0.023867
0.0240212
0.0240752
0.0242284
0.0230751
0.0224717
0.0234929
0.0235531
0.0237266
0.0237478
0.0239785
0.0241543
0.024239
0.0243718
0.023393
0.0228084
0.0220358
0.0220657
0.0221495
0.0220541
0.0220583
0.021859
0.0213234
0.0204657
0.0182047
0.0137204
0.0219878
0.0220454
0.0221401
0.0220677
0.0221135
0.0219702
0.0214903
0.0207278
0.0182092
0.0116385
0.0221135
0.0221776
0.0222804
0.0222307
0.0223087
0.0222192
0.021839
0.0213036
0.0189781
0.0122323
0.0220295
0.0221007
0.0222181
0.0221916
0.0223142
0.0223075
0.0221067
0.021944
0.0202327
0.0165516
0.0221251
0.0222048
0.0223309
0.0223238
0.0224761
0.0225235
0.0224172
0.0224011
0.0210439
0.01886
0.0221576
0.0222421
0.0223752
0.0223804
0.0225501
0.0226274
0.0225496
0.0225769
0.0213822
0.0195168
0.0221225
0.0222089
0.0223491
0.0223633
0.0225477
0.0226484
0.0225923
0.0226793
0.0215147
0.0198247
0.022263
0.0223548
0.0224984
0.0225249
0.0227243
0.0228484
0.0228302
0.0229765
0.0218573
0.0203525
0.0221803
0.0222761
0.0224259
0.0224576
0.0226712
0.0228185
0.0228576
0.023087
0.0220264
0.0207303
0.02226
0.0223406
0.0225008
0.0225503
0.0227897
0.022982
0.0231031
0.0233608
0.0224708
0.0212692
0.0207557
0.0208188
0.0208988
0.020853
0.0209153
0.0208373
0.0205082
0.0200333
0.0187417
0.0151391
0.0207177
0.0208054
0.0208937
0.0208681
0.0209675
0.0209457
0.0206853
0.0203768
0.0192911
0.0143489
0.0208311
0.020924
0.0210216
0.0210187
0.0211516
0.0211858
0.0210411
0.0210507
0.0206809
0.0167019
0.0207611
0.0208592
0.0209702
0.0209877
0.0211601
0.021264
0.0212767
0.02164
0.021674
0.0205912
0.0208505
0.0209545
0.0210732
0.0211066
0.0213003
0.0214392
0.021504
0.0219102
0.0217138
0.0208627
0.0208835
0.0209899
0.0211147
0.021157
0.0213598
0.0215154
0.0215768
0.0219307
0.0215355
0.0202739
0.0208561
0.0209628
0.0210943
0.0211439
0.0213574
0.0215321
0.0215985
0.0219741
0.0215613
0.0201776
0.0209836
0.0210944
0.0212301
0.0212928
0.0215238
0.0217271
0.0218402
0.0223142
0.0221467
0.021328
0.0209173
0.0210327
0.0211747
0.0212446
0.0214947
0.0217285
0.0219193
0.0225453
0.0225369
0.022357
0.0209842
0.0210849
0.0212403
0.0213329
0.0216212
0.0219179
0.0222308
0.02294
0.0229798
0.0227404
0.0194332
0.0195313
0.0196173
0.0196415
0.0198081
0.0199584
0.0200435
0.0202346
0.0203594
0.019102
0.0194042
0.0195242
0.019617
0.0196605
0.0198652
0.0200828
0.0202768
0.0206908
0.0216915
0.0210202
0.0195073
0.0196316
0.0197348
0.0198011
0.0200426
0.0203185
0.0206383
0.0214749
0.0237304
0.026228
0.0194494
0.0195766
0.0196911
0.0197722
0.0200428
0.0203597
0.0207628
0.0218838
0.024152
0.0281285
0.0195328
0.0196623
0.0197826
0.0198734
0.0201491
0.020461
0.0208238
0.0217848
0.0229527
0.0240564
0.0195658
0.0196945
0.0198189
0.0199129
0.0201822
0.0204812
0.0207858
0.0215578
0.0220973
0.0215496
0.019545
0.0196719
0.0198017
0.0198995
0.0201707
0.0204764
0.0207626
0.0214901
0.0219303
0.0209892
0.0196598
0.0197888
0.0199232
0.0200337
0.0203236
0.0206656
0.0210161
0.0218914
0.0227819
0.023246
0.0196076
0.019741
0.0198812
0.0199995
0.0203136
0.0206979
0.0211559
0.022317
0.0237324
0.026708
0.0196624
0.0197812
0.0199372
0.0200818
0.0204452
0.0209088
0.0215302
0.022859
0.0243776
0.0268763
0.0180598
0.018184
0.0182725
0.0183616
0.0186262
0.0190039
0.0195459
0.0204476
0.0220082
0.0243063
0.0180398
0.0181848
0.0182804
0.0183903
0.0186987
0.0191565
0.0198503
0.0209752
0.0235656
0.0287747
0.0181346
0.0182839
0.0183916
0.0185243
0.0188727
0.0193945
0.0202087
0.0217274
0.0256442
0.0353873
0.0180877
0.0182377
0.0183545
0.0184955
0.0188613
0.0193953
0.0201961
0.0218677
0.0257185
0.0346505
0.0181656
0.0183151
0.0184358
0.0185797
0.018934
0.0194188
0.0200648
0.0214233
0.0236374
0.0261579
0.0181985
0.0183441
0.0184667
0.0186083
0.0189413
0.0193795
0.0199158
0.0210266
0.022417
0.0223623
0.018184
0.0183253
0.0184517
0.0185932
0.0189179
0.0193452
0.0198416
0.0208404
0.0219974
0.0212886
0.0182872
0.0184286
0.0185595
0.0187125
0.0190554
0.0195251
0.0201026
0.0212578
0.0227956
0.024088
0.0182472
0.0183924
0.0185283
0.0186883
0.0190578
0.019584
0.0203038
0.0218779
0.0242625
0.0305666
0.0182916
0.0184212
0.0185736
0.0187595
0.0191848
0.0198024
0.0207144
0.0225716
0.0254665
0.0318082
0.0166342
0.016763
0.0168339
0.0169501
0.0172434
0.0177305
0.0186026
0.0199487
0.0225268
0.0296566
0.0166241
0.0167745
0.0168548
0.0169937
0.0173348
0.0179002
0.0189041
0.0203577
0.0232298
0.0340571
0.0167118
0.0168673
0.0169615
0.017122
0.017503
0.0181291
0.0191903
0.0208093
0.024359
0.0379779
0.0166748
0.0168302
0.0169322
0.017096
0.0174874
0.0181146
0.0190881
0.0207296
0.024547
0.0354316
0.0167483
0.0169019
0.0170073
0.0171709
0.0175462
0.0181081
0.0188725
0.0202466
0.0229386
0.0268463
0.0167813
0.0169291
0.0170354
0.017195
0.017546
0.0180487
0.0187002
0.0199608
0.0222966
0.0237087
0.0167726
0.0169145
0.0170232
0.0171804
0.0175165
0.0179904
0.0185883
0.0197418
0.0217183
0.0219951
0.016865
0.0170048
0.0171179
0.0172846
0.0176337
0.0181415
0.0188113
0.0200367
0.0217886
0.0230735
0.0168355
0.0169779
0.0170947
0.0172652
0.0176359
0.0182016
0.0190171
0.0206689
0.022992
0.0304629
0.01687
0.0169946
0.0171268
0.0173183
0.0177418
0.0184013
0.0194308
0.0214488
0.0249119
0.0354196
0.0151583
0.0152605
0.0152852
0.0153705
0.0155863
0.0159704
0.0168756
0.0182714
0.0204243
0.0353947
0.0151588
0.0152854
0.0153226
0.015431
0.0156928
0.016132
0.0170885
0.0183335
0.0195341
0.0345186
0.0152395
0.0153727
0.0154248
0.0155511
0.0158449
0.0163338
0.0172609
0.01833
0.0196168
0.0344479
0.0152112
0.0153451
0.0154055
0.0155338
0.0158379
0.0163487
0.0171905
0.0181855
0.0205569
0.0333213
0.0152814
0.0154148
0.0154807
0.015612
0.0159128
0.0163956
0.0170809
0.0180208
0.0208715
0.0299523
0.0153149
0.0154431
0.015511
0.0156421
0.0159341
0.0163871
0.0170157
0.01811
0.021351
0.0294777
0.015312
0.0154341
0.0155041
0.015633
0.015912
0.0163286
0.0168911
0.0179366
0.0208807
0.0270328
0.015395
0.0155132
0.0155874
0.0157229
0.0160058
0.016427
0.016995
0.0180048
0.0198868
0.0238405
0.0153749
0.0154942
0.0155704
0.0157046
0.015994
0.0164442
0.0170965
0.0184097
0.0197667
0.0282071
0.0154009
0.0154988
0.015587
0.015732
0.0160576
0.0165778
0.017442
0.0190804
0.0215039
0.0362755
0.0136488
0.0136922
0.0136457
0.0136411
0.0136777
0.0137252
0.0143019
0.0155221
0.014614
0.0333654
0.0136596
0.0137319
0.0136999
0.0137168
0.0137901
0.0138572
0.0143591
0.0151301
0.0122187
0.0268338
0.0137323
0.0138124
0.0137945
0.0138239
0.0139142
0.0140232
0.014462
0.0147253
0.011657
0.0249842
0.0137113
0.0137946
0.0137868
0.013821
0.0139279
0.0141059
0.0145583
0.0147096
0.0133591
0.0275972
0.0137787
0.0138653
0.0138677
0.0139133
0.0140426
0.0142698
0.0147155
0.0151025
0.0155831
0.0316573
0.0138129
0.0138975
0.0139058
0.0139594
0.0141093
0.0143774
0.0148641
0.0156246
0.017515
0.0341715
0.0138159
0.0138959
0.0139076
0.0139618
0.0141114
0.0143615
0.0147787
0.0155682
0.0179145
0.0333678
0.0138902
0.0139656
0.0139812
0.0140394
0.0141854
0.0144029
0.0147109
0.0153766
0.0164993
0.0267664
0.0138784
0.0139534
0.0139687
0.0140196
0.0141507
0.0143339
0.014573
0.0153347
0.0142635
0.0224388
0.0138968
0.0139453
0.0139676
0.0140147
0.0141511
0.0143305
0.0146834
0.0155071
0.0137666
0.0250368
0.0249344
0.0241317
0.0233131
0.0220934
0.0201413
0.0187444
0.0190197
0.0202879
0.0218929
0.022229
0.0265032
0.0264717
0.0260985
0.0245126
0.0216909
0.0193229
0.0189341
0.0201661
0.0222932
0.0234929
0.0312487
0.0324167
0.029522
0.0257745
0.021826
0.0190431
0.0186103
0.0199449
0.0221744
0.0228064
0.0350571
0.035281
0.0317484
0.0268558
0.0221103
0.0190045
0.0184837
0.0198221
0.0221609
0.0235826
0.0340689
0.0344023
0.0310394
0.0258816
0.0212628
0.0187242
0.0185929
0.0198485
0.0218113
0.0228146
0.0316411
0.0314107
0.0288804
0.0248284
0.0212766
0.0194265
0.0192994
0.0200292
0.0212913
0.0210686
0.030887
0.0313477
0.0292063
0.0250795
0.0212799
0.019267
0.0191381
0.0200981
0.0218113
0.0222367
0.0306412
0.0327207
0.0306267
0.0259065
0.0212658
0.0186267
0.0184493
0.019914
0.0224275
0.0240418
0.0292125
0.0308106
0.0298613
0.0262798
0.0217196
0.0186197
0.0180924
0.019415
0.0218967
0.0238295
0.0272329
0.0277896
0.0274629
0.024825
0.0207864
0.0179645
0.0176172
0.0188297
0.0206725
0.0209524
0.0191258
0.0182058
0.0181805
0.0176155
0.0161376
0.0154171
0.0165004
0.0187648
0.0212062
0.0229874
0.0179029
0.0190146
0.0202231
0.0194262
0.0173414
0.0159043
0.016162
0.0179977
0.0211599
0.0238012
0.0212032
0.023861
0.0237717
0.021518
0.0185688
0.0165694
0.0164957
0.0182675
0.0215273
0.0242092
0.0250701
0.026068
0.0243136
0.0209665
0.0175647
0.0155951
0.0157143
0.0176017
0.0210632
0.0238781
0.0254646
0.025435
0.0228024
0.0191054
0.0159472
0.0144125
0.0149887
0.0174565
0.0209051
0.0235171
0.0248854
0.0247522
0.0223921
0.018998
0.0163189
0.0153632
0.0164307
0.0185822
0.0209824
0.0228864
0.0250568
0.0256037
0.0233694
0.0195878
0.0163587
0.014932
0.0156441
0.0179553
0.0211812
0.023684
0.0252511
0.0260464
0.0237805
0.0197268
0.0162284
0.0145857
0.0149801
0.0171337
0.0207941
0.0236701
0.0251123
0.0261731
0.0251389
0.0217259
0.0180257
0.0158742
0.0158369
0.0175019
0.0205785
0.0233831
0.024765
0.0253038
0.0248537
0.0219233
0.0182317
0.0159919
0.0159569
0.0176066
0.0199625
0.0220178
0.0132478
0.0131068
0.0134651
0.0133821
0.012554
0.0124839
0.0138822
0.0164401
0.0190911
0.0203149
0.0105199
0.012426
0.0143553
0.0140353
0.012746
0.0123848
0.0133394
0.0154201
0.0186846
0.0208843
0.0133704
0.0161342
0.0176538
0.0163459
0.0142139
0.0133764
0.0140278
0.0159002
0.0192434
0.0216193
0.0174507
0.0188218
0.0176559
0.0153665
0.0130469
0.0122371
0.0131851
0.0153133
0.0188146
0.0210859
0.0199189
0.0195768
0.0173086
0.0147652
0.0125919
0.0116947
0.0125104
0.0150085
0.0187213
0.0208633
0.020502
0.020553
0.0187535
0.016244
0.0138044
0.0125531
0.0132869
0.0158268
0.0189078
0.0205035
0.0208916
0.0210612
0.0188003
0.0157735
0.0130468
0.0118085
0.012406
0.0148458
0.0185882
0.0208197
0.0215896
0.0211327
0.0182335
0.014881
0.0121973
0.0112985
0.0121441
0.014471
0.0180647
0.0203134
0.0217819
0.0221628
0.0203079
0.016998
0.0139761
0.0127164
0.0133225
0.0152474
0.0181854
0.0203363
0.0214399
0.0223712
0.0213587
0.0180095
0.0146969
0.0131509
0.0136163
0.0155859
0.0181181
0.0200096
0.0105232
0.0110711
0.0112139
0.0106213
0.0102308
0.0105862
0.0118218
0.0138604
0.0159168
0.0157251
0.00743904
0.00909281
0.0103679
0.00956488
0.00870597
0.00911516
0.0104087
0.0124893
0.015264
0.0161559
0.0111329
0.0123297
0.0126418
0.0108983
0.0091938
0.00935676
0.0105743
0.0127177
0.0157585
0.0168858
0.014658
0.0154126
0.0128911
0.0103024
0.00836249
0.00825472
0.00966643
0.0121438
0.0154395
0.0165137
0.0182966
0.0170897
0.0141165
0.0113028
0.00876661
0.00781123
0.00896398
0.01163
0.0151694
0.0162295
0.0191901
0.0188135
0.0171742
0.0142098
0.0107041
0.00901364
0.00973104
0.0121884
0.0152231
0.0158807
0.0199176
0.0187922
0.0165034
0.0131041
0.00981155
0.00861949
0.00932777
0.0114664
0.0147642
0.0160181
0.0208506
0.0184046
0.0150259
0.0115188
0.00867849
0.00801703
0.00914088
0.0114687
0.0146203
0.0157507
0.0209517
0.0197515
0.0165748
0.0127826
0.00986463
0.00915485
0.0103316
0.0125198
0.0151102
0.0161421
0.0199134
0.0200161
0.0178069
0.0136791
0.0103723
0.00937319
0.0104277
0.0127658
0.0152151
0.0161836
0.0115856
0.0115638
0.0105746
0.00885098
0.0081717
0.00822954
0.00930664
0.0110986
0.0127465
0.0116222
0.0101387
0.0101913
0.00889222
0.00629643
0.00510937
0.00580378
0.00748255
0.00963802
0.0119461
0.0117777
0.0159993
0.0135475
0.0101685
0.00656405
0.00464647
0.00534604
0.00699874
0.00945423
0.0122343
0.0124418
0.0179453
0.015375
0.0103824
0.0065223
0.00431506
0.00456037
0.00598838
0.00864802
0.0118008
0.0120822
0.0200099
0.0166563
0.012088
0.00795226
0.00463268
0.00369599
0.0048436
0.00756899
0.0111345
0.0115822
0.0201189
0.0185862
0.0161785
0.0108609
0.00574194
0.00394743
0.00495462
0.00775166
0.0110635
0.0112665
0.0203737
0.0181836
0.0158401
0.0104442
0.00533493
0.00403858
0.00519971
0.00758508
0.0106974
0.0113202
0.0210577
0.0171594
0.0136517
0.00884213
0.00508275
0.00458159
0.00600499
0.00820799
0.0109714
0.0113212
0.0223784
0.0194188
0.0144136
0.0092344
0.00588013
0.00558539
0.00723584
0.00960086
0.0119076
0.0120262
0.0217718
0.0201568
0.0156781
0.0100296
0.00613084
0.0054741
0.00707939
0.00977253
0.012144
0.0122932
0.0157788
0.0145172
0.0117591
0.00830155
0.00547586
0.00474183
0.00620862
0.00863774
0.0105647
0.00876196
0.0166981
0.014523
0.00982377
0.00485225
0.00228392
0.00257375
0.00481808
0.00750277
0.0098
0.00863681
0.0234799
0.0172902
0.0102127
0.0042441
0.0015169
0.00220262
0.00444464
0.00746854
0.0100653
0.00924667
0.0247464
0.0176377
0.0102235
0.00467663
0.00167123
0.0019714
0.00395476
0.0070151
0.00970921
0.00884221
0.0226887
0.0172024
0.0116027
0.00623812
0.00222625
0.00176461
0.00309652
0.005845
0.0088065
0.00808989
0.0213246
0.0190915
0.0157746
0.00852402
0.00298533
0.00164346
0.00279824
0.00546484
0.00850329
0.00764814
0.0202779
0.0186821
0.0162098
0.00855888
0.00286865
0.00207053
0.00344082
0.00562394
0.00826731
0.00759422
0.0210724
0.0179103
0.0140096
0.00721923
0.00300965
0.00276214
0.00449179
0.00660392
0.00881126
0.00786422
0.0252582
0.0209321
0.0140554
0.00693652
0.00295673
0.00304425
0.00531497
0.00786915
0.00984679
0.00874757
0.0266924
0.0229687
0.0156862
0.00787626
0.00319517
0.00271027
0.00497102
0.00794332
0.0101198
0.00919735
0.0220054
0.0201577
0.0162112
0.0105199
0.00505188
0.0032431
0.00504077
0.00808369
0.0103441
0.0079548
0.0241919
0.0204262
0.0136286
0.00608919
0.00175657
0.00148175
0.00397589
0.00735311
0.0096952
0.00751243
0.0281601
0.0211586
0.0126853
0.0047424
0.000829547
0.00109656
0.00390862
0.00760664
0.00998776
0.0080918
0.0287672
0.0202006
0.0122654
0.00560538
0.00151817
0.00146788
0.00409528
0.00749947
0.00982687
0.00787023
0.0239722
0.0184772
0.0133208
0.0074728
0.00284111
0.00217341
0.00375211
0.00648677
0.00897357
0.00709507
0.0212486
0.0196043
0.0166419
0.00936199
0.00395576
0.0028027
0.00368153
0.00604642
0.00860187
0.0063726
0.0193441
0.0194511
0.0175825
0.00953326
0.0037963
0.00315766
0.00425425
0.0063345
0.00849524
0.00610294
0.0206151
0.0193765
0.0160884
0.00807719
0.00334665
0.00305632
0.00490521
0.00721007
0.00903464
0.00655179
0.0268658
0.0229021
0.0156986
0.00707504
0.00244934
0.0024195
0.00505504
0.00792269
0.00970689
0.00729158
0.0305725
0.025982
0.0177083
0.00813223
0.00269097
0.0022845
0.00478799
0.00798709
0.00982863
0.00775035
0.0291103
0.0274845
0.0240203
0.0166787
0.00787776
0.00500269
0.0069218
0.0102897
0.0127566
0.0104117
0.0289391
0.025704
0.0203759
0.0111695
0.00420064
0.00360299
0.00647935
0.0101512
0.0126189
0.009666
0.0283606
0.0243279
0.018309
0.0093086
0.00337944
0.00335964
0.00688833
0.0106585
0.0130345
0.0102808
0.0269304
0.0222685
0.0168704
0.00992686
0.00451065
0.00407517
0.00706228
0.0105005
0.0129676
0.0104175
0.0226601
0.0200164
0.017139
0.0113757
0.00616697
0.00501172
0.0066116
0.00952859
0.0123744
0.0101127
0.0207924
0.0203306
0.0193539
0.0130232
0.00718078
0.00584807
0.00653955
0.00896962
0.0118598
0.0092124
0.0180789
0.019909
0.0205119
0.0138495
0.00690827
0.00593172
0.00684455
0.00908436
0.0114159
0.00815493
0.0186288
0.0199869
0.0200875
0.0126359
0.00597478
0.00522438
0.00717234
0.00977516
0.0117231
0.00856078
0.0251163
0.0241113
0.0194927
0.0106544
0.00462113
0.00445048
0.00709586
0.0102328
0.0120837
0.00916878
0.0317206
0.0279465
0.0214038
0.0115546
0.00472579
0.00417472
0.00677128
0.00985659
0.0113142
0.00913297
0.0394432
0.0357845
0.0336567
0.0271771
0.0152718
0.00766261
0.00559285
0.00679477
0.0135677
0.0230236
0.0317874
0.031452
0.0302412
0.0216263
0.0105787
0.00598269
0.00530606
0.00641495
0.0126622
0.0200768
0.027875
0.0284204
0.0275544
0.0190476
0.00964107
0.00617419
0.00587711
0.00690254
0.0132147
0.0211396
0.0263473
0.0260933
0.0247321
0.017942
0.0097329
0.0061287
0.00556608
0.00646651
0.0131442
0.0221879
0.0260743
0.0239115
0.0236749
0.0183756
0.0109335
0.00689621
0.00566583
0.00643652
0.0131636
0.0230749
0.0267217
0.0236758
0.0248786
0.0205163
0.0121078
0.00733443
0.00539563
0.00611556
0.0125094
0.0212648
0.0220105
0.0222098
0.0261172
0.0224935
0.0127923
0.0074612
0.00520567
0.00585009
0.0114823
0.0176558
0.0187426
0.0221185
0.0263685
0.0215158
0.0122382
0.00752901
0.00613553
0.00716733
0.0121534
0.0173673
0.0234199
0.0256911
0.025317
0.018287
0.00988381
0.00672585
0.00652723
0.00800095
0.0126684
0.0177464
0.0314434
0.0288989
0.0257472
0.0182556
0.00981241
0.00601169
0.00547596
0.00687648
0.0120199
0.0193342
0.0603726
0.0475357
0.0424119
0.0383377
0.0314025
0.022298
0.0102578
0.00279481
0.0324994
0.109875
0.0450778
0.0416128
0.039882
0.0356941
0.0283229
0.0203367
0.00925288
0.00135237
0.0304163
0.104867
0.0361503
0.0364237
0.0358045
0.0323448
0.0262781
0.0195134
0.00871134
0.000329829
0.0295671
0.104675
0.0362538
0.0331611