/*--------------------------------*- C++ -*----------------------------------*\
  =========                 |
  \\      /  F ield         | OpenFOAM: The Open Source CFD Toolbox
   \\    /   O peration     | Website:  https://openfoam.org
    \\  /    A nd           | Version:  6
     \\/     M anipulation  |
\*---------------------------------------------------------------------------*/
FoamFile
{
    version     2.0;
    format      ascii;
    class       surfaceScalarField;
    location    "1100";
    object      phi;
}
// * * * * * * * * * * * * * * * * * * * * * * * * * * * * * * * * * * * * * //

dimensions      [0 3 -1 0 0 0 0];

internalField   nonuniform List<scalar> 
19500
(
1.55314e-07
1.56496e-07
9.96875e-05
1.64429e-08
1.56547e-07
9.99816e-05
1.02909e-08
1.56533e-07
9.98489e-05
4.51068e-09
1.56448e-07
9.98485e-05
-2.13756e-09
1.56349e-07
9.98495e-05
-8.59745e-09
1.56225e-07
9.98494e-05
-1.37555e-08
1.56083e-07
9.98482e-05
-1.8828e-08
1.55957e-07
9.98483e-05
-1.60427e-07
1.55786e-07
9.99849e-05
1.55493e-07
9.96833e-05
1.55369e-07
1.70117e-08
9.99834e-05
1.63529e-08
1.69171e-08
0.000100278
1.02463e-08
1.68671e-08
0.000100145
4.44749e-09
1.68111e-08
0.000100145
-2.21552e-09
1.6742e-08
0.000100145
-8.68606e-09
1.66669e-08
0.000100145
-1.3844e-08
1.65925e-08
0.000100144
-1.88322e-08
1.65267e-08
0.000100144
-1.60715e-07
1.64763e-08
0.00010028
1.64774e-08
9.99775e-05
1.55364e-07
1.12473e-08
9.98497e-05
1.63028e-08
1.12057e-08
0.000100144
1.01775e-08
1.11464e-08
0.000100011
4.37143e-09
1.1075e-08
0.000100011
-2.30393e-09
1.09894e-08
0.000100012
-8.77801e-09
1.08971e-08
0.000100011
-1.39161e-08
1.08062e-08
0.00010001
-1.88818e-08
1.07265e-08
0.00010001
-1.60868e-07
1.06594e-08
0.000100147
1.05937e-08
9.98442e-05
1.55302e-07
5.79485e-09
9.98494e-05
1.62554e-08
5.74709e-09
0.000100144
1.01067e-08
5.69619e-09
0.000100011
4.28784e-09
5.6279e-09
0.00010001
-2.39511e-09
5.54485e-09
0.000100011
-8.86845e-09
5.45475e-09
0.000100011
-1.39931e-08
5.36541e-09
0.00010001
-1.89397e-08
5.2848e-09
0.00010001
-1.60951e-07
5.20827e-09
0.000100147
5.16807e-09
9.98437e-05
1.5525e-07
-6.17784e-10
9.98505e-05
1.62072e-08
-6.64041e-10
0.000100145
1.00371e-08
-7.10348e-10
0.000100012
4.20504e-09
-7.67478e-10
0.000100011
-2.48456e-09
-8.36344e-10
0.000100012
-8.95706e-09
-9.09927e-10
0.000100012
-1.4071e-08
-9.82407e-10
0.000100011
-1.89994e-08
-1.0497e-09
0.00010001
-1.61018e-07
-1.11294e-09
0.000100148
-1.12003e-09
9.98445e-05
1.55195e-07
-6.97805e-09
9.98505e-05
1.61668e-08
-7.0194e-09
0.000100145
9.97883e-09
-7.05725e-09
0.000100012
4.13466e-09
-7.09871e-09
0.000100011
-2.55983e-09
-7.14828e-09
0.000100012
-9.03174e-09
-7.20043e-09
0.000100012
-1.41395e-08
-7.25189e-09
0.000100011
-1.90549e-08
-7.30228e-09
0.00010001
-1.61037e-07
-7.34934e-09
0.000100147
-7.32761e-09
9.98445e-05
1.55142e-07
-1.22568e-08
9.98495e-05
1.61377e-08
-1.22918e-08
0.000100144
9.93681e-09
-1.23086e-08
0.000100011
4.08251e-09
-1.2332e-08
0.00010001
-2.61514e-09
-1.23615e-08
0.000100011
-9.0873e-09
-1.23939e-08
0.000100011
-1.41938e-08
-1.24282e-08
0.00010001
-1.91021e-08
-1.24669e-08
0.000100009
-1.61013e-07
-1.25117e-08
0.000100146
-1.24649e-08
9.98435e-05
1.55114e-07
-1.77179e-08
9.98497e-05
1.61187e-08
-1.76755e-08
0.000100144
9.91143e-09
-1.76819e-08
0.000100011
4.04919e-09
-1.76962e-08
0.000100011
-2.6506e-09
-1.77137e-08
0.000100011
-9.12449e-09
-1.77343e-08
0.000100011
-1.42347e-08
-1.77592e-08
0.00010001
-1.91406e-08
-1.77892e-08
0.00010001
-1.60979e-07
-1.78216e-08
0.000100146
-1.78441e-08
9.98438e-05
1.55043e-07
-1.57784e-07
9.99844e-05
1.61102e-08
-1.57936e-07
0.000100279
9.89636e-09
-1.58006e-07
0.000100146
4.02268e-09
-1.58026e-07
0.000100146
-2.67493e-09
-1.58054e-07
0.000100146
-9.14847e-09
-1.58065e-07
0.000100146
-1.42705e-08
-1.58055e-07
0.000100145
-1.91704e-08
-1.58041e-07
0.000100144
-1.60885e-07
-1.57963e-07
0.000100281
-1.57808e-07
9.99784e-05
1.5489e-07
9.96868e-05
1.61512e-08
9.99802e-05
9.86504e-09
9.98477e-05
3.99398e-09
9.98472e-05
-2.69524e-09
9.9848e-05
-9.15411e-09
9.98478e-05
-1.42531e-08
9.98464e-05
-1.92098e-08
9.98463e-05
-1.60731e-07
9.99829e-05
9.96809e-05
2.19456e-07
2.23697e-07
9.92415e-05
6.63111e-08
2.23819e-07
9.99079e-05
3.70388e-08
2.23567e-07
9.96514e-05
1.03213e-08
2.23529e-07
9.96484e-05
-1.02986e-08
2.23407e-07
9.96433e-05
-3.00307e-08
2.23224e-07
9.96424e-05
-5.40933e-08
2.22989e-07
9.96458e-05
-7.91729e-08
2.22693e-07
9.96471e-05
-2.3495e-07
2.22671e-07
9.99145e-05
2.2191e-07
9.92239e-05
2.19557e-07
7.08008e-08
9.99138e-05
6.62904e-08
7.08352e-08
0.000100581
3.69369e-08
7.08065e-08
0.000100324
1.01342e-08
7.0786e-08
0.000100321
-1.05371e-08
7.07929e-08
0.000100315
-3.0312e-08
7.08077e-08
0.000100314
-5.44317e-08
7.08233e-08
0.000100316
-7.95145e-08
7.08555e-08
0.000100317
-2.35733e-07
7.08883e-08
0.000100585
7.062e-08
9.98906e-05
2.19325e-07
4.36177e-08
9.96546e-05
6.62569e-08
4.36301e-08
0.000100321
3.69468e-08
4.36731e-08
0.000100064
1.01467e-08
4.37116e-08
0.000100061
-1.05341e-08
4.37867e-08
0.000100056
-3.03209e-08
4.38879e-08
0.000100055
-5.44488e-08
4.40002e-08
0.000100057
-7.94858e-08
4.41164e-08
0.000100058
-2.35697e-07
4.41795e-08
0.000100326
4.40486e-08
9.96327e-05
2.19355e-07
1.87019e-08
9.96521e-05
6.62615e-08
1.86985e-08
0.000100319
3.6984e-08
1.87847e-08
0.000100062
1.02242e-08
1.89016e-08
0.000100059
-1.04288e-08
1.9072e-08
0.000100053
-3.02036e-08
1.92888e-08
0.000100052
-5.43317e-08
1.95274e-08
0.000100055
-7.93758e-08
1.97591e-08
0.000100056
-2.35798e-07
1.99279e-08
0.000100324
2.00135e-08
9.96296e-05
2.19361e-07
-6.80027e-10
9.96476e-05
6.63288e-08
-6.61155e-10
0.000100314
3.70971e-08
-5.43698e-10
0.000100057
1.03934e-08
-3.55808e-10
0.000100054
-1.02129e-08
-9.3698e-11
0.000100049
-2.9965e-08
2.35878e-10
0.000100047
-5.41036e-08
5.99803e-10
0.00010005
-7.91848e-08
9.5205e-10
0.000100051
-2.35678e-07
1.2376e-09
0.000100319
1.51522e-09
9.96251e-05
2.19373e-07
-2.00269e-08
9.96476e-05
6.6444e-08
-1.99903e-08
0.000100314
3.72814e-08
-1.98544e-08
0.000100057
1.06553e-08
-1.96163e-08
0.000100054
-9.88313e-09
-1.92911e-08
0.000100049
-2.95999e-08
-1.88852e-08
0.000100048
-5.37528e-08
-1.84374e-08
0.000100051
-7.88894e-08
-1.8008e-08
0.000100051
-2.35346e-07
-1.76402e-08
0.00010032
-1.72034e-08
9.96257e-05
2.19387e-07
-4.48236e-08
9.96521e-05
6.65941e-08
-4.48129e-08
0.000100318
3.75161e-08
-4.46704e-08
0.000100062
1.09806e-08
-4.44113e-08
0.000100059
-9.47665e-09
-4.40712e-08
0.000100053
-2.91501e-08
-4.36527e-08
0.000100052
-5.33224e-08
-4.31966e-08
0.000100055
-7.8526e-08
-4.27658e-08
0.000100056
-2.34841e-07
-4.23718e-08
0.000100324
-4.18503e-08
9.96313e-05
2.19373e-07
-7.17746e-08
9.96546e-05
6.67752e-08
-7.17941e-08
0.00010032
3.77761e-08
-7.16273e-08
0.000100064
1.13245e-08
-7.13869e-08
0.000100061
-9.0548e-09
-7.10899e-08
0.000100056
-2.86899e-08
-7.07294e-08
0.000100055
-5.28889e-08
-7.03366e-08
0.000100058
-7.81573e-08
-6.99652e-08
0.000100059
-2.3425e-07
-6.96836e-08
0.000100327
-6.91975e-08
9.9635e-05
2.1962e-07
-2.26119e-07
9.99165e-05
6.69423e-08
-2.26387e-07
0.000100583
3.79773e-08
-2.26121e-07
0.000100326
1.16102e-08
-2.26044e-07
0.000100324
-8.68888e-09
-2.25841e-07
0.000100318
-2.82778e-08
-2.25527e-07
0.000100318
-5.24771e-08
-2.25107e-07
0.000100321
-7.78658e-08
-2.24607e-07
0.000100322
-2.34005e-07
-2.2442e-07
0.000100589
-2.23817e-07
9.98971e-05
2.1935e-07
9.92395e-05
6.69373e-08
9.99044e-05
3.80722e-08
9.96485e-05
1.18255e-08
9.96455e-05
-8.37715e-09
9.96404e-05
-2.7868e-08
9.96398e-05
-5.19926e-08
9.96435e-05
-7.73893e-08
9.96452e-05
-2.33367e-07
9.99126e-05
9.92227e-05
2.45969e-07
2.52164e-07
9.87405e-05
8.45874e-08
2.52396e-07
9.98138e-05
4.91558e-08
2.51571e-07
9.94321e-05
1.31164e-08
2.51503e-07
9.94296e-05
-1.67705e-08
2.5115e-07
9.94185e-05
-4.53135e-08
2.50704e-07
9.94168e-05
-7.73336e-08
2.50178e-07
9.94241e-05
-1.06188e-07
2.49424e-07
9.94231e-05
-2.70336e-07
2.49599e-07
9.98254e-05
2.48005e-07
9.87033e-05
2.46186e-07
9.17049e-08
9.98251e-05
8.46964e-08
9.19142e-08
0.0001009
4.8905e-08
9.17537e-08
0.000100516
1.26793e-08
9.16339e-08
0.000100513
-1.73632e-08
9.15568e-08
0.000100501
-4.60436e-08
9.14642e-08
0.000100498
-7.81684e-08
9.13489e-08
0.000100504
-1.07238e-07
9.1282e-08
0.000100501
-2.71935e-07
9.13038e-08
0.000100904
9.04169e-08
9.97739e-05
2.45399e-07
5.95374e-08
9.94384e-05
8.45267e-08
5.9503e-08
0.000100511
4.8865e-08
5.95259e-08
0.000100129
1.26145e-08
5.94917e-08
0.000100126
-1.74493e-08
5.95028e-08
0.000100114
-4.61518e-08
5.95333e-08
0.000100112
-7.82989e-08
5.95727e-08
0.000100118
-1.0723e-07
5.9639e-08
0.000100115
-2.71658e-07
5.96581e-08
0.000100519
5.92e-08
9.93899e-05
2.45466e-07
2.63432e-08
9.94369e-05
8.44571e-08
2.6266e-08
0.00010051
4.88266e-08
2.63417e-08
0.000100127
1.26156e-08
2.64254e-08
0.000100125
-1.74181e-08
2.65807e-08
0.000100113
-4.61021e-08
2.6801e-08
0.00010011
-7.8238e-08
2.70668e-08
0.000100116
-1.07161e-07
2.73536e-08
0.000100113
-2.72088e-07
2.76101e-08
0.000100517
2.75591e-08
9.9387e-05
2.4537e-07
-1.50019e-09
9.94272e-05
8.45036e-08
-1.57689e-09
0.0001005
4.8916e-08
-1.44138e-09
0.000100117
1.27675e-08
-1.23844e-09
0.000100115
-1.7202e-08
-9.2984e-10
0.000100103
-4.5839e-08
-5.08415e-10
0.0001001
-7.79672e-08
-1.64782e-12
0.000100106
-1.06923e-07
5.30669e-10
0.000100104
-2.71992e-07
1.02943e-09
0.000100508
1.39912e-09
9.93772e-05
2.45317e-07
-2.9247e-08
9.94272e-05
8.46192e-08
-2.93204e-08
0.000100499
4.9118e-08
-2.91408e-08
0.000100117
1.30785e-08
-2.88437e-08
0.000100115
-1.67782e-08
-2.84189e-08
0.000100103
-4.53282e-08
-2.78476e-08
0.0001001
-7.74315e-08
-2.71655e-08
0.000100107
-1.06437e-07
-2.64594e-08
0.000100104
-2.71523e-07
-2.57782e-08
0.000100508
-2.50711e-08
9.93787e-05
2.45308e-07
-6.21465e-08
9.9437e-05
8.47877e-08
-6.22519e-08
0.000100509
4.94061e-08
-6.20641e-08
0.000100127
1.35086e-08
-6.17174e-08
0.000100124
-1.62008e-08
-6.12513e-08
0.000100113
-4.46376e-08
-6.06339e-08
0.00010011
-7.6705e-08
-5.99025e-08
0.000100117
-1.05762e-07
-5.91576e-08
0.000100115
-2.70774e-07
-5.84332e-08
0.000100519
-5.74894e-08
9.93911e-05
2.45143e-07
-9.37943e-08
9.94385e-05
8.50357e-08
-9.41302e-08
0.00010051
4.97582e-08
-9.38214e-08
0.000100128
1.39903e-08
-9.34815e-08
0.000100126
-1.55781e-08
-9.30689e-08
0.000100114
-4.39078e-08
-9.25236e-08
0.000100112
-7.5949e-08
-9.18719e-08
0.000100119
-1.05107e-07
-9.12563e-08
0.000100118
-2.697e-07
-9.07092e-08
0.000100521
-8.96454e-08
9.93956e-05
2.45879e-07
-2.56303e-07
9.98305e-05
8.53512e-08
-2.56847e-07
0.000100904
5.00474e-08
-2.56075e-07
0.000100521
1.44285e-08
-2.56102e-07
0.000100519
-1.49996e-08
-2.55815e-07
0.000100508
-4.32251e-08
-2.55378e-07
0.000100506
-7.5239e-08
-2.54802e-07
0.000100513
-1.04546e-07
-2.5391e-07
0.000100511
-2.69621e-07
-2.53952e-07
0.000100915
-2.52884e-07
9.97887e-05
2.45319e-07
9.87362e-05
8.50618e-08
9.9806e-05
5.00849e-08
9.94256e-05
1.4657e-08
9.9423e-05
-1.45743e-08
9.94119e-05
-4.26026e-08
9.94105e-05
-7.43993e-08
9.94186e-05
-1.0353e-07
9.94185e-05
-2.68538e-07
9.98215e-05
9.87003e-05
2.60908e-07
2.69107e-07
9.82076e-05
9.25253e-08
2.69491e-07
9.97097e-05
5.15756e-08
2.68001e-07
9.92018e-05
1.12378e-08
2.67862e-07
9.91987e-05
-2.37983e-08
2.67091e-07
9.9183e-05
-5.70699e-08
2.66206e-07
9.91803e-05
-9.19669e-08
2.65226e-07
9.91904e-05
-1.24032e-07
2.63669e-07
9.9188e-05
-2.96014e-07
2.63869e-07
9.97302e-05
2.60705e-07
9.81442e-05
2.61293e-07
1.02017e-07
9.9728e-05
9.27498e-08
1.02391e-07
0.000101232
5.1109e-08
1.01999e-07
0.000100721
1.04652e-08
1.01697e-07
0.000100717
-2.49273e-08
1.01434e-07
0.000100699
-5.85222e-08
1.01103e-07
0.000100693
-9.36176e-08
1.00705e-07
0.0001007
-1.26085e-07
1.00355e-07
0.000100693
-2.99102e-07
1.00288e-07
0.000101237
9.84248e-08
9.96348e-05
2.59874e-07
6.5505e-08
9.92121e-05
9.23417e-08
6.5388e-08
0.000100713
5.09186e-08
6.53138e-08
0.000100204
1.01974e-08
6.51221e-08
0.0001002
-2.52261e-08
6.49693e-08
0.000100183
-5.88447e-08
6.48114e-08
0.000100178
-9.40055e-08
6.46465e-08
0.000100186
-1.26191e-07
6.45191e-08
0.00010018
-2.98828e-07
6.44271e-08
0.000100724
6.34032e-08
9.9124e-05
2.59982e-07
2.92029e-08
9.92103e-05
9.21343e-08
2.90409e-08
0.000100711
5.07179e-08
2.90355e-08
0.000100202
1.00127e-08
2.90123e-08
0.000100198
-2.53924e-08
2.90748e-08
0.000100181
-5.89962e-08
2.92211e-08
0.000100176
-9.41399e-08
2.94439e-08
0.000100183
-1.26285e-07
2.97341e-08
0.000100177
-2.99839e-07
3.00913e-08
0.000100722
2.9822e-08
9.91187e-05
2.59688e-07
-2.72679e-09
9.91966e-05
9.21091e-08
-2.94547e-09
0.000100696
5.07154e-08
-2.82279e-09
0.000100188
1.00678e-08
-2.6537e-09
0.000100184
-2.52561e-08
-2.34067e-09
0.000100166
-5.87797e-08
-1.84895e-09
0.000100161
-9.38761e-08
-1.18854e-09
0.000100169
-1.26034e-07
-4.27408e-10
0.000100163
-2.99723e-07
3.67543e-10
0.000100708
9.8236e-10
9.91045e-05
2.59542e-07
-3.44529e-08
9.91967e-05
9.21846e-08
-3.47154e-08
0.000100696
5.08883e-08
-3.44811e-08
0.000100187
1.03858e-08
-3.41466e-08
0.000100184
-2.47598e-08
-3.3628e-08
0.000100166
-5.81115e-08
-3.28627e-08
0.000100162
-9.30999e-08
-3.1866e-08
0.000100169
-1.25278e-07
-3.07579e-08
0.000100164
-2.98962e-07
-2.96534e-08
0.000100709
-2.83113e-08
9.91073e-05
2.5955e-07
-7.01396e-08
9.92105e-05
9.23438e-08
-7.04047e-08
0.000100709
5.12066e-08
-7.01478e-08
0.000100201
1.0916e-08
-6.97142e-08
0.000100197
-2.39808e-08
-6.91005e-08
0.00010018
-5.70974e-08
-6.82203e-08
0.000100176
-9.19478e-08
-6.70999e-08
0.000100184
-1.24149e-07
-6.58937e-08
0.00010018
-2.97723e-07
-6.46277e-08
0.000100725
-6.29942e-08
9.91262e-05
2.59177e-07
-1.05702e-07
9.92123e-05
9.26472e-08
-1.0638e-07
0.00010071
5.16491e-08
-1.05864e-07
0.000100202
1.15577e-08
-1.05411e-07
0.000100199
-2.30973e-08
-1.04851e-07
0.000100182
-5.59904e-08
-1.04059e-07
0.000100178
-9.07278e-08
-1.03052e-07
0.000100187
-1.22964e-07
-1.0197e-07
0.000100183
-2.95836e-07
-1.01194e-07
0.000100728
-9.92348e-08
9.91341e-05
2.60479e-07
-2.75015e-07
9.97369e-05
9.31806e-08
-2.75955e-07
0.000101238
5.2079e-08
-2.74637e-07
0.000100729
1.22243e-08
-2.74798e-07
0.000100726
-2.22286e-08
-2.74324e-07
0.000100709
-5.49528e-08
-2.73691e-07
0.000100705
-8.95118e-08
-2.72844e-07
0.000100715
-1.22143e-07
-2.71354e-07
0.00010071
-2.95773e-07
-2.71563e-07
0.000101256
-2.69502e-07
9.96613e-05
2.5949e-07
9.82e-05
9.25491e-08
9.96953e-05
5.20397e-08
9.91898e-05
1.24406e-08
9.9186e-05
-2.1639e-08
9.91699e-05
-5.39205e-08
9.91673e-05
-8.82166e-08
9.91782e-05
-1.20365e-07
9.91774e-05
-2.93776e-07
9.97215e-05
9.81357e-05
2.71323e-07
2.81755e-07
9.76518e-05
9.80332e-08
2.82253e-07
9.95978e-05
5.12714e-08
2.80052e-07
9.89654e-05
7.12239e-09
2.79746e-07
9.89598e-05
-3.22895e-08
2.78329e-07
9.89406e-05
-6.95413e-08
2.76739e-07
9.89373e-05
-1.06973e-07
2.74954e-07
9.89493e-05
-1.42265e-07
2.72089e-07
9.89481e-05
-3.20697e-07
2.71687e-07
9.96337e-05
2.65712e-07
9.7556e-05
2.71847e-07
1.10185e-07
9.96249e-05
9.8284e-08
1.10663e-07
0.000101575
5.04594e-08
1.09992e-07
0.000100935
5.83883e-09
1.09432e-07
0.000100928
-3.42525e-08
1.08862e-07
0.000100905
-7.21814e-08
1.08134e-07
0.000100896
-1.09949e-07
1.07233e-07
0.000100902
-1.46037e-07
1.0634e-07
0.000100892
-3.2638e-07
1.05896e-07
0.00010158
1.0242e-07
9.94698e-05
2.69772e-07
6.92422e-08
9.89805e-05
9.75882e-08
6.8994e-08
0.000100924
5.00375e-08
6.87767e-08
0.000100289
5.24463e-09
6.83558e-08
0.000100283
-3.49168e-08
6.79433e-08
0.00010026
-7.29195e-08
6.74729e-08
0.000100253
-1.10835e-07
6.69494e-08
0.000100261
-1.46566e-07
6.64582e-08
0.000100252
-3.26707e-07
6.6048e-08
0.000100941
6.40736e-08
9.88339e-05
2.69902e-07
3.06605e-08
9.89762e-05
9.71968e-08
3.03989e-08
0.000100919
4.96004e-08
3.02718e-08
0.000100285
4.77115e-09
3.00941e-08
0.000100278
-3.54113e-08
3.00177e-08
0.000100256
-7.34295e-08
3.0048e-08
0.000100248
-1.11347e-07
3.021e-08
0.000100255
-1.47047e-07
3.04966e-08
0.000100246
-3.28668e-07
3.09905e-08
0.000100936
3.04378e-08
9.88222e-05
2.6933e-07
-4.12453e-09
9.89594e-05
9.70603e-08
-4.51724e-09
0.000100901
4.94605e-08
-4.41499e-09
0.000100267
4.68128e-09
-4.28976e-09
0.00010026
-3.53978e-08
-3.95759e-09
0.000100237
-7.32818e-08
-3.33754e-09
0.00010023
-1.11099e-07
-2.39242e-09
0.000100236
-1.46766e-07
-1.20847e-09
0.000100227
-3.28487e-07
1.45551e-10
0.000100918
1.37094e-09
9.88037e-05
2.69069e-07
-3.85843e-08
9.89594e-05
9.70813e-08
-3.9083e-08
0.0001009
4.95972e-08
-3.87705e-08
0.000100266
5.0216e-09
-3.8375e-08
0.000100259
-3.4769e-08
-3.76973e-08
0.000100237
-7.23239e-08
-3.66015e-08
0.000100229
-1.09887e-07
-3.50503e-08
0.000100237
-1.45501e-07
-3.31919e-08
0.000100229
-3.27054e-07
-3.12188e-08
0.00010092
-2.86415e-08
9.88088e-05
2.69134e-07
-7.6207e-08
9.89764e-05
9.72421e-08
-7.66373e-08
0.000100916
4.99736e-08
-7.62858e-08
0.000100283
5.72208e-09
-7.57265e-08
0.000100276
-3.36441e-08
-7.48755e-08
0.000100254
-7.07444e-08
-7.35648e-08
0.000100247
-1.07948e-07
-7.17665e-08
0.000100256
-1.43464e-07
-6.96674e-08
0.000100249
-3.2479e-07
-6.74611e-08
0.00010094
-6.43132e-08
9.88356e-05
2.68528e-07
-1.15661e-07
9.89808e-05
9.76122e-08
-1.16707e-07
0.000100918
5.05461e-08
-1.15972e-07
0.000100286
6.61406e-09
-1.15371e-07
0.00010028
-3.23308e-08
-1.14573e-07
0.000100258
-6.89743e-08
-1.13365e-07
0.000100252
-1.0582e-07
-1.117e-07
0.000100261
-1.41342e-07
-1.0989e-07
0.000100256
-3.21305e-07
-1.08192e-07
0.000100946
-1.04687e-07
9.88514e-05
2.70362e-07
-2.89565e-07
9.9638e-05
9.83792e-08
-2.9088e-07
0.000101582
5.1172e-08
-2.89001e-07
0.000100946
7.62109e-09
-2.89277e-07
0.000100941
-3.09906e-08
-2.88477e-07
0.000100919
-6.72877e-08
-2.87456e-07
0.000100913
-1.03826e-07
-2.86157e-07
0.000100923
-1.39573e-07
-2.83564e-07
0.000100917
-3.20475e-07
-2.83303e-07
0.000101609
-2.79755e-07
9.95132e-05
2.68942e-07
9.764e-05
9.7436e-08
9.95744e-05
5.1088e-08
9.89455e-05
7.87783e-09
9.89384e-05
-3.00589e-08
9.89177e-05
-6.56038e-08
9.89136e-05
-1.01522e-07
9.89263e-05
-1.36531e-07
9.8927e-05
-3.17152e-07
9.96161e-05
9.75374e-05
2.76705e-07
2.89468e-07
9.7083e-05
1.00939e-07
2.9001e-07
9.94808e-05
4.9557e-08
2.86996e-07
9.87268e-05
1.74151e-09
2.86333e-07
9.87181e-05
-4.23464e-08
2.83937e-07
9.86974e-05
-8.4161e-08
2.81161e-07
9.86944e-05
-1.24301e-07
2.77935e-07
9.87083e-05
-1.62289e-07
2.72739e-07
9.87101e-05
-3.4538e-07
2.70636e-07
9.95437e-05
2.59046e-07
9.69493e-05
2.77305e-07
1.15938e-07
9.95185e-05
1.01093e-07
1.16446e-07
0.000101922
4.81901e-08
1.15429e-07
0.000101157
-3.85836e-10
1.14487e-07
0.000101146
-4.56891e-08
1.13405e-07
0.000101117
-8.87574e-08
1.11987e-07
0.000101105
-1.29748e-07
1.10191e-07
0.000101107
-1.68999e-07
1.08143e-07
0.000101092
-3.56312e-07
1.06549e-07
0.000101929
9.98578e-08
9.92708e-05
2.7451e-07
7.19581e-08
9.87474e-05
1.00039e-07
7.15059e-08
0.00010114
4.74159e-08
7.10779e-08
0.000100383
-1.49764e-09
7.03095e-08
0.000100373
-4.70005e-08
6.94649e-08
0.000100347
-9.02971e-08
6.84493e-08
0.000100337
-1.31729e-07
6.72722e-08
0.000100342
-1.70723e-07
6.59474e-08
0.000100331
-3.58704e-07
6.48166e-08
0.000101169
6.06582e-08
9.85125e-05
2.74591e-07
3.16237e-08
9.87395e-05
9.93896e-08
3.1208e-08
0.000101132
4.6619e-08
3.09066e-08
0.000100375
-2.44128e-09
3.04895e-08
0.000100364
-4.80667e-08
3.01771e-08
0.000100337
-9.14872e-08
3.0001e-08
0.000100327
-1.33077e-07
3.00231e-08
0.00010033
-1.72091e-07
3.03034e-08
0.000100318
-3.62713e-07
3.10614e-08
0.000101158
3.02221e-08
9.84883e-05
2.73652e-07
-5.73435e-09
9.87206e-05
9.90735e-08
-6.35534e-09
0.00010111
4.62572e-08
-6.29721e-09
0.000100354
-2.7759e-09
-6.24774e-09
0.000100343
-4.82674e-08
-5.89459e-09
0.000100316
-9.14915e-08
-5.07642e-09
0.000100305
-1.32826e-07
-3.63945e-09
0.000100309
-1.71716e-07
-1.59402e-09
0.000100296
-3.62343e-07
1.10468e-09
0.000101137
3.94634e-09
9.84661e-05
2.73234e-07
-4.26273e-08
9.87207e-05
9.90074e-08
-4.34147e-08
0.000101108
4.63292e-08
-4.30205e-08
0.000100353
-2.41014e-09
-4.25469e-08
0.000100342
-4.74271e-08
-4.16288e-08
0.000100315
-9.0023e-08
-4.00022e-08
0.000100304
-1.30733e-07
-3.74815e-08
0.000100309
-1.69177e-07
-3.41489e-08
0.000100297
-3.59166e-07
-3.02713e-08
0.000101139
-2.47841e-08
9.84768e-05
2.73361e-07
-8.15742e-08
9.87398e-05
9.91732e-08
-8.2198e-08
0.000101127
4.67887e-08
-8.17342e-08
0.000100372
-1.45066e-09
-8.10026e-08
0.000100361
-4.57407e-08
-7.97792e-08
0.000100334
-8.74402e-08
-7.77659e-08
0.000100324
-1.27256e-07
-7.48034e-08
0.00010033
-1.6519e-07
-7.10428e-08
0.000100322
-3.54269e-07
-6.66972e-08
0.000101164
-6.07348e-08
9.85154e-05
2.72508e-07
-1.2351e-07
9.87481e-05
9.96145e-08
-1.24884e-07
0.000101132
4.75406e-08
-1.23892e-07
0.000100379
-1.73049e-10
-1.23084e-07
0.000100367
-4.37193e-08
-1.21894e-07
0.000100341
-8.45074e-08
-1.20006e-07
0.000100333
-1.23472e-07
-1.1728e-07
0.000100341
-1.60954e-07
-1.13792e-07
0.000100335
-3.47853e-07
-1.1067e-07
0.000101174
-1.0443e-07
9.85448e-05
2.74934e-07
-2.99314e-07
9.95369e-05
1.00661e-07
-3.01073e-07
0.00010193
4.84462e-08
-2.98628e-07
0.000101171
1.34228e-09
-2.98972e-07
0.000101162
-4.16195e-08
-2.97694e-07
0.000101136
-8.17282e-08
-2.96074e-07
0.000101127
-1.19751e-07
-2.93808e-07
0.000101135
-1.57646e-07
-2.89478e-07
0.000101128
-3.45234e-07
-2.88107e-07
0.00010197
-2.81034e-07
9.93422e-05
2.72982e-07
9.70663e-05
9.93935e-08
9.94455e-05
4.83428e-08
9.86966e-05
1.71918e-09
9.86846e-05
-4.01474e-08
9.86604e-05
-7.88258e-08
9.86548e-05
-1.15998e-07
9.86679e-05
-1.5256e-07
9.86718e-05
-3.38794e-07
9.9512e-05
9.69162e-05
2.77593e-07
2.92595e-07
9.65104e-05
1.01024e-07
2.93051e-07
9.93617e-05
4.60571e-08
2.89067e-07
9.84898e-05
-5.02458e-09
2.87746e-07
9.84782e-05
-5.37553e-08
2.83891e-07
9.84587e-05
-1.00388e-07
2.79218e-07
9.84582e-05
-1.4421e-07
2.73399e-07
9.8475e-05
-1.84821e-07
2.64271e-07
9.84833e-05
-3.74299e-07
2.58465e-07
9.94707e-05
2.35962e-07
9.63365e-05
2.78142e-07
1.18823e-07
9.94117e-05
1.00891e-07
1.19253e-07
0.00010227
4.38193e-08
1.17769e-07
0.000101382
-8.53098e-09
1.16245e-07
0.000101366
-5.93219e-08
1.14326e-07
0.000101334
-1.08311e-07
1.11735e-07
0.000101318
-1.53866e-07
1.08304e-07
0.000101315
-1.97077e-07
1.04003e-07
0.000101293
-3.94963e-07
1.0013e-07
0.000102282
8.63879e-08
9.90222e-05
2.7453e-07
7.29462e-08
9.85163e-05
9.93553e-08
7.21942e-08
0.00010136
4.24938e-08
7.14388e-08
0.000100484
-1.04639e-08
7.01299e-08
0.000100469
-6.17362e-08
6.85659e-08
0.00010044
-1.11375e-07
6.65945e-08
0.000100428
-1.57916e-07
6.41484e-08
0.000100429
-2.01194e-07
6.12859e-08
0.000100414
-4.02847e-07
5.83301e-08
0.000101408
4.97101e-08
9.81434e-05
2.74438e-07
3.1575e-08
9.8504e-05
9.83247e-08
3.09162e-08
0.000101347
4.11372e-08
3.03515e-08
0.000100471
-1.21794e-08
2.95511e-08
0.000100455
-6.38063e-08
2.88238e-08
0.000100425
-1.13865e-07
2.82221e-08
0.000100412
-1.60805e-07
2.79319e-08
0.00010041
-2.04443e-07
2.80291e-08
0.000100392
-4.10964e-07
2.91818e-08
0.000101391
2.79309e-08
9.80963e-05
2.73026e-07
-7.66206e-09
9.84845e-05
9.77222e-08
-8.59211e-09
0.000101323
4.04078e-08
-8.62906e-09
0.000100448
-1.29404e-08
-8.72685e-09
0.000100432
-6.44425e-08
-8.40112e-09
0.000100402
-1.14174e-07
-7.34256e-09
0.000100387
-1.60747e-07
-5.16612e-09
0.000100385
-2.03942e-07
-1.66093e-09
0.000100366
-4.10267e-07
3.48879e-09
0.000101366
1.03608e-08
9.80707e-05
2.72384e-07
-4.62699e-08
9.84847e-05
9.75075e-08
-4.74143e-08
0.00010132
4.03481e-08
-4.69526e-08
0.000100446
-1.25929e-08
-4.641e-08
0.00010043
-6.33298e-08
-4.51876e-08
0.0001004
-1.11956e-07
-4.28076e-08
0.000100385
-1.57145e-07
-3.87713e-08
0.000100385
-1.99178e-07
-3.29632e-08
0.000100368
-4.02911e-07
-2.5536e-08
0.000101369
-1.40981e-08
9.80957e-05
2.72549e-07
-8.57817e-08
9.85046e-05
9.76634e-08
-8.66401e-08
0.000101338
4.0894e-08
-8.60498e-08
0.000100465
-1.12974e-08
-8.51151e-08
0.000100449
-6.08422e-08
-8.34002e-08
0.000100419
-1.0782e-07
-8.03842e-08
0.000100406
-1.5117e-07
-7.55945e-08
0.000100408
-1.91797e-07
-6.89663e-08
0.000100396
-3.92538e-07
-6.10143e-08
0.000101397
-4.88509e-08
9.81552e-05
2.71451e-07
-1.28892e-07
9.85179e-05
9.81721e-08
-1.30663e-07
0.000101347
4.18602e-08
-1.2941e-07
0.000100476
-9.5107e-09
-1.28363e-07
0.00010046
-5.77931e-08
-1.26649e-07
0.000100431
-1.0307e-07
-1.23771e-07
0.000100419
-1.44493e-07
-1.1925e-07
0.000100423
-1.83892e-07
-1.13375e-07
0.000100416
-3.79898e-07
-1.06615e-07
0.000101413
-9.45071e-08
9.8208e-05
2.7443e-07
-3.04914e-07
9.94366e-05
9.95171e-08
-3.07066e-07
0.00010228
4.31162e-08
-3.04031e-07
0.0001014
-7.3335e-09
-3.04375e-07
0.000101386
-5.45929e-08
-3.02462e-07
0.000101357
-9.84381e-08
-2.99842e-07
0.000101345
-1.38243e-07
-2.96065e-07
0.00010135
-1.76869e-07
-2.88619e-07
0.00010134
-3.72062e-07
-2.83711e-07
0.00010234
-2.69242e-07
9.91416e-05
2.71951e-07
9.64883e-05
9.79182e-08
9.93113e-05
4.29917e-08
9.84463e-05
-6.73821e-09
9.84288e-05
-5.22038e-08
9.84023e-05
-9.38177e-08
9.83953e-05
-1.3148e-07
9.84082e-05
-1.67628e-07
9.84179e-05
-3.5898e-07
9.94167e-05
9.62862e-05
2.75856e-07
2.92752e-07
9.59398e-05
9.95866e-08
2.92991e-07
9.92428e-05
4.15793e-08
2.87873e-07
9.82575e-05
-1.24478e-08
2.85487e-07
9.82438e-05
-6.54988e-08
2.79527e-07
9.82288e-05
-1.17512e-07
2.71848e-07
9.82344e-05
-1.6662e-07
2.61714e-07
9.82581e-05
-2.13721e-07
2.46033e-07
9.82795e-05
-4.12973e-07
2.32626e-07
9.94326e-05
1.87872e-07
9.57314e-05
2.76213e-07
1.19747e-07
9.93065e-05
9.88948e-08
1.1995e-07
0.000102618
3.80169e-08
1.17833e-07
0.000101611
-1.81282e-08
1.15427e-07
0.00010159
-7.46594e-08
1.12168e-07
0.000101555
-1.30839e-07
1.07589e-07
0.000101534
-1.83868e-07
1.01258e-07
0.000101524
-2.36057e-07
9.26753e-08
0.000101494
-4.55293e-07
8.16281e-08
0.000102646
4.90539e-08
9.87022e-05
2.71698e-07
7.23868e-08
9.82899e-05
9.67126e-08
7.11993e-08
0.000101582
3.58533e-08
6.99366e-08
0.00010059
-2.13467e-08
6.77815e-08
0.000100571
-7.89469e-08
6.50181e-08
0.000100542
-1.3665e-07
6.13545e-08
0.000100528
-1.9204e-07
5.65757e-08
0.000100525
-2.46971e-07
5.0132e-08
0.000100506
-4.79797e-07
4.19362e-08
0.000101676
1.95646e-08
9.76892e-05
2.71259e-07
3.03705e-08
9.82728e-05
9.51065e-08
2.93359e-08
0.000101563
3.36181e-08
2.83549e-08
0.000100571
-2.43361e-08
2.69201e-08
0.000100551
-8.27865e-08
2.54344e-08
0.00010052
-1.4158e-07
2.39981e-08
0.000100504
-1.98512e-07
2.28811e-08
0.000100497
-2.55562e-07
2.23514e-08
0.000100472
-5.00268e-07
2.4004e-08
0.000101648
2.37483e-08
9.75879e-05
2.6924e-07
-1.00013e-08
9.82537e-05
9.40454e-08
-1.13575e-08
0.000101537
3.2268e-08
-1.15989e-08
0.000100547
-2.58748e-08
-1.20077e-08
0.000100526
-8.42588e-08
-1.18647e-08
0.000100494
-1.42711e-07
-1.06131e-08
0.000100477
-1.99049e-07
-7.42678e-09
0.000100468
-2.55044e-07
-1.34136e-09
0.000100442
-4.97437e-07
9.73064e-09
0.000101618
2.91237e-08
9.75643e-05
2.68269e-07
-4.95469e-08
9.82542e-05
9.35613e-08
-5.11458e-08
0.000101532
3.19189e-08
-5.06817e-08
0.000100545
-2.56927e-08
-5.01521e-08
0.000100523
-8.29137e-08
-4.86326e-08
0.000100491
-1.39399e-07
-4.52802e-08
0.000100474
-1.92873e-07
-3.9003e-08
0.000100467
-2.45094e-07
-2.88266e-08
0.000100445
-4.76956e-07
-1.35656e-08
0.00010162
1.26256e-08
9.76318e-05
2.68404e-07
-8.90897e-08
9.82741e-05
9.36406e-08
-9.02647e-08
0.000101551
3.24845e-08
-8.95733e-08
0.000100564
-2.40555e-08
-8.84513e-08
0.000100542
-7.93741e-08
-8.61496e-08
0.00010051
-1.32895e-07
-8.17705e-08
0.000100494
-1.82453e-07
-7.42556e-08
0.00010049
-2.30083e-07
-6.29323e-08
0.000100475
-4.50901e-07
-4.7112e-08
0.000101648
-2.13397e-08
9.77348e-05
2.67035e-07
-1.32885e-07
9.82931e-05
9.41778e-08
-1.35014e-07
0.000101563
3.36545e-08
-1.33483e-07
0.000100579
-2.16573e-08
-1.32159e-07
0.000100557
-7.49229e-08
-1.29754e-07
0.000100526
-1.25357e-07
-1.25453e-07
0.000100512
-1.7103e-07
-1.18408e-07
0.000100511
-2.14462e-07
-1.0772e-07
0.000100502
-4.24563e-07
-9.43953e-08
0.000101667
-6.92074e-08
9.78281e-05
2.70581e-07
-3.07871e-07
9.93396e-05
9.58492e-08
-3.10502e-07
0.000102628
3.53337e-08
-3.06929e-07
0.000101633
-1.86223e-08
-3.07201e-07
0.000101614
-7.01431e-08
-3.04467e-07
0.000101582
-1.18057e-07
-3.00486e-07
0.000101567
-1.59936e-07
-2.9398e-07
0.000101566
-2.00829e-07
-2.81303e-07
0.000101551
-4.04742e-07
-2.68946e-07
0.000102714
-2.36397e-07
9.89016e-05
2.67443e-07
9.5912e-05
9.38896e-08
9.91734e-05
3.51898e-08
9.81972e-05
-1.76621e-08
9.81737e-05
-6.64696e-08
9.81458e-05
-1.10377e-07
9.81379e-05
-1.48302e-07
9.8151e-05
-1.83562e-07
9.81698e-05
-3.75026e-07
9.93373e-05
9.56745e-05
2.73149e-07
2.91278e-07
9.53735e-05
9.80457e-08
2.91111e-07
9.91247e-05
3.75577e-08
2.84655e-07
9.80309e-05
-1.89271e-08
2.80694e-07
9.80167e-05
-7.58655e-08
2.71788e-07
9.80104e-05
-1.33586e-07
2.59701e-07
9.80282e-05
-1.91671e-07
2.42926e-07
9.80685e-05
-2.53918e-07
2.17187e-07
9.81189e-05
-4.80747e-07
1.91943e-07
9.94615e-05
1.09388e-07
9.51363e-05
2.73096e-07
1.19622e-07
9.92031e-05
9.64225e-08
1.19403e-07
0.000102965
3.20405e-08
1.16443e-07
0.000101841
-2.79203e-08
1.12744e-07
0.000101815
-9.05193e-08
1.07441e-07
0.000101778
-1.55598e-07
9.97139e-08
0.000101755
-2.2136e-07
8.84824e-08
0.000101739
-2.93855e-07
7.17522e-08
0.000101706
-5.58656e-07
4.83396e-08
0.000103049
-2.68219e-08
9.82737e-05
2.67578e-07
7.08574e-08
9.80692e-05
9.33882e-08
6.90623e-08
0.000101804
2.86601e-08
6.70591e-08
0.000100702
-3.30694e-08
6.36371e-08
0.000100679
-9.77865e-08
5.89936e-08
0.000100651
-1.66109e-07
5.25363e-08
0.000100639
-2.36946e-07
4.35394e-08
0.000100636
-3.15427e-07
3.03343e-08
0.00010062
-6.2212e-07
1.1632e-08
0.000102012
-4.07663e-08
9.70733e-05
2.66583e-07
2.82616e-08
9.80469e-05
9.09464e-08
2.66819e-08
0.000101779
2.51045e-08
2.50789e-08
0.000100677
-3.80509e-08
2.26598e-08
0.000100652
-1.04565e-07
1.99179e-08
0.000100622
-1.75414e-07
1.69897e-08
0.000100606
-2.49886e-07
1.43139e-08
0.000100596
-3.35069e-07
1.22565e-08
0.000100569
-6.74016e-07
1.41638e-08
0.000101977
1.454e-08
9.68514e-05
2.63799e-07
-1.28188e-08
9.80292e-05
8.91981e-08
-1.47445e-08
0.000101751
2.27811e-08
-1.53486e-08
0.000100652
-4.08678e-08
-1.63116e-08
0.000100626
-1.07507e-07
-1.66128e-08
0.000100594
-1.7802e-07
-1.52986e-08
0.000100576
-2.51811e-07
-1.06422e-08
0.000100562
-3.36442e-07
-6.91383e-11
0.000100533
-6.68175e-07
2.29679e-08
0.000101934
7.51674e-08
9.68285e-05
2.62369e-07
-5.28387e-08
9.80301e-05
8.82753e-08
-5.5004e-08
0.000101745
2.19107e-08