/*--------------------------------*- C++ -*----------------------------------*\
  =========                 |
  \\      /  F ield         | OpenFOAM: The Open Source CFD Toolbox
   \\    /   O peration     | Website:  https://openfoam.org
    \\  /    A nd           | Version:  6
     \\/     M anipulation  |
\*---------------------------------------------------------------------------*/
FoamFile
{
    version     2.0;
    format      ascii;
    class       volScalarField;
    location    "0.05";
    object      p;
}
// * * * * * * * * * * * * * * * * * * * * * * * * * * * * * * * * * * * * * //

dimensions      [0 2 -2 0 0 0 0];

internalField   nonuniform List<scalar> 
7000
(
-1.92668e-05
0.0842823
0.180302
0.238356
0.259686
0.265874
0.289902
0.36018
0.482484
0.585394
-0.0770112
0.0503514
0.17808
0.236927
0.255609
0.261139
0.283751
0.359216
0.525687
0.693233
-0.186204
-0.00188596
0.157747
0.227556
0.252969
0.26483
0.297234
0.391135
0.604767
0.849754
-0.287226
-0.0624274
0.127405
0.214917
0.252197
0.274753
0.322786
0.442296
0.698911
0.998483
-0.344867
-0.098213
0.109408
0.207485
0.252118
0.281849
0.339559
0.47434
0.755795
1.08433
-0.344866
-0.0982122
0.109409
0.207485
0.252119
0.281849
0.339559
0.47434
0.755796
1.08433
-0.287225
-0.0624242
0.127408
0.21492
0.252199
0.274755
0.322788
0.442298
0.698913
0.998484
-0.186201
-0.00188317
0.157751
0.227559
0.252972
0.264833
0.297237
0.391136
0.604766
0.849755
-0.0770149
0.0503574
0.178089
0.236936
0.255619
0.26115
0.28376
0.359223
0.525702
0.693234
-5.30333e-05
0.0842829
0.180307
0.238362
0.259692
0.265881
0.289909
0.360185
0.482493
0.585391
-22.576
-22.3095
-22.0136
-21.8402
-21.7889
-21.7905
-21.7378
-21.5344
-21.1563
-20.8291
-22.8251
-22.4069
-22.0281
-21.8438
-21.7988
-21.8073
-21.7563
-21.5264
-21.0197
-20.4611
-23.1753
-22.5808
-22.0973
-21.8722
-21.8057
-21.795
-21.7118
-21.4149
-20.7487
-19.9397
-23.4969
-22.7708
-22.1911
-21.9118
-21.808
-21.7616
-21.6282
-21.2497
-20.4417
-19.4503
-23.6807
-22.8843
-22.2493
-21.9367
-21.8085
-21.7378
-21.572
-21.144
-20.2557
-19.1685
-23.6807
-22.8843
-22.2493
-21.9367
-21.8085
-21.7378
-21.572
-21.144
-20.2557
-19.1685
-23.4969
-22.7708
-22.1911
-21.9118
-21.808
-21.7616
-21.6282
-21.2497
-20.4417
-19.4503
-23.1753
-22.5808
-22.0973
-21.8722
-21.8057
-21.795
-21.7118
-21.4149
-20.7487
-19.9397
-22.8251
-22.4069
-22.0281
-21.8438
-21.7988
-21.8073
-21.7563
-21.5264
-21.0197
-20.4611
-22.5761
-22.3095
-22.0136
-21.8402
-21.7889
-21.7905
-21.7378
-21.5344
-21.1563
-20.8291
-44.9894
-44.5041
-44.0033
-43.7704
-43.7975
-43.9473
-44.0059
-43.7627
-43.1248
-42.526
-45.474
-44.6893
-44.0355
-43.7768
-43.8121
-43.9738
-44.0304
-43.7255
-42.8267
-41.7387
-46.1347
-45.0179
-44.1652
-43.8273
-43.8214
-43.9457
-43.9383
-43.4978
-42.2747
-40.6834
-46.7329
-45.3678
-44.3355
-43.8983
-43.8235
-43.8799
-43.7766
-43.1785
-41.6737
-39.7181
-47.0729
-45.5762
-44.4418
-43.9435
-43.8234
-43.834
-43.669
-42.9756
-41.3134
-39.1683
-47.0729
-45.5762
-44.4418
-43.9435
-43.8234
-43.834
-43.669
-42.9756
-41.3134
-39.1683
-46.7329
-45.3678
-44.3355
-43.8983
-43.8235
-43.8799
-43.7766
-43.1785
-41.6737
-39.7181
-46.1347
-45.0179
-44.1652
-43.8273
-43.8214
-43.9457
-43.9383
-43.4978
-42.2747
-40.6834
-45.474
-44.6893
-44.0355
-43.7768
-43.8121
-43.9738
-44.0304
-43.7255
-42.8267
-41.7387
-44.9894
-44.5041
-44.0033
-43.7704
-43.7975
-43.9472
-44.0059
-43.7627
-43.1248
-42.526
-67.0381
-66.2768
-65.5742
-65.396
-65.7146
-66.2947
-66.7612
-66.7025
-65.8445
-64.9219
-67.8663
-66.591
-65.6333
-65.4052
-65.7306
-66.3235
-66.7746
-66.5906
-65.2416
-63.3889
-68.9539
-67.1292
-65.8421
-65.4825
-65.7381
-66.2654
-66.6034
-66.1772
-64.2374
-61.4758
-69.9208
-67.6887
-66.1101
-65.5918
-65.7367
-66.1523
-66.3298
-65.6338
-63.1947
-59.7861
-70.466
-68.0199
-66.2772
-65.6617
-65.7344
-66.0758
-66.1513
-65.2941
-62.5799
-58.8388
-70.466
-68.0199
-66.2772
-65.6617
-65.7344
-66.0758
-66.1513
-65.2941
-62.5799
-58.8388
-69.9208
-67.6887
-66.1101
-65.5918
-65.7367
-66.1523
-66.3298
-65.6338
-63.1947
-59.7861
-68.9539
-67.1292
-65.8421
-65.4825
-65.7381
-66.2654
-66.6034
-66.1772
-64.2374
-61.4758
-67.8663
-66.591
-65.6333
-65.4053
-65.7306
-66.3235
-66.7746
-66.5906
-65.2416
-63.389
-67.0381
-66.2768
-65.5742
-65.396
-65.7146
-66.2947
-66.7612
-66.7026
-65.8445
-64.9219
-88.3636
-87.2563
-86.381
-86.4605
-87.4376
-88.9482
-90.386
-91.0009
-90.117
-88.8895
-89.6876
-87.7572
-86.4791
-86.471
-87.446
-88.9607
-90.3499
-90.722
-88.9363
-86.0077
-91.3607
-88.5788
-86.7916
-86.5798
-87.4439
-88.849
-90.048
-90.0093
-87.1916
-82.6915
-92.8194
-89.4136
-87.1846
-86.7365
-87.435
-88.6689
-89.6162
-89.1419
-85.4803
-79.8871
-93.6352
-89.9043
-87.4289
-86.8374
-87.4292
-88.5517
-89.342
-88.6119
-84.4936
-78.3462
-93.6352
-89.9043
-87.4289
-86.8374
-87.4292
-88.5517
-89.342
-88.6119
-84.4936
-78.3462
-92.8194
-89.4136
-87.1846
-86.7365
-87.435
-88.6689
-89.6162
-89.1419
-85.4803
-79.8871
-91.3607
-88.5788
-86.7916
-86.5798
-87.4439
-88.849
-90.048
-90.0093
-87.1917
-82.6915
-89.6876
-87.7572
-86.4791
-86.471
-87.446
-88.9608
-90.3499
-90.722
-88.9363
-86.0077
-88.3636
-87.2563
-86.381
-86.4605
-87.4376
-88.9482
-90.386
-91.0009
-90.117
-88.8895
-108.366
-106.845
-105.877
-106.542
-108.76
-112.028
-115.451
-117.755
-117.482
-116.303
-110.374
-107.603
-106.028
-106.549
-108.742
-111.987
-115.291
-117.141
-115.248
-111.061
-112.819
-108.794
-106.471
-106.693
-108.718
-111.789
-114.787
-115.97
-112.336
-105.536
-114.911
-109.978
-107.02
-106.908
-108.7
-111.523
-114.15
-114.665
-109.664
-101.098
-116.071
-110.669
-107.36
-107.048
-108.691
-111.358
-113.759
-113.891
-108.165
-98.719
-116.071
-110.669
-107.36
-107.048
-108.691
-111.358
-113.759
-113.891
-108.165
-98.719
-114.911
-109.978
-107.02
-106.908
-108.7
-111.523
-114.15
-114.665
-109.664
-101.098
-112.819
-108.794
-106.471
-106.693
-108.718
-111.789
-114.787
-115.97
-112.336
-105.536
-110.374
-107.603
-106.028
-106.549
-108.742
-111.987
-115.291
-117.141
-115.248
-111.061
-108.366
-106.845
-105.877
-106.542
-108.76
-112.028
-115.451
-117.755
-117.482
-116.303
-126.115
-124.137
-123.233
-124.961
-129.267
-135.573
-142.703
-148.691
-150.761
-151.136
-129.004
-125.226
-123.45
-124.954
-129.195
-135.418
-142.301
-147.467
-146.699
-142.027
-132.407
-126.869
-124.05
-125.139
-129.137
-135.101
-141.526
-145.671
-142.111
-133.412
-135.265
-128.472
-124.783
-125.425
-129.116
-134.752
-140.673
-143.867
-138.219
-126.892
-136.838
-129.4
-125.236
-125.614
-129.113
-134.547
-140.172
-142.836
-136.107
-123.491
-136.838
-129.4
-125.236
-125.614
-129.113
-134.547
-140.172
-142.836
-136.107
-123.491
-135.265
-128.472
-124.783
-125.425
-129.116
-134.752
-140.673
-143.867
-138.219
-126.892
-132.407
-126.869
-124.05
-125.139
-129.137
-135.101
-141.526
-145.671
-142.112
-133.412
-129.004
-125.226
-123.45
-124.954
-129.195
-135.418
-142.301
-147.467
-146.699
-142.027
-126.115
-124.137
-123.233
-124.961
-129.267
-135.573
-142.703
-148.691
-150.761
-151.136
-140.27
-137.849
-137.252
-140.648
-148.137
-159.257
-172.748
-185.932
-194.074
-199.111
-144.197
-139.326
-137.542
-140.616
-147.974
-158.912
-171.939
-183.673
-186.681
-182.553
-148.686
-141.477
-138.316
-140.844
-147.88
-158.46
-170.849
-181.083
-179.726
-169.407
-152.396
-143.54
-139.253
-141.22
-147.882
-158.074
-169.853
-178.847
-174.476
-160.371
-154.421
-144.726
-139.829
-141.47
-147.905
-157.869
-169.307
-177.641
-171.765
-155.845
-154.421
-144.726
-139.829
-141.47
-147.905
-157.869
-169.307
-177.641
-171.765
-155.845
-152.396
-143.54
-139.253
-141.22
-147.882
-158.074
-169.853
-178.847
-174.476
-160.371
-148.686
-141.477
-138.316
-140.844
-147.88
-158.46
-170.849
-181.084
-179.726
-169.407
-144.197
-139.326
-137.542
-140.616
-147.974
-158.912
-171.939
-183.673
-186.681
-182.553
-140.27
-137.849
-137.252
-140.648
-148.137
-159.257
-172.748
-185.932
-194.074
-199.111
-149.071
-146.304
-146.312
-151.997
-163.844
-181.926
-205.484
-231.909
-254.344
-264.046
-154.074
-148.182
-146.678
-151.931
-163.561
-181.308
-204.089
-228.206
-241.202
-226.641
-159.648
-150.837
-147.625
-152.212
-163.447
-180.737
-202.656
-224.656
-230.861
-202.047
-164.187
-153.345
-148.765
-152.697
-163.526
-180.425
-201.715
-222.32
-224.572
-188.173
-166.649
-154.778
-149.465
-153.022
-163.616
-180.303
-201.282
-221.224
-221.657
-181.832
-166.649
-154.778
-149.465
-153.022
-163.616
-180.303
-201.282
-221.224
-221.657
-181.832
-164.187
-153.345
-148.765
-152.697
-163.526
-180.425
-201.715
-222.32
-224.572
-188.173
-159.648
-150.837
-147.625
-152.211
-163.447
-180.737
-202.656
-224.656
-230.861
-202.047
-154.074
-148.182
-146.678
-151.931
-163.561
-181.308
-204.089
-228.205
-241.201
-226.641
-149.071
-146.304
-146.312
-151.997
-163.844
-181.926
-205.484
-231.909
-254.344
-264.046
-150.457
-147.54
-148.419
-156.792
-173.926
-201.331
-240.714
-294.081
-361.814
-408.669
-156.369
-149.759
-148.861
-156.73
-173.625
-200.711
-239.511
-291.611
-352.03
-359.118
-162.813
-152.822
-149.969
-157.117
-173.661
-200.463
-238.869
-290.342
-348.165
-335.532
-167.996
-155.676
-151.285
-157.752
-173.973
-200.632
-239.011
-290.681
-348.632
-328.287
-170.793
-157.3
-152.091
-158.174
-174.216
-200.824
-239.268
-291.208
-349.616
-326.403
-170.793
-157.3
-152.091
-158.174
-174.216
-200.824
-239.268
-291.208
-349.616
-326.403
-167.996
-155.676
-151.285
-157.752
-173.973
-200.632
-239.011
-290.681
-348.632
-328.287
-162.813
-152.822
-149.969
-157.117
-173.661
-200.463
-238.869
-290.342
-348.165
-335.532
-156.368
-149.759
-148.861
-156.73
-173.625
-200.71
-239.51
-291.611
-352.03
-359.118
-150.457
-147.54
-148.419
-156.792
-173.926
-201.331
-240.714
-294.081
-361.814
-408.669
-142.4
-139.565
-141.292
-151.887
-173.595
-210.123
-267.896
-358.442
-502.488
-740.09
-148.769
-141.965
-141.803
-151.908
-173.52
-210.197
-268.703
-361.733
-514.598
-781.341
-155.603
-145.217
-143.024
-152.471
-173.977
-211.069
-271.046
-368.344
-533.157
-826.035
-161.047
-148.215
-144.441
-153.269
-174.665
-212.18
-273.564
-374.607
-549.054
-862.108
-163.972
-149.913
-145.304
-153.785
-175.12
-212.89
-275.087
-378.199
-557.787
-881.539
-163.972
-149.913
-145.304
-153.785
-175.12
-212.89
-275.087
-378.199
-557.787
-881.539
-161.047
-148.215
-144.441
-153.269
-174.665
-212.18
-273.564
-374.607
-549.054
-862.108
-155.603
-145.217
-143.024
-152.471
-173.977
-211.069
-271.046
-368.344
-533.157
-826.035
-148.769
-141.965
-141.803
-151.909
-173.52
-210.197
-268.703
-361.733
-514.598
-781.341
-142.4
-139.565
-141.292
-151.887
-173.595
-210.123
-267.896
-358.442
-502.488
-740.089
-123.539
-120.948
-122.91
-133.576
-155.137
-191.089
-246.875
-330.532
-452.967
-629.817
-129.649
-123.247
-123.386
-133.55
-154.932
-190.806
-246.67
-330.918
-456.408
-643.712
-136.143
-126.324
-124.524
-134.036
-155.228
-191.234
-247.728
-333.656
-463.386
-659.864
-141.285
-129.145
-125.85
-134.77
-155.819
-192.09
-249.472
-337.483
-471.79
-677.219
-144.04
-130.739
-126.657
-135.25
-156.229
-192.682
-250.633
-339.921
-476.937
-687.537
-144.04
-130.739
-126.657
-135.25
-156.229
-192.682
-250.633
-339.921
-476.937
-687.537
-141.285
-129.145
-125.85
-134.77
-155.819
-192.09
-249.472
-337.483
-471.789
-677.219
-136.143
-126.324
-124.524
-134.036
-155.228
-191.234
-247.728
-333.656
-463.386
-659.864
-129.649
-123.247
-123.386
-133.55
-154.932
-190.806
-246.67
-330.918
-456.408
-643.711
-123.539
-120.948
-122.91
-133.576
-155.137
-191.089
-246.875
-330.531
-452.967
-629.817
-94.073
-91.9603
-93.6584
-102.563
-120.377
-149.7
-194.231
-258.685
-347.886
-465.592
-99.1438
-93.8667
-94.0468
-102.523
-120.156
-149.339
-193.764
-258.264
-348.195
-468.026
-104.505
-96.4001
-94.9728
-102.895
-120.329
-149.517
-194.203
-259.435
-350.993
-473.795
-108.737
-98.7153
-96.0529
-103.479
-120.766
-150.089
-195.293
-261.676
-355.442
-481.898
-111.001
-100.021
-96.7106
-103.864
-121.078
-150.507
-196.061
-263.189
-358.338
-487.031
-111.001
-100.021
-96.7106
-103.864
-121.078
-150.507
-196.061
-263.189
-358.338
-487.031
-108.737
-98.7153
-96.0529
-103.479
-120.766
-150.089
-195.293
-261.676
-355.442
-481.898
-104.505
-96.4002
-94.9728
-102.895
-120.329
-149.517
-194.203
-259.435
-350.993
-473.796
-99.1438
-93.8667
-94.0468
-102.523
-120.156
-149.34
-193.764
-258.264
-348.195
-468.026
-94.073
-91.9603
-93.6584
-102.563
-120.377
-149.7
-194.231
-258.685
-347.886
-465.592
-55.7554
-54.3632
-55.4791
-61.3113
-72.9077
-91.8175
-120.111
-160.163
-213.88
-281.43
-59.1048
-55.6244
-55.7333
-61.2794
-72.7468
-91.5414
-119.714
-159.685
-213.537
-281.588
-62.64
-57.2919
-56.3392
-61.5147
-72.8339
-91.5938
-119.856
-160.141
-214.708
-284
-65.4268
-58.815
-57.047
-61.8904
-73.097
-91.9088
-120.426
-161.285
-216.913
-287.83
-66.9168
-59.6735
-57.4774
-62.138
-73.2881
-92.1478
-120.845
-162.085
-218.39
-290.315
-66.9168
-59.6735
-57.4774
-62.138
-73.2882
-92.1478
-120.845
-162.085
-218.39
-290.315
-65.4268
-58.815
-57.047
-61.8904
-73.097
-91.9088
-120.426
-161.285
-216.913
-287.83
-62.64
-57.2919
-56.3392
-61.5147
-72.8339
-91.5939
-119.856
-160.141
-214.708
-284
-59.1049
-55.6244
-55.7333
-61.2794
-72.7468
-91.5415
-119.714
-159.685
-213.538
-281.588
-55.7554
-54.3632
-55.4791
-61.3113
-72.9078
-91.8176
-120.111
-160.163
-213.88
-281.431
-11.5951
-11.1049
-11.479
-13.4815
-17.4612
-23.9279
-33.54
-47.0076
-64.8112
-86.7159
-12.7677
-11.551
-11.5675
-13.4716
-17.4041
-23.8249
-33.3849
-46.8062
-64.6209
-86.6441
-14.0082
-12.1357
-11.7812
-13.5553
-17.4303
-23.8281
-33.4002
-46.8961
-64.9036
-87.277
-14.988
-12.673
-12.0325
-13.6877
-17.5171
-23.9216
-33.5613
-47.219
-65.5317
-88.3693
-15.5122
-12.9757
-12.1845
-13.7742
-17.5808
-23.9951
-33.6848
-47.4526
-65.9626
-89.0897
-15.5122
-12.9757
-12.1845
-13.7742
-17.5808
-23.9951
-33.6848
-47.4526
-65.9626
-89.0897
-14.988
-12.673
-12.0325
-13.6877
-17.5172
-23.9216
-33.5613
-47.219
-65.5317
-88.3693
-14.0082
-12.1357
-11.7812
-13.5553
-17.4303
-23.8281
-33.4002
-46.8961
-64.9037
-87.2771
-12.7677
-11.551
-11.5675
-13.4716
-17.4041
-23.8249
-33.3849
-46.8062
-64.6211
-86.6442
-11.5951
-11.1049
-11.479
-13.4816
-17.4612
-23.9279
-33.54
-47.0076
-64.8112
-86.7159
34.6014
34.1223
34.5343
36.6018
40.6798
47.2746
57.0378
70.6691
88.6327
110.679
35.7656
34.5511
34.6231
36.586
40.6194
47.1772
56.8967
70.4924
88.4768
110.644
36.9856
35.1265
34.8276
36.6592
40.645
47.1948
56.9443
70.6353
88.8289
111.351
37.9418
35.644
35.0627
36.782
40.7332
47.3048
57.1418
71.0163
89.5314
112.523
38.4519
35.9357
35.2073
36.8644
40.798
47.3884
57.2875
71.2851
90.0071
113.291
38.4519
35.9357
35.2073
36.8644
40.798
47.3884
57.2875
71.2851
90.0071
113.291
37.9418
35.644
35.0627
36.782
40.7332
47.3048
57.1417
71.0162
89.5313
112.523
36.9856
35.1265
34.8276
36.6592
40.645
47.1948
56.9443
70.6353
88.8288
111.351
35.7656
34.5511
34.6231
36.586
40.6194
47.1772
56.8966
70.4923
88.4768
110.644
34.6014
34.1223
34.5343
36.6018
40.6798
47.2746
57.0378
70.669
88.6326
110.679
78.7575
77.3747
78.5239
84.413
96.096
115.118
143.545
183.745
237.612
305.31
82.1008
78.62
78.7797
84.3766
95.9329
114.849
143.162
183.291
237.304
305.505
85.6194
80.2812
79.3789
84.6036
96.0207
114.915
143.334
183.795
238.538
307.986
88.3866
81.7875
80.0729
84.9718
96.286
115.245
143.936
184.99
240.809
311.888
89.8649
82.6368
80.4975
85.2163
96.4787
115.493
144.375
185.821
242.325
314.415
89.8649
82.6368
80.4975
85.2163
96.4787
115.493
144.375
185.821
242.325
314.415
88.3866
81.7875
80.0729
84.9718
96.2861
115.245
143.936
184.99
240.809
311.888
85.6194
80.2812
79.3789
84.6036
96.0207
114.915
143.334
183.795
238.538
307.986
82.1008
78.62
78.7797
84.3766
95.9329
114.849
143.162
183.291
237.304
305.505
78.7575
77.3747
78.5239
84.413
96.096
115.118
143.545
183.745
237.612
305.31
117.066
114.959
116.682
125.628
143.506
172.911
217.541
282.109
371.438
489.299
122.134
116.852
117.074
125.586
143.285
172.558
217.086
281.708
371.774
491.759
127.486
119.384
117.998
125.953
143.46
172.747
217.547
282.914
374.617
497.578
131.705
121.688
119.069
126.534
143.9
173.331
218.659
285.19
379.11
505.732
133.962
122.988
119.723
126.917
144.214
173.755
219.441
286.723
382.031
510.896
133.962
122.988
119.723
126.917
144.214
173.755
219.441
286.723
382.031
510.896
131.705
121.688
119.069
126.534
143.9
173.331
218.659
285.19
379.11
505.732
127.486
119.384
117.998
125.953
143.46
172.747
217.547
282.914
374.617
497.578
122.134
116.852
117.074
125.586
143.285
172.558
217.086
281.708
371.774
491.759
117.066
114.959
116.682
125.628
143.506
172.911
217.541
282.109
371.438
489.299
146.514
143.926
145.902
156.588
178.182
214.174
270.006
353.72
476.233
653.237
152.627
146.214
146.384
156.563
177.978
213.896
269.808
354.113
479.671
667.131
159.12
149.297
147.525
157.048
178.277
214.331
270.872
356.854
486.639
683.267
164.258
152.112
148.846
157.781
178.871
215.19
272.619
360.68
495.032
700.61
167.011
153.705
149.654
158.262
179.282
215.785
273.781
363.117
500.172
710.922
167.011
153.705
149.654
158.262
179.282
215.785
273.781
363.117
500.172
710.922
164.258
152.112
148.846
157.781
178.871
215.19
272.619
360.68
495.032
700.61
159.12
149.297
147.525
157.048
178.277
214.331
270.872
356.854
486.639
683.267
152.627
146.214
146.384
156.563
177.978
213.896
269.808
354.113
479.671
667.131
146.514
143.926
145.902
156.588
178.182
214.174
270.006
353.72
476.233
653.237
165.35
162.514
164.242
174.837
196.543
233.065
290.825
381.359
525.406
763.114
171.725
164.905
164.762
174.86
196.469
233.142
291.628
384.626
537.444
804.254
178.566
168.168
165.99
175.425
196.929
234.013
293.956
391.194
555.903
848.793
184.015
171.167
167.409
176.226
197.618
235.118
296.454
397.411
571.711
884.739
186.943
172.867
168.275
176.744
198.074
235.823
297.963
400.975
580.39
904.1
186.943
172.867
168.275
176.744
198.074
235.823
297.963
400.975
580.39
904.1
184.015
171.167
167.409
176.226
197.618
235.118
296.454
397.411
571.711
884.739
178.566
168.168
165.99
175.425
196.929
234.013
293.956
391.194
555.903
848.793
171.725
164.905
164.762
174.86
196.469
233.142
291.628
384.626
537.444
804.254
165.35
162.514
164.242
174.837
196.543
233.065
290.825
381.359
525.406
763.114
-1293.58
-1398.99
-1418.5
-1431.56
-1435.66
-1435.66
-1431.56
-1418.5
-1398.99
-1293.58
-1465.39
-1491.84
-1463.4
-1461.58
-1460.25
-1460.25
-1461.58
-1463.4
-1491.84
-1465.39
-1608.1
-1569.34
-1501.33
-1485.56
-1478.35
-1478.35
-1485.56
-1501.33
-1569.33
-1608.1
-1705.37
-1626.82
-1532.23
-1505.64
-1493.66
-1493.66
-1505.64
-1532.23
-1626.82
-1705.37
-1754.7
-1657.32
-1549.47
-1517.16
-1502.6
-1502.6
-1517.16
-1549.47
-1657.32
-1754.7
-1754.7
-1657.32
-1549.47
-1517.16
-1502.6
-1502.6
-1517.16
-1549.47
-1657.32
-1754.7
-1705.37
-1626.82
-1532.23
-1505.64
-1493.66
-1493.66
-1505.64
-1532.23
-1626.82
-1705.37
-1608.1
-1569.34
-1501.33
-1485.56
-1478.35
-1478.35
-1485.56
-1501.33
-1569.33
-1608.1
-1465.39
-1491.84
-1463.4
-1461.58
-1460.25
-1460.25
-1461.58
-1463.4
-1491.84
-1465.39
-1293.58
-1398.99
-1418.5
-1431.56
-1435.66
-1435.66
-1431.56
-1418.5
-1398.99
-1293.58
-909.637
-1017.33
-1055.07
-1072.08
-1077.98
-1077.98
-1072.08
-1055.07
-1017.33
-909.637
-958.426
-1048.54
-1071.18
-1082.09
-1085.66
-1085.66
-1082.09
-1071.19
-1048.53
-958.44
-1008.19
-1080.63
-1088.28
-1092.34
-1092.89
-1092.89
-1092.35
-1088.28
-1080.62
-1008.21
-1048.6
-1109.55
-1105.97
-1104.13
-1101.9
-1101.9
-1104.13
-1105.98
-1109.54
-1048.62
-1070.49
-1125.91
-1116.53
-1111.43
-1107.64
-1107.64
-1111.43
-1116.53
-1125.9
-1070.51
-1070.49
-1125.91
-1116.53
-1111.43
-1107.64
-1107.64
-1111.43
-1116.53
-1125.9
-1070.51
-1048.6
-1109.55
-1105.97
-1104.13
-1101.9
-1101.9
-1104.13
-1105.98
-1109.54
-1048.62
-1008.19
-1080.63
-1088.28
-1092.34
-1092.89
-1092.89
-1092.35
-1088.28
-1080.62
-1008.21
-958.426
-1048.54
-1071.18
-1082.09
-1085.66
-1085.66
-1082.09
-1071.19
-1048.53
-958.439
-909.637
-1017.33
-1055.07
-1072.08
-1077.98
-1077.98
-1072.08
-1055.07
-1017.33
-909.637
-619.589
-698.822
-736.08
-753.982
-760.835
-760.835
-753.982
-736.08
-698.822
-619.588
-630.758
-706.168
-739.778
-755.962
-762.112
-762.112
-755.962
-739.779
-706.163
-630.753
-647.779
-718.281
-747.068
-760.68
-765.607
-765.606
-760.679
-747.069
-718.275
-647.771
-664.347
-731.43
-756.079
-767.091
-770.71
-770.709
-767.09
-756.08
-731.425
-664.34
-673.871
-739.272
-761.674
-771.187
-774.038
-774.037
-771.186
-761.675
-739.267
-673.864
-673.871
-739.272
-761.674
-771.187
-774.038
-774.037
-771.186
-761.675
-739.267
-673.864
-664.347
-731.43
-756.079
-767.091
-770.71
-770.709
-767.09
-756.08
-731.425
-664.34
-647.779
-718.281
-747.068
-760.68
-765.607
-765.606
-760.679
-747.069
-718.276
-647.772
-630.758
-706.168
-739.778
-755.962
-762.112
-762.112
-755.962
-739.779
-706.163
-630.753
-619.589
-698.822
-736.08
-753.982
-760.835
-760.835
-753.982
-736.08
-698.822
-619.588
-360.945
-408.166
-433.314
-446.095
-451.254
-451.254
-446.095
-433.314
-408.166
-360.945
-363.875
-409.859
-433.896
-446.162
-451.114
-451.114
-446.162
-433.897
-409.86
-363.876
-370.304
-414.636
-436.902
-448.15
-452.607
-452.606
-448.15
-436.903
-414.637
-370.307
-377.323
-420.483
-441.126
-451.256
-455.129
-455.129
-451.256
-441.128
-420.485
-377.326
-381.504
-424.083
-443.823
-453.292
-456.814
-456.814
-453.292
-443.825
-424.085
-381.507
-381.504
-424.083
-443.823
-453.292
-456.814
-456.814
-453.292
-443.825
-424.085
-381.507
-377.323
-420.483
-441.126
-451.256
-455.129
-455.129
-451.256
-441.128
-420.485
-377.327
-370.304
-414.636
-436.902
-448.151
-452.607
-452.606
-448.15
-436.903
-414.637
-370.307
-363.875
-409.859
-433.896
-446.162
-451.114
-451.114
-446.162
-433.897
-409.861
-363.876
-360.945
-408.166
-433.314
-446.095
-451.254
-451.254
-446.095
-433.314
-408.166
-360.945
-111.324
-126.917
-135.662
-140.23
-142.117
-142.117
-140.23
-135.662
-126.916
-111.323
-111.933
-127.217
-135.69
-140.141
-141.985
-141.985
-140.141
-135.69
-127.216
-111.934
-113.577
-128.459
-136.475
-140.656
-142.368
-142.368
-140.656
-136.475
-128.457
-113.578
-115.496
-130.096
-137.685
-141.558
-143.107
-143.107
-141.557
-137.685
-130.095
-115.496
-116.663
-131.125
-138.473
-142.162
-143.612
-143.612
-142.162
-138.473
-131.123
-116.664
-116.663
-131.125
-138.473
-142.162
-143.612
-143.612
-142.162
-138.473
-131.123
-116.664
-115.496
-130.096
-137.685
-141.558
-143.107
-143.107
-141.557
-137.685
-130.095
-115.496
-113.577
-128.459
-136.475
-140.656
-142.368
-142.368
-140.656
-136.475
-128.457
-113.578
-111.934
-127.217
-135.69
-140.141
-141.985
-141.985
-140.141
-135.69
-127.216
-111.934
-111.324
-126.917
-135.662
-140.23
-142.117
-142.117
-140.23
-135.662
-126.916
-111.323
135.396
151.054
159.831
164.413
166.305
166.305
164.413
159.831
151.054
135.396
136.037
151.371
159.866
164.324
166.171
166.171
164.324
159.866
151.372
136.036
137.744
152.655
160.674
164.85
166.56
166.56
164.85
160.674
152.656
137.743
139.732
154.341
161.914
165.77
167.31
167.31
165.77
161.914
154.343
139.731
140.941
155.4
162.721
166.386
167.824
167.824
166.386
162.722
155.402
140.94
140.941
155.4
162.721
166.386
167.824
167.824
166.386
162.722
155.402
140.94
139.732
154.341
161.914
165.77
167.31
167.31
165.77
161.914
154.343
139.731
137.744
152.655
160.674
164.85
166.56
166.56
164.85
160.674
152.656
137.743
136.037
151.371
159.865
164.324
166.171
166.171
164.324
159.866
151.372
136.036
135.396
151.054
159.831
164.413
166.305
166.305
164.413
159.831
151.054
135.396
384.957
432.263
457.458
470.263
475.431
475.431
470.263
457.458
432.263
384.956
387.919
433.976
458.048
470.33
475.289
475.289
470.33
458.046
433.975
387.917
394.41
438.794
461.077
472.33
476.788
476.789
472.33
461.076
438.792
394.406
401.493
444.687
465.331
475.453
479.323
479.323
475.453
465.329
444.685
401.489
405.712
448.315
468.046
477.5
481.016
481.016
477.5
468.044
448.313
405.708
405.712
448.315
468.046
477.5
481.016
481.016
477.5
468.044
448.313
405.708
401.494
444.687
465.331
475.453
479.323
479.323
475.453
465.329
444.685
401.489
394.41
438.794
461.077
472.33
476.788
476.789
472.33
461.076
438.792
394.406
387.919
433.976
458.048
470.33
475.289
475.289
470.33
458.046
433.975
387.917
384.957
432.263
457.458
470.263
475.431
475.431
470.263
457.458
432.263
384.956
643.485
722.848
760.182
778.124
784.994
784.994
778.124
760.182
722.849
643.486
654.683
730.21
763.89
780.106
786.271
786.272
780.107
763.889
730.214
654.687
671.755
742.361
771.202
784.836
789.774
789.774
784.836
771.201
742.366
671.761
688.376
755.55
780.239
791.263
794.889
794.889
791.264
780.238
755.555
688.381
697.931
763.416
785.851
795.37
798.225
798.226
795.37
785.85
763.421
697.936
697.931
763.416
785.851
795.37
798.225
798.226
795.37
785.85
763.421
697.936
688.376
755.55
780.239
791.263
794.889
794.889
791.264
780.238
755.555
688.381
671.755
742.361
771.202
784.836
789.774
789.774
784.836
771.201
742.366
671.761
654.683
730.21
763.89
780.106
786.271
786.272
780.107
763.889
730.214
654.687
643.485
722.848
760.182
778.123
784.994
784.994
778.124
760.182
722.849
643.486
933.367
1041.27
1079.13
1096.19
1102.12
1102.12
1096.19
1079.13
1041.27
933.367
982.187
1072.5
1095.26
1106.21
1109.8
1109.8
1106.21
1095.26
1072.5
982.173
1031.97
1104.61
1112.37
1116.48
1117.05
1117.05
1116.48
1112.37
1104.62
1031.96
1072.4
1133.56
1130.09
1128.28
1126.07
1126.07
1128.28
1130.09
1133.57
1072.38
1094.3
1149.94
1140.66
1135.59
1131.82
1131.82
1135.59
1140.65
1149.95
1094.28
1094.3
1149.94
1140.66
1135.59
1131.82
1131.82
1135.59
1140.65
1149.95
1094.28
1072.4
1133.56
1130.09
1128.28
1126.07
1126.07
1128.28
1130.09
1133.57
1072.38
1031.97
1104.61
1112.37
1116.48
1117.05
1117.05
1116.48
1112.37
1104.62
1031.96
982.187
1072.5
1095.26
1106.21
1109.8
1109.8
1106.21
1095.26
1072.5
982.173
933.367
1041.27
1079.13
1096.19
1102.12
1102.12
1096.19
1079.13
1041.27
933.367
1317.15
1422.86
1442.52
1455.66
1459.79
1459.79
1455.66
1442.52
1422.86
1317.15
1488.93
1515.74
1487.44
1485.7
1484.4
1484.4
1485.7
1487.44
1515.74
1488.93
1631.57
1593.24
1525.39
1509.69
1502.51
1502.51
1509.69
1525.39
1593.24
1631.57
1728.78
1650.73
1556.31
1529.79
1517.83
1517.83
1529.79
1556.31
1650.73
1728.78
1778.08
1681.23
1573.56
1541.32
1526.78
1526.78
1541.32
1573.56
1681.23
1778.08
1778.08
1681.23
1573.56
1541.32
1526.78
1526.78
1541.32
1573.56
1681.23
1778.08
1728.78
1650.73
1556.31
1529.79
1517.83
1517.83
1529.79
1556.31
1650.73
1728.78
1631.57
1593.24
1525.39
1509.69
1502.51
1502.51
1509.69
1525.39
1593.24
1631.57
1488.93
1515.74
1487.44
1485.7
1484.4
1484.4
1485.7
1487.44
1515.74
1488.93
1317.14
1422.86
1442.52
1455.66
1459.79
1459.79
1455.66
1442.52
1422.86
1317.15
-740.089
-502.487
-358.442
-267.896
-210.123
-173.595
-151.887
-141.293
-139.565
-142.401
-781.337
-514.587
-361.728
-268.703
-210.198
-173.517
-151.907
-141.81
-141.954
-148.77
-826.025
-533.144
-368.338
-271.046
-211.071
-173.974
-152.467
-143.034
-145.212
-155.606
-862.1
-549.044
-374.602
-273.565
-212.182
-174.662
-153.265
-144.449
-148.207
-161.049
-881.531
-557.777
-378.194
-275.087
-212.891
-175.118
-153.782
-145.313
-149.905
-163.975
-881.531
-557.777
-378.194
-275.087
-212.891
-175.118
-153.782
-145.313
-149.905
-163.975
-862.1
-549.044
-374.602
-273.565
-212.182
-174.662
-153.265
-144.449
-148.207
-161.049
-826.025
-533.144
-368.338
-271.046
-211.071
-173.974
-152.467
-143.035
-145.212
-155.606
-781.337
-514.587
-361.728
-268.703
-210.199
-173.517
-151.907
-141.81
-141.954
-148.77
-740.088
-502.487
-358.442
-267.896
-210.123
-173.595
-151.887
-141.293
-139.565
-142.401
-629.818
-452.967
-330.532
-246.875
-191.089
-155.137
-133.575
-122.911
-120.948
-123.54
-643.72
-456.411
-330.921
-246.672
-190.807
-154.931
-133.549
-123.393
-123.236
-129.651
-659.871
-463.39
-333.66
-247.729
-191.237
-155.226
-134.033
-124.535
-126.319
-136.146
-677.226
-471.795
-337.487
-249.473
-192.092
-155.817
-134.766
-125.857
-129.137
-141.287
-687.544
-476.942
-339.924
-250.634
-192.685
-156.228
-135.247
-126.666
-130.731
-144.042
-687.544
-476.942
-339.924
-250.634
-192.685
-156.228
-135.247
-126.666
-130.731
-144.042
-677.226
-471.795
-337.487
-249.473
-192.092
-155.817
-134.766
-125.857
-129.138
-141.287
-659.871
-463.39
-333.66
-247.73
-191.237
-155.226
-134.033
-124.535
-126.319
-136.146
-643.72
-456.411
-330.921
-246.672
-190.807
-154.931
-133.549
-123.393
-123.236
-129.651
-629.817
-452.967
-330.532
-246.875
-191.089
-155.137
-133.575
-122.911
-120.948
-123.54
-465.591
-347.885
-258.685
-194.231
-149.7
-120.377
-102.563
-93.6596
-91.9603
-94.074
-468.018
-348.194
-258.263
-193.763
-149.34
-120.154
-102.521
-94.0538
-93.8556
-99.1455
-473.784
-350.992
-259.433
-194.201
-149.518
-120.327
-102.892
-94.9832
-96.3953
-104.508
-481.887
-355.441
-261.674
-195.29
-150.09
-120.764
-103.475
-96.0606
-98.7079
-108.739
-487.02
-358.337
-263.187
-196.058
-150.508
-121.076
-103.861
-96.7191
-100.014
-111.003
-487.02
-358.337
-263.187
-196.058
-150.508
-121.076
-103.861
-96.7191
-100.014
-111.003
-481.887
-355.441
-261.674
-195.29
-150.09
-120.764
-103.475
-96.0606
-98.7079
-108.739
-473.785
-350.992
-259.433
-194.201
-149.518
-120.327
-102.892
-94.9833
-96.3953
-104.508
-468.018
-348.194
-258.263
-193.763
-149.34
-120.155
-102.521
-94.0538
-93.8557
-99.1455
-465.591
-347.886
-258.685
-194.231
-149.7
-120.377
-102.563
-93.6597
-91.9603
-94.074
-281.43
-213.88
-160.163
-120.111
-91.8179
-72.9077
-61.3109
-55.4803
-54.3632
-55.7564
-281.588
-213.539
-159.685
-119.713
-91.5428
-72.7452
-61.2779
-55.7403
-55.6133
-59.1065
-284.001
-214.71
-160.141
-119.856
-91.5962
-72.8322
-61.5114
-56.3496
-57.2872
-62.6424
-287.832
-216.916
-161.285
-120.426
-91.9114
-73.0958
-61.8863
-57.0547
-58.8077
-65.4288
-290.316
-218.393
-162.085
-120.845
-92.1504
-73.2872
-62.1347
-57.4859
-59.6659
-66.9191
-290.316
-218.393
-162.085
-120.845
-92.1504
-73.2872
-62.1347
-57.4859
-59.6659
-66.9191
-287.832
-216.916
-161.285
-120.426
-91.9114
-73.0958
-61.8863
-57.0546
-58.8077
-65.4288
-284.002
-214.71
-160.141
-119.856
-91.5963
-72.8322
-61.5114
-56.3496
-57.2872
-62.6424
-281.589
-213.539
-159.685
-119.713
-91.5429
-72.7452
-61.2779
-55.7404
-55.6133
-59.1065
-281.431
-213.88
-160.163
-120.111
-91.8179
-72.9078
-61.3109
-55.4803
-54.3632
-55.7564
-86.7156
-64.8112
-47.0075
-33.5399
-23.9281
-17.4611
-13.4811
-11.4802
-11.1049