/*--------------------------------*- C++ -*----------------------------------*\
  =========                 |
  \\      /  F ield         | OpenFOAM: The Open Source CFD Toolbox
   \\    /   O peration     | Website:  https://openfoam.org
    \\  /    A nd           | Version:  6
     \\/     M anipulation  |
\*---------------------------------------------------------------------------*/
FoamFile
{
    version     2.0;
    format      ascii;
    class       surfaceScalarField;
    location    "0.05";
    object      phi;
}
// * * * * * * * * * * * * * * * * * * * * * * * * * * * * * * * * * * * * * //

dimensions      [0 3 -1 0 0 0 0];

internalField   nonuniform List<scalar> 
19500
(
1.16444e-09
2.78902e-09
1.67728e-05
6.65374e-09
3.21139e-09
3.43198e-05
1.47939e-08
2.12033e-09
4.4607e-05
2.21334e-08
9.88445e-10
5.05573e-05
2.5667e-08
-1.3106e-10
5.33257e-05
2.37685e-08
-1.33227e-09
5.33442e-05
1.69069e-08
-2.71088e-09
5.06014e-05
7.94451e-09
-4.25663e-09
4.4649e-05
1.4472e-09
-5.62887e-09
3.43326e-05
-4.46998e-09
1.67578e-05
6.0339e-09
4.87024e-09
3.43335e-05
2.28912e-08
6.29939e-09
7.82661e-05
4.49873e-08
4.52025e-09
0.000106227
6.43236e-08
2.13109e-09
0.000122929
7.36461e-08
-3.76825e-10
0.000130792
6.89206e-08
-3.07176e-09
0.000130841
5.11726e-08
-6.0987e-09
0.000123046
2.71105e-08
-9.24589e-09
0.000106345
7.26153e-09
-1.12916e-08
7.83153e-05
-8.00625e-09
3.43126e-05
1.02736e-08
4.85253e-09
4.46368e-05
3.67199e-08
6.62145e-09
0.000106247
7.00316e-08
4.95231e-09
0.000147207
9.86271e-08
2.35988e-09
0.00017224
1.12302e-07
-4.95923e-10
0.000184152
1.05367e-07
-3.5901e-09
0.00018422
7.91528e-08
-6.98529e-09
0.000172405
4.30026e-08
-1.03119e-08
0.00014737
1.20906e-08
-1.20658e-08
0.000106313
-8.11076e-09
4.46045e-05
1.31698e-08
2.94173e-09
5.0593e-05
4.61924e-08
4.13238e-09
0.000122946
8.71681e-08
3.15704e-09
0.000172229
1.22013e-07
1.51191e-09
0.000202793
1.38545e-07
-3.49498e-10
0.000217444
1.30005e-07
-2.37491e-09
0.000217522
9.79675e-08
-4.56709e-09
0.00020298
5.35892e-08
-6.64216e-09
0.000172409
1.52585e-08
-7.59915e-09
0.000123009
-4.9627e-09
5.0545e-05
1.45867e-08
-2.98142e-14
5.33527e-05
5.09072e-08
-7.59635e-14
0.000130777
9.57438e-08
-1.10649e-13
0.00018409
1.33719e-07
-1.30814e-13
0.000217385
1.51654e-07
-1.42381e-13
0.000233406
1.42263e-07
-1.45881e-13
0.000233488
1.07263e-07
-1.43691e-13
0.00021758
5.87501e-08
-1.21446e-13
0.000184274
1.6757e-08
-9.59408e-14
0.000130833
-3.78026e-14
5.32939e-05
1.45867e-08
-2.94177e-09
5.33527e-05
5.09072e-08
-4.13251e-09
0.000130777
9.57438e-08
-3.15725e-09
0.00018409
1.33719e-07
-1.51217e-09
0.000217385
1.51654e-07
3.49213e-10
0.000233406
1.42263e-07
2.37461e-09
0.000233488
1.07263e-07
4.5668e-09
0.00021758
5.87501e-08
6.64189e-09
0.000184274
1.6757e-08
7.59896e-09
0.000130833
4.96262e-09
5.32939e-05
1.31697e-08
-4.85251e-09
5.0593e-05
4.61924e-08
-6.6215e-09
0.000122946
8.71681e-08
-4.95243e-09
0.000172229
1.22013e-07
-2.36007e-09
0.000202793
1.38545e-07
4.95686e-10
0.000217444
1.30005e-07
3.58984e-09
0.000217522
9.79674e-08
6.98502e-09
0.00020298
5.35892e-08
1.03117e-08
0.000172409
1.52585e-08
1.20656e-08
0.000123009
8.11069e-09
5.0545e-05
1.02736e-08
-4.87005e-09
4.46368e-05
3.67199e-08
-6.29939e-09
0.000106247
7.00316e-08
-4.52035e-09
0.000147207
9.86271e-08
-2.13127e-09
0.00017224
1.12302e-07
3.7658e-10
0.000184152
1.05366e-07
3.07146e-09
0.00018422
7.91528e-08
6.0984e-09
0.000172405
4.30026e-08
9.24559e-09
0.00014737
1.20906e-08
1.12912e-08
0.000106313
8.00619e-09
4.46045e-05
6.03369e-09
-2.7886e-09
3.43335e-05
2.28911e-08
-3.21126e-09
7.82661e-05
4.49872e-08
-2.12028e-09
0.000106227
6.43235e-08
-9.88446e-10
0.000122929
7.3646e-08
1.31021e-10
0.000130792
6.89205e-08
1.3322e-09
0.000130841
5.11725e-08
2.71079e-09
0.000123046
2.71104e-08
4.25654e-09
0.000106345
7.26169e-09
5.62887e-09
7.83153e-05
4.46998e-09
3.43126e-05
1.16395e-09
1.67728e-05
6.65355e-09
3.43198e-05
1.47938e-08
4.4607e-05
2.21333e-08
5.05573e-05
2.56669e-08
5.33257e-05
2.37685e-08
5.33442e-05
1.69069e-08
5.06014e-05
7.94444e-09
4.4649e-05
1.44734e-09
3.43326e-05
1.67578e-05
4.0619e-09
8.89401e-09
1.67599e-05
2.21263e-08
1.01767e-08
3.42916e-05
4.8602e-08
6.78826e-09
4.45738e-05
7.27008e-08
3.11169e-09
5.05301e-05
8.47608e-08
-4.96255e-10
5.33141e-05
7.9291e-08
-4.35274e-09
5.3354e-05
5.74012e-08
-8.87027e-09
5.06322e-05
2.79672e-08
-1.40281e-08
4.46925e-05
5.71832e-09
-1.85274e-08
3.43733e-05
-1.48136e-08
1.67783e-05
1.99726e-08
1.54921e-08
3.43069e-05
7.48712e-08
1.99679e-08
7.82014e-05
1.4672e-07
1.43562e-08
0.000106148
2.10058e-07
6.72849e-09
0.000122862
2.41681e-07
-1.30537e-09
0.000130761
2.28106e-07
-9.98907e-09
0.00013086
1.7153e-07
-1.98322e-08
0.000123114
9.26205e-08
-3.01659e-08
0.00010644
2.57397e-08
-3.69409e-08
7.84005e-05
-2.63266e-08
3.43498e-05
3.37415e-08
1.53943e-08
4.46032e-05
1.19604e-07
2.09829e-08
0.00010616
2.27713e-07
1.57059e-08
0.000147098
3.2127e-07
7.45643e-09
0.000172146
3.67554e-07
-1.66927e-09
0.000184106
3.47498e-07
-1.16176e-08
0.000184242
2.63894e-07
-2.26139e-08
0.000172491
1.45596e-07
-3.34782e-08
0.000147492
4.20558e-08
-3.92933e-08
0.000106419
-2.6507e-08
4.46468e-05
4.3098e-08
9.32501e-09
5.05559e-05
1.50189e-07
1.30888e-08
0.000122847
2.83065e-07
1.00034e-08
0.000172101
3.96982e-07
4.7782e-09
0.000202681
4.52851e-07
-1.16067e-09
0.000217388
4.28004e-07
-7.66259e-09
0.000217543
3.25774e-07
-1.4745e-08
0.000203074
1.80684e-07
-2.14999e-08
0.000172543
5.26473e-08
-2.46748e-08
0.000123122
-1.61667e-08
5.05874e-05
4.76859e-08
9.81143e-15
5.33143e-05
1.65415e-07
2.35334e-14
0.000130672
3.10754e-07
3.74187e-14
0.000183954
4.34859e-07
5.84162e-14
0.000217266
4.95421e-07
8.55774e-14
0.000233344
4.68007e-07
1.12716e-13
0.000233507
3.56296e-07
1.33521e-13
0.000217677
1.97759e-07
1.30086e-13
0.000184411
5.76561e-08
1.07104e-13
0.000130949
4.32372e-14
5.33354e-05
4.76859e-08
-9.32498e-09
5.33143e-05
1.65415e-07
-1.30887e-08
0.000130672
3.10754e-07
-1.00033e-08
0.000183954
4.34859e-07
-4.77807e-09
0.000217266
4.95421e-07
1.16084e-09
0.000233344
4.68007e-07
7.66282e-09
0.000233507
3.56296e-07
1.47452e-08
0.000217677
1.97759e-07
2.15001e-08
0.000184411
5.76561e-08
2.4675e-08
0.000130949
1.61668e-08
5.33354e-05
4.3098e-08
-1.53942e-08
5.05559e-05
1.50189e-07
-2.09827e-08
0.000122847
2.83065e-07
-1.57058e-08
0.000172101
3.96982e-07
-7.4563e-09
0.000202681
4.52851e-07
1.66943e-09
0.000217388
4.28004e-07
1.16177e-08
0.000217543
3.25774e-07
2.26141e-08
0.000203074
1.80684e-07
3.34784e-08
0.000172543
5.26473e-08
3.92934e-08
0.000123122
2.65071e-08
5.05874e-05
3.37415e-08
-1.54919e-08
4.46032e-05
1.19604e-07
-1.99677e-08
0.00010616
2.27713e-07
-1.4356e-08
0.000147098
3.2127e-07
-6.72834e-09
0.000172146
3.67554e-07
1.30551e-09
0.000184106
3.47498e-07
9.98921e-09
0.000184242
2.63894e-07
1.98324e-08
0.000172491
1.45596e-07
3.0166e-08
0.000147492
4.20558e-08
3.6941e-08
0.000106419
2.63266e-08
4.46468e-05
1.99725e-08
-8.89383e-09
3.43069e-05
7.48711e-08
-1.01766e-08
7.82014e-05
1.4672e-07
-6.78817e-09
0.000106148
2.10058e-07
-3.11163e-09
0.000122862
2.41681e-07
4.96291e-10
0.000130761
2.28106e-07
4.35275e-09
0.00013086
1.7153e-07
8.87027e-09
0.000123114
9.26206e-08
1.4028e-08
0.00010644
2.57396e-08
1.85273e-08
7.84005e-05
1.48136e-08
3.43498e-05
4.0618e-09
1.67599e-05
2.21262e-08
3.42916e-05
4.86019e-08
4.45738e-05
7.27008e-08
5.05301e-05
8.47608e-08
5.33141e-05
7.9291e-08
5.3354e-05
5.74012e-08
5.06322e-05
2.79672e-08
4.46925e-05
5.71827e-09
3.43733e-05
1.67783e-05
9.64395e-09
1.66423e-08
1.67336e-05
4.67588e-08
1.88118e-08
3.42356e-05
9.98754e-08
1.24312e-08
4.45082e-05
1.48678e-07
5.59394e-09
5.04757e-05
1.74731e-07
-1.08744e-09
5.32892e-05
1.66664e-07
-8.30042e-09
5.33704e-05
1.24913e-07
-1.69547e-08
5.06909e-05
6.50238e-08
-2.71343e-08
4.47795e-05
1.60487e-08
-3.64565e-08
3.44588e-05
-2.96212e-08
1.6824e-05
4.1589e-08
2.86636e-08
3.42533e-05
1.51276e-07
3.66188e-08
7.80739e-05
2.93534e-07
2.61238e-08
0.000105992
4.20467e-07
1.21087e-08
0.000122728
4.87864e-07
-2.6153e-09
0.000130695
4.67899e-07
-1.8694e-08
0.00013089
3.60707e-07
-3.72944e-08
0.000123241
2.02357e-07
-5.73862e-08
0.000106629
6.03064e-08
-7.13633e-08
7.85775e-05
-5.1577e-08
3.44321e-05
6.84098e-08
2.82759e-08
4.45351e-05
2.37867e-07
3.82781e-08
0.000105989
4.5021e-07
2.848e-08
0.000146883
6.36447e-07
1.34262e-08
0.000171958
7.34292e-07
-3.1903e-09
0.000184009
7.04437e-07
-2.14722e-08
0.000184274
5.46583e-07
-4.20588e-08
0.000172654
3.11072e-07
-6.29611e-08
0.000147733
9.46767e-08
-7.49278e-08
0.000106639
-5.11855e-08
4.47411e-05
8.6386e-08
1.70612e-08
5.04808e-05
2.9639e-07
2.38053e-08
0.000122651
5.56154e-07
1.81032e-08
0.000171852
7.8195e-07
8.60751e-09
0.00020246
8.99448e-07
-2.16452e-09
0.000217269
8.61992e-07
-1.40596e-08
0.000217573
6.69343e-07
-2.72443e-08
0.000203252
3.81834e-07
-4.01551e-08
0.000172807
1.16505e-07
-4.66877e-08
0.000123359
-3.09543e-08
5.06836e-05
9.51542e-08
3.53216e-14
5.32362e-05
3.25365e-07
9.73952e-14
0.000130466
6.08864e-07
1.49837e-13
0.000183689
8.5434e-07
2.09546e-13
0.000217029
9.81392e-07
2.76019e-13
0.000233215
9.39773e-07
3.40572e-13
0.000233535
7.29448e-07
3.80729e-13
0.00021786
4.15983e-07
3.76664e-13
0.000184685
1.2674e-07
2.97138e-13
0.000131191
1.2045e-13
5.34312e-05
9.51542e-08
-1.70611e-08
5.32362e-05
3.25365e-07
-2.38051e-08
0.000130466
6.08864e-07
-1.81029e-08
0.000183689
8.5434e-07
-8.60711e-09
0.000217029
9.81392e-07
2.16504e-09
0.000233215
9.39773e-07
1.40603e-08
0.000233535
7.29448e-07
2.7245e-08
0.00021786
4.15983e-07
4.01557e-08
0.000184685
1.2674e-07
4.66883e-08
0.000131191
3.09545e-08
5.34312e-05
8.6386e-08
-2.82758e-08
5.04808e-05
2.9639e-07
-3.82779e-08
0.000122651
5.56154e-07
-2.84798e-08
0.000171852
7.8195e-07
-1.34258e-08
0.00020246
8.99448e-07
3.19074e-09
0.000217269
8.61992e-07
2.14728e-08
0.000217573
6.69343e-07
4.20594e-08
0.000203252
3.81834e-07
6.29616e-08
0.000172807
1.16505e-07
7.49283e-08
0.000123359
5.11857e-08
5.06836e-05
6.84098e-08
-2.86634e-08
4.45351e-05
2.37867e-07
-3.66186e-08
0.000105989
4.5021e-07
-2.61235e-08
0.000146883
6.36447e-07
-1.21084e-08
0.000171958
7.34292e-07
2.61558e-09
0.000184009
7.04437e-07
1.86943e-08
0.000184274
5.46583e-07
3.72947e-08
0.000172654
3.11072e-07
5.73865e-08
0.000147733
9.46768e-08
7.13635e-08
0.000106639
5.15771e-08
4.47411e-05
4.15889e-08
-1.66422e-08
3.42533e-05
1.51276e-07
-1.88116e-08
7.80739e-05
2.93534e-07
-1.2431e-08
0.000105992
4.20467e-07
-5.59377e-09
0.000122728
4.87864e-07
1.08761e-09
0.000130695
4.67899e-07
8.30059e-09
0.00013089
3.60707e-07
1.69549e-08
0.000123241
2.02357e-07
2.71345e-08
0.000106629
6.03066e-08
3.64566e-08
7.85775e-05
2.96213e-08
3.44321e-05
9.6439e-09
1.67336e-05
4.67588e-08
3.42356e-05
9.98754e-08
4.45082e-05
1.48678e-07
5.04757e-05
1.74731e-07
5.32892e-05
1.66665e-07
5.33704e-05
1.24913e-07
5.06909e-05
6.50239e-08
4.47795e-05
1.60489e-08
3.44588e-05
1.6824e-05
2.00993e-08
2.71059e-08
1.66864e-05
8.77719e-08
3.01836e-08
3.41378e-05
1.82436e-07
1.96702e-08
4.43939e-05
2.70783e-07
8.69105e-09
5.03786e-05
3.22061e-07
-1.99054e-09
5.32399e-05
3.15161e-07
-1.3702e-08
5.3391e-05
2.46538e-07
-2.81987e-08
5.07877e-05
1.38186e-07
-4.59526e-08
4.49338e-05
4.03176e-08
-6.34406e-08
3.46201e-05
-5.26593e-08
1.6917e-05
7.68056e-08
4.60008e-08
3.41576e-05
2.70716e-07
5.81167e-08
7.78521e-05
5.20195e-07
4.10514e-08
0.000105721
7.47075e-07
1.8865e-08
0.000122491
8.7767e-07
-4.32966e-09
0.000130567
8.60437e-07
-2.9999e-08
0.000130924
6.8541e-07
-6.05434e-08
0.000123449
4.03422e-07
-9.49052e-08
0.00010696
1.30153e-07
-1.2088e-07
7.89082e-05
-8.91239e-08
3.45987e-05
1.22745e-07
4.49519e-08
4.44134e-05
4.18035e-07
6.03166e-08
0.000105692
7.86819e-07
4.45616e-08
0.000146511
1.11693e-06
2.09599e-08
0.000171626
1.3047e-06
-4.96494e-09
0.000183822
1.27745e-06
-3.38177e-08
0.000184305
1.02055e-06
-6.71567e-08
0.000172917
6.04977e-07
-1.02362e-07
0.000148156
1.96247e-07
-1.24489e-07
0.000107051
-8.66452e-08
4.49348e-05
1.53035e-07
2.6982e-08
5.03457e-05
5.16175e-07
3.73596e-08
0.000122311
9.64694e-07
2.82565e-08
0.00017142
1.36278e-06
1.34567e-08
0.00020207
1.5869e-06
-3.2539e-09
0.000217043
1.55095e-06
-2.18997e-08
0.000217597
1.238e-06
-4.30729e-08
0.000203541
7.33453e-07
-6.46109e-08
0.000173274
2.3722e-07
-7.6674e-08
0.000123808
-5.17545e-08
5.0886e-05
1.67705e-07
5.97168e-14
5.30955e-05
5.64421e-07
1.59775e-13
0.000130106
1.05257e-06
2.50429e-13
0.000183229
1.48423e-06
3.52371e-13
0.000216611
1.72586e-06
4.74774e-13
0.00023297
1.68487e-06
6.07883e-13
0.000233554
1.3435e-06
7.1995e-13
0.000218159
7.9484e-07
7.48632e-13
0.000185169
2.56253e-07
6.28323e-13
0.000131653
2.75307e-13
5.36357e-05
1.67705e-07
-2.69819e-08
5.30955e-05
5.64421e-07
-3.73593e-08
0.000130106
1.05257e-06
-2.8256e-08
0.000183229
1.48423e-06
-1.3456e-08
0.000216611
1.72586e-06
3.25482e-09
0.00023297
1.68487e-06
2.19009e-08
0.000233554
1.3435e-06
4.30743e-08
0.000218159
7.9484e-07
6.46124e-08
0.000185169
2.56253e-07
7.66752e-08
0.000131653
5.1755e-08
5.36357e-05
1.53035e-07
-4.49517e-08
5.03457e-05
5.16175e-07
-6.03163e-08
0.000122311
9.64694e-07
-4.45611e-08
0.00017142
1.36278e-06
-2.09593e-08
0.00020207
1.5869e-06
4.96575e-09
0.000217043
1.55095e-06
3.38187e-08
0.000217597
1.238e-06
6.71579e-08
0.000203541
7.33453e-07
1.02364e-07
0.000173274
2.3722e-07
1.2449e-07
0.000123808
8.66456e-08
5.0886e-05
1.22745e-07
-4.60007e-08
4.44134e-05
4.18035e-07
-5.81164e-08
0.000105692
7.86819e-07
-4.1051e-08
0.000146511
1.11693e-06
-1.88644e-08
0.000171626
1.3047e-06
4.33033e-09
0.000183822
1.27745e-06
2.99998e-08
0.000184305
1.02055e-06
6.05443e-08
0.000172917
6.04977e-07
9.49061e-08
0.000148156
1.96248e-07
1.2088e-07
0.000107051
8.91242e-08
4.49348e-05
7.68056e-08
-2.71058e-08
3.41576e-05
2.70716e-07
-3.01833e-08
7.78521e-05
5.20195e-07
-1.96699e-08
0.000105721
7.47075e-07
-8.69075e-09
0.000122491
8.7767e-07
1.99086e-09
0.000130567
8.60438e-07
1.37023e-08
0.000130924
6.8541e-07
2.81991e-08
0.000123449
4.03422e-07
4.59529e-08
0.00010696
1.30153e-07
6.34407e-08
7.89082e-05
5.26594e-08
3.45987e-05
2.00994e-08
1.66864e-05
8.77719e-08
3.41378e-05
1.82436e-07
4.43939e-05
2.70783e-07
5.03786e-05
3.22061e-07
5.32399e-05
3.15161e-07
5.3391e-05
2.46538e-07
5.07877e-05
1.38186e-07
4.49338e-05
4.03176e-08
3.46201e-05
1.6917e-05
3.80537e-08
4.12255e-08
1.66071e-05
1.53537e-07
4.51985e-08
3.39771e-05
3.12506e-07
2.9045e-08
4.42059e-05
4.64448e-07
1.27027e-08
5.0214e-05
5.61594e-07
-3.1004e-09
5.31458e-05
5.66817e-07
-2.07437e-08
5.34065e-05
4.65394e-07
-4.34084e-08
5.09326e-05
2.81624e-07
-7.2576e-08
4.51902e-05
9.47525e-08
-1.0396e-07
3.49109e-05
-8.84343e-08
1.71002e-05
1.32274e-07
6.88471e-08
3.39977e-05
4.53851e-07
8.59824e-08
7.74897e-05
8.66154e-07
6.02042e-08
0.000105278
1.25133e-06
2.7736e-08
0.000122091
1.49491e-06
-5.92458e-09
0.000130326
1.50638e-06
-4.36949e-08
0.000130935
1.24832e-06
-9.01757e-08
0.000123753
7.7663e-07
-1.45181e-07
0.000107504
2.72386e-07
-1.91084e-07
7.94996e-05
-1.44423e-07
3.49271e-05
2.0601e-07
6.65871e-08
4.42097e-05
6.88932e-07
8.85369e-08
0.000105206
1.29246e-06
6.50721e-08
0.000145902
1.84806e-06
3.09522e-08
0.000171067
2.1949e-06
-6.19268e-09
0.000183475
2.2056e-06
-4.79847e-08
0.000184299
1.82708e-06
-9.77626e-08
0.000173303
1.13769e-06
-1.52966e-07
0.000148853
3.96601e-07
-1.91713e-07
0.000107793
-1.36704e-07
4.53237e-05
2.53842e-07
3.97392e-08
5.01187e-05
8.4324e-07
5.45968e-08
0.000121756
1.5729e-06
4.11649e-08
0.000170714
2.2392e-06
1.993e-08
0.000201414
2.65072e-06
-3.83147e-09
0.00021663
2.65686e-06
-3.059e-08
0.000217574
2.19582e-06
-6.1842e-08
0.000203966
1.36316e-06
-9.51793e-08
0.000174049
4.71979e-07
-1.16224e-07
0.000124623
-8.03347e-08
5.13016e-05
2.76841e-07
6.1361e-14
5.28584e-05
9.18541e-07
1.75186e-13
0.000129519
1.71044e-06
2.82636e-13
0.000182478
2.43096e-06
4.16894e-13
0.00021591
2.87341e-06
5.94332e-13
0.000232524
2.87592e-06
8.14393e-13
0.000233521
2.37307e-06
1.04398e-12
0.0002186
1.46989e-06
1.17203e-12
0.000185977
5.06761e-07
1.02534e-12
0.0001325
4.84053e-13
5.40621e-05
2.76841e-07
-3.97391e-08
5.28584e-05
9.18541e-07
-5.45965e-08
0.000129519
1.71044e-06
-4.11643e-08
0.000182478
2.43096e-06
-1.99292e-08
0.00021591
2.87341e-06
3.83261e-09
0.000232524
2.87592e-06
3.05916e-08
0.000233521
2.37308e-06
6.1844e-08
0.0002186
1.46989e-06
9.51815e-08
0.000185977
5.06761e-07
1.16226e-07
0.0001325
8.03356e-08
5.40621e-05
2.53842e-07
-6.65869e-08
5.01187e-05
8.43241e-07
-8.85366e-08
0.000121756
1.5729e-06
-6.50716e-08
0.000170714
2.2392e-06
-3.09514e-08
0.000201414
2.65072e-06
6.19368e-09
0.00021663
2.65686e-06
4.79861e-08
0.000217574
2.19582e-06
9.77643e-08
0.000203966
1.36316e-06
1.52968e-07
0.000174049
4.71979e-07
1.91714e-07
0.000124623
1.36705e-07
5.13016e-05
2.0601e-07
-6.88469e-08
4.42097e-05
6.88932e-07
-8.5982e-08
0.000105206
1.29246e-06
-6.02037e-08
0.000145902
1.84806e-06
-2.77354e-08
0.000171067
2.1949e-06
5.92531e-09
0.000183475
2.2056e-06
4.36958e-08
0.000184299
1.82708e-06
9.01767e-08
0.000173303
1.13769e-06
1.45182e-07
0.000148853
3.96601e-07
1.91085e-07
0.000107793
1.44423e-07
4.53237e-05
1.32274e-07
-4.12253e-08
3.39977e-05
4.53851e-07
-4.51983e-08
7.74897e-05
8.66154e-07
-2.90447e-08
0.000105278
1.25133e-06
-1.27024e-08
0.000122091
1.49491e-06
3.10078e-09
0.000130326
1.50638e-06
2.07441e-08
0.000130935
1.24832e-06
4.34088e-08
0.000123753
7.7663e-07
7.25764e-08
0.000107504
2.72387e-07
1.0396e-07
7.94996e-05
8.84344e-08
3.49271e-05
3.80537e-08
1.66071e-05
1.53537e-07
3.39771e-05
3.12506e-07
4.42059e-05
4.64449e-07
5.0214e-05
5.61594e-07
5.31458e-05
5.66817e-07
5.34065e-05
4.65394e-07
5.09326e-05
2.81624e-07
4.51902e-05
9.47526e-08
3.49109e-05
1.71002e-05
6.63283e-08
5.95801e-08
1.64812e-05
2.5275e-07
6.43832e-08
3.37263e-05
5.07445e-07
4.0925e-08
4.39103e-05
7.59011e-07
1.80371e-08
4.99444e-05
9.37841e-07
-3.84991e-09
5.29709e-05
9.82013e-07
-2.86866e-08
5.3391e-05
8.51806e-07
-6.19203e-08
5.11247e-05
5.59339e-07
-1.07252e-07
4.55899e-05
2.14903e-07
-1.61134e-07
3.54165e-05
-1.40284e-07
1.74554e-05
2.14549e-07
9.79121e-08
3.37449e-05
7.20878e-07
1.20999e-07
7.69268e-05
1.37172e-06
8.43092e-08
0.000104584
2.00146e-06
3.97387e-08
0.00012144
2.44317e-06
-5.74782e-09
0.000129887
2.54594e-06
-5.72576e-08
0.000130861
2.21167e-06
-1.22956e-07
0.000124149
1.46773e-06
-2.05459e-07
0.000108346
5.64512e-07
-2.82351e-07
8.0524e-05
-2.19268e-07
3.55706e-05
3.2699e-07
9.37251e-08
4.38869e-05
1.07783e-06
1.2362e-07
0.000104453
2.02175e-06
9.07886e-08
0.000144952
2.92252e-06
4.46454e-08
0.000170162
3.54575e-06
-4.72864e-09
0.000182851
3.67939e-06
-6.0535e-08
0.000184169
3.18591e-06
-1.29098e-07
0.000173803
2.10539e-06
-2.09603e-07
0.000149938
7.98555e-07
-2.73481e-07
0.000109091
-2.00625e-07
4.61036e-05
3.98849e-07
5.56131e-08
4.9758e-05
1.3089e-06
7.5899e-08
0.000120893
2.44366e-06
5.73206e-08
0.000169613
3.51811e-06
2.88699e-08
0.000200356
4.25354e-06
-2.40526e-09
0.000215892
4.3996e-06
-3.76955e-08
0.000217405
3.79612e-06
-8.00717e-08
0.00020452
2.49645e-06
-1.27837e-07
0.000175267
9.38389e-07
-1.62252e-07
0.00012607
-1.15424e-07
5.21548e-05
4.33171e-07
4.48929e-14
5.24809e-05
1.42088e-06
1.45038e-13
0.000128608
2.64913e-06
2.39413e-13
0.000181307
3.808e-06
3.54375e-13
0.00021478
4.5967e-06
5.10898e-13
0.000231733
4.74643e-06
7.3617e-13
0.000233334
4.08704e-06
1.01491e-12
0.000219179
2.6802e-06
1.23984e-12
0.000187256
1.00276e-06
1.1678e-12
0.000134015
5.94254e-13
5.49495e-05
4.33171e-07
-5.5613e-08
5.24809e-05
1.42088e-06
-7.58987e-08
0.000128608
2.64913e-06
-5.73201e-08
0.000181307
3.808e-06
-2.88692e-08
0.00021478
4.5967e-06
2.40628e-09
0.000231733
4.74643e-06
3.76969e-08
0.000233334
4.08704e-06
8.00737e-08
0.000219179
2.6802e-06
1.27839e-07
0.000187256
1.00276e-06
1.62254e-07
0.000134015
1.15425e-07
5.49495e-05
3.98849e-07
-9.3725e-08
4.9758e-05
1.3089e-06
-1.2362e-07
0.000120893
2.44366e-06
-9.0788e-08
0.000169613
3.51811e-06
-4.46447e-08
0.000200356
4.25354e-06
4.7296e-09
0.000215892
4.3996e-06
6.05363e-08
0.000217405
3.79612e-06
1.29099e-07
0.00020452
2.49645e-06
2.09605e-07
0.000175267
9.38389e-07
2.73483e-07
0.00012607
2.00626e-07
5.21548e-05
3.2699e-07
-9.79119e-08
4.38869e-05
1.07783e-06
-1.20998e-07
0.000104453
2.02175e-06
-8.43087e-08
0.000144952
2.92252e-06
-3.9738e-08
0.000170162
3.54575e-06
5.74872e-09
0.000182851
3.67939e-06
5.72587e-08
0.000184169
3.18591e-06
1.22957e-07
0.000173803
2.10539e-06
2.0546e-07
0.000149938
7.98555e-07
2.82352e-07
0.000109091
2.19269e-07
4.61036e-05
2.1455e-07
-5.95799e-08
3.37449e-05
7.20878e-07
-6.43829e-08
7.69268e-05
1.37172e-06
-4.09246e-08
0.000104584
2.00146e-06
-1.80366e-08
0.00012144
2.44317e-06
3.85043e-09
0.000129887
2.54594e-06
2.86872e-08
0.000130861
2.21167e-06
6.1921e-08
0.000124149
1.46773e-06
1.07253e-07
0.000108346
5.64512e-07
1.61134e-07
8.0524e-05
1.40284e-07
3.55706e-05
6.63284e-08
1.64812e-05
2.5275e-07
3.37263e-05
5.07445e-07
4.39103e-05
7.59011e-07
4.99444e-05
9.37841e-07
5.29709e-05
9.82014e-07
5.3391e-05
8.51806e-07
5.11247e-05
5.5934e-07
4.55899e-05
2.14903e-07
3.54165e-05
1.74554e-05
1.07145e-07
8.20109e-08
1.6292e-05
3.91904e-07
8.75402e-08
3.3354e-05
7.81345e-07
5.5373e-08
4.34654e-05
1.18237e-06
2.53026e-08
4.9518e-05
1.50132e-06
-2.77034e-09
5.26547e-05
1.64213e-06
-3.47893e-08
5.3285e-05
1.51751e-06
-7.93724e-08
5.13287e-05
1.09072e-06
-1.44392e-07
4.61611e-05
4.78639e-07
-2.30626e-07
3.62592e-05
-2.02562e-07
1.81366e-05
3.27903e-07
1.32714e-07
3.33663e-05
1.08486e-06
1.62615e-07
7.60947e-05
2.06653e-06
1.13461e-07
0.000103544
3.05825e-06
5.62717e-08
0.000120417
3.83478e-06
-2.77173e-10
0.000129108
4.1616e-06
-6.38964e-08
0.000130563
3.82562e-06
-1.47646e-07
0.000124553
2.7405e-06
-2.60172e-07
0.000109547
1.17105e-06
-3.78586e-07
8.22414e-05
-3.00695e-07
3.68398e-05
4.90853e-07
1.25795e-07
4.3403e-05
1.6009e-06
1.64918e-07
0.000103341
3.01242e-06
1.21823e-07
0.000143532
4.41954e-06
6.3687e-08
0.000168747
5.50582e-06
3.60975e-09
0.000181761
5.94199e-06
-6.33333e-08
0.000183732
5.43108e-06
-1.4753e-07
0.000174314
3.85936e-06
-2.52901e-07
0.000151502
1.61936e-06
-3.48558e-07
0.000111301
-2.63152e-07
4.76854e-05
5.93626e-07
7.42333e-08
4.92159e-05
1.93075e-06
1.00845e-07
0.00011962
3.61882e-06
7.68038e-08
0.00016797
5.28874e-06
4.13719e-08
0.000198708
6.56431e-06
3.8062e-09
0.000214616
7.05716e-06
-3.77968e-08
0.000216886
6.42151e-06
-8.86525e-08
0.000205097
4.53567e-06
-1.4954e-07
0.000177049
1.8849e-06
-2.00235e-07
0.000128573
-1.46976e-07
5.39235e-05
6.42426e-07
4.37562e-15
5.19127e-05
2.0896e-06
6.35954e-14
0.000127261
3.91225e-06
1.01317e-13
0.000179561
5.70903e-06
1.32895e-13
0.000213025
7.07399e-06
1.78862e-13
0.000230372
7.5904e-06
2.67798e-13
0.000232779
6.89055e-06
4.27069e-13
0.00021979
4.85197e-06
6.62811e-13
0.000189145
2.00735e-06
8.35242e-13
0.00013666
5.02674e-13
5.68099e-05
6.42425e-07
-7.42333e-08
5.19127e-05
2.0896e-06
-1.00845e-07
0.000127261
3.91225e-06
-7.68036e-08
0.000179561
5.70903e-06
-4.13716e-08
0.000213025
7.07399e-06
-3.80582e-09
0.000230372
7.5904e-06
3.77973e-08
0.000232779
6.89055e-06
8.86533e-08
0.00021979
4.85197e-06
1.49541e-07
0.000189145
2.00735e-06
2.00236e-07
0.00013666
1.46977e-07
5.68099e-05
5.93626e-07
-1.25795e-07
4.92159e-05
1.93075e-06
-1.64918e-07
0.00011962
3.61882e-06
-1.21823e-07
0.00016797
5.28874e-06
-6.36867e-08
0.000198708
6.56431e-06
-3.6093e-09
0.000214616
7.05716e-06
6.33339e-08
0.000216886
6.42151e-06
1.47531e-07
0.000205097
4.53567e-06
2.52903e-07
0.000177049
1.8849e-06
3.4856e-07
0.000128573
2.63153e-07
5.39235e-05
4.90853e-07
-1.32714e-07
4.3403e-05
1.6009e-06
-1.62614e-07
0.000103341
3.01242e-06
-1.13461e-07
0.000143532
4.41954e-06
-5.62711e-08
0.000168747
5.50582e-06
2.77792e-10
0.000181761
5.94199e-06
6.38972e-08
0.000183732
5.43108e-06
1.47647e-07
0.000174314
3.85936e-06
2.60173e-07
0.000151502
1.61936e-06
3.78587e-07
0.000111301
3.00696e-07
4.76854e-05
3.27903e-07
-8.20108e-08
3.33663e-05
1.08486e-06
-8.75399e-08
7.60947e-05
2.06653e-06
-5.53726e-08
0.000103544
3.05825e-06
-2.53021e-08
0.000120417
3.83477e-06
2.77094e-09
0.000129108
4.1616e-06
3.479e-08
0.000130563
3.82562e-06
7.93732e-08
0.000124553
2.74051e-06
1.44392e-07
0.000109547
1.17105e-06
2.30627e-07
8.22415e-05
2.02562e-07
3.68398e-05
1.07146e-07
1.6292e-05
3.91904e-07
3.3354e-05
7.81345e-07
4.34654e-05
1.18237e-06
4.9518e-05
1.50132e-06
5.26547e-05
1.64213e-06
5.3285e-05
1.51751e-06
5.13287e-05
1.09072e-06
4.61611e-05
4.78639e-07
3.62592e-05
1.81366e-05
1.60549e-07
1.07128e-07
1.60243e-05
5.70364e-07
1.13294e-07
3.28309e-05
1.13576e-06
7.19115e-08
4.28281e-05
1.74748e-06
3.52752e-08
4.88711e-05
2.29346e-06
2.80161e-09
5.21059e-05
2.6408e-06
-3.32808e-08
5.29709e-05
2.62761e-06
-8.50398e-08
5.14269e-05
2.09285e-06
-1.66903e-07
4.68628e-05
1.04652e-06
-2.90911e-07
3.75964e-05
-2.50304e-07
1.94334e-05
4.70364e-07
1.70896e-07
3.28321e-05
1.53961e-06
2.08188e-07
7.49306e-05
2.9468e-06
1.46625e-07
0.000102062
4.44147e-06
7.88787e-08
0.000118879
5.75227e-06
1.61256e-08
0.000127784
6.55288e-06
-5.10508e-08
0.00012978
6.44944e-06
-1.40419e-07
0.000124712
5.06556e-06
-2.70184e-07
0.000111034
2.42832e-06
-4.28416e-07
8.50162e-05
-3.44883e-07
3.93627e-05
6.93668e-07
1.60527e-07
4.27197e-05
2.24627e-06
2.09734e-07
0.000101786
4.25358e-06
1.57064e-07
0.000141514
6.35787e-06
8.97393e-08
0.000166632
8.17669e-06
2.5014e-08
0.000179933
9.2511e-06
-4.24611e-08
0.000182649
9.03399e-06
-1.26492e-07
0.000174517
7.01981e-06
-2.38864e-07
0.000153485
3.3015e-06
-3.5869e-07
0.000114949
-2.78178e-07
5.09202e-05
8.32904e-07
9.42549e-08
4.84493e-05
2.69295e-06
1.27788e-07
0.000117842
5.08205e-06
9.89189e-08
0.000165639
7.56751e-06
5.84842e-08
0.000196254
9.69381e-06
1.87368e-08
0.000212496
1.09195e-05
-2.20312e-08
0.00021564
1.06079e-05
-7.06671e-08
0.000205353
8.18874e-06
-1.32293e-07
0.000179362
3.81775e-06
-1.93173e-07
0.000132778
-1.46461e-07
5.76095e-05
8.98694e-07
-2.25171e-14
5.11082e-05
2.9069e-06
1.06191e-14
0.000125381
5.4807e-06
3.99477e-15
0.000177087
8.14904e-06
-4.56637e-14
0.000210415
1.042e-05
-1.49964e-13
0.000228119
1.17126e-05
-3.00112e-13
0.000231465
1.13495e-05
-4.12665e-13
0.000220083
8.73434e-06
-2.80937e-13
0.000191628
4.057e-06
-7.26654e-14
0.000141144
4.84284e-14
6.07204e-05
8.98694e-07
-9.42549e-08
5.11082e-05
2.9069e-06
-1.27788e-07
0.000125381
5.4807e-06
-9.89188e-08
0.000177087
8.14904e-06
-5.84842e-08
0.000210415
1.042e-05
-1.8737e-08
0.000228119
1.17126e-05
2.20306e-08
0.000231465
1.13495e-05
7.06664e-08
0.000220083
8.73434e-06
1.32293e-07
0.000191628
4.057e-06
1.93173e-07
0.000141144
1.46461e-07
6.07204e-05
8.32904e-07
-1.60527e-07
4.84493e-05
2.69295e-06
-2.09734e-07
0.000117842
5.08205e-06
-1.57064e-07
0.000165639
7.56751e-06
-8.97392e-08
0.000196254
9.69381e-06
-2.50141e-08
0.000212496
1.09195e-05
4.24609e-08
0.00021564
1.06079e-05
1.26491e-07
0.000205353
8.18874e-06
2.38864e-07
0.000179362
3.81775e-06
3.5869e-07
0.000132778
2.78178e-07
5.76095e-05
6.93667e-07
-1.70896e-07
4.27197e-05
2.24627e-06
-2.08188e-07
0.000101786
4.25358e-06
-1.46624e-07
0.000141514
6.35786e-06
-7.88782e-08
0.000166632
8.17669e-06
-1.61251e-08
0.000179933
9.2511e-06
5.10512e-08
0.000182649
9.03399e-06
1.4042e-07
0.000174517
7.01981e-06
2.70184e-07
0.000153485
3.3015e-06
4.28417e-07
0.000114949
3.44884e-07
5.09203e-05
4.70364e-07
-1.07128e-07
3.28321e-05
1.53961e-06
-1.13294e-07
7.49306e-05
2.9468e-06
-7.1911e-08
0.000102062
4.44146e-06
-3.52746e-08
0.000118879
5.75227e-06
-2.80099e-09
0.000127784
6.55288e-06
3.32814e-08
0.00012978
6.44943e-06
8.50401e-08
0.000124712
5.06555e-06
1.66903e-07
0.000111034
2.42832e-06
2.90911e-07
8.50162e-05
2.50305e-07
3.93627e-05
1.60549e-07
1.60243e-05
5.70363e-07
3.28309e-05
1.13576e-06
4.28281e-05
1.74748e-06
4.88711e-05
2.29346e-06
5.21059e-05
2.6408e-06
5.29709e-05
2.62761e-06
5.14269e-05
2.09285e-06
4.68628e-05
1.04652e-06
3.75964e-05
1.94334e-05
2.22107e-07
1.31861e-07
1.56704e-05
7.73172e-07
1.38659e-07
3.21412e-05
1.54502e-06
8.91824e-08
4.19671e-05
2.42751e-06
4.85157e-08
4.794e-05
3.31163e-06
1.62684e-08
5.12055e-05
4.0496e-06
-1.56912e-08
5.22487e-05
4.40524e-06
-6.12333e-08
5.11325e-05
4.0012e-06
-1.4268e-07
4.74095e-05
2.38006e-06
-2.92146e-07
3.95097e-05
-2.57046e-07
2.20705e-05
6.28407e-07
2.07656e-07
3.21279e-05
2.04291e-06
2.52296e-07
7.34025e-05
3.94093e-06
1.80902e-07
0.000100072
6.0708e-06
1.08241e-07
0.000116689
8.16278e-06
4.98551e-08
0.000125658
9.84588e-06
-1.4026e-09
0.000128083
1.05407e-05
-6.23038e-08
0.000124018
9.36089e-06
-1.57067e-07
0.000112228
5.30728e-06
-2.99232e-07
8.90769e-05
-2.30986e-07
4.46439e-05
9.15306e-07
1.93496e-07
4.18185e-05
2.95153e-06
2.52672e-07
9.97498e-05
5.63904e-06
1.93332e-07
0.000138814
8.615e-06
1.23136e-07
0.000163641
1.14945e-05
6.55939e-08
0.000177038
1.37506e-05
1.93605e-08
0.000180372
1.45759e-05
-2.633e-08
0.000173656
1.27769e-05
-8.6754e-08
0.000155214
7.11045e-06
-1.67548e-07
0.000120484
-1.18116e-07
5.79178e-05
1.09249e-06
1.13111e-07
4.74372e-05
3.52038e-06
1.53468e-07
0.000115513
6.70518e-06
1.21638e-07
0.000162526
1.02047e-05
8.02626e-08
0.000192797
1.35571e-05
4.5914e-08
0.000209163
1.61379e-05
1.98446e-08
0.000213059
1.70067e-05
-2.44691e-09
0.00020446
1.4805e-05
-2.79238e-08
0.000181505
8.17885e-06
-6.02746e-08
0.000139297
-3.84339e-08
6.57087e-05
1.17587e-06
-1.39269e-14
5.00455e-05
3.79164e-06
3.54594e-14
0.000122919
7.21581e-06
8.11168e-15
0.000173784
1.09653e-05
-1.20886e-13
0.000206746
1.45396e-05
-3.81506e-13
0.000224591
1.72677e-05
-7.66722e-13
0.000228756
1.81486e-05
-1.14664e-12
0.000219199
1.57518e-05
-1.62242e-12
0.000193997
8.67756e-06
-1.58714e-12
0.000148158
-9.92645e-13
6.93595e-05
1.17587e-06
-1.13111e-07
5.00455e-05
3.79164e-06
-1.53468e-07
0.000122919
7.21581e-06
-1.21638e-07
0.000173784
1.09653e-05
-8.02628e-08
0.000206746
1.45396e-05
-4.59147e-08
0.000224591
1.72677e-05
-1.98459e-08
0.000228756
1.81486e-05
2.44469e-09
0.000219199
1.57518e-05
2.79206e-08
0.000193997
8.67756e-06
6.02714e-08
0.000148158
3.8432e-08
6.93595e-05
1.09248e-06
-1.93496e-07
4.74372e-05
3.52038e-06
-2.52672e-07
0.000115513
6.70518e-06
-1.93332e-07
0.000162526
1.02047e-05
-1.23136e-07
0.000192797
1.35571e-05
-6.55943e-08
0.000209163
1.61379e-05
-1.93615e-08
0.000213059
1.70067e-05
2.63283e-08
0.00020446
1.4805e-05
8.67511e-08