/*--------------------------------*- C++ -*----------------------------------*\
  =========                 |
  \\      /  F ield         | OpenFOAM: The Open Source CFD Toolbox
   \\    /   O peration     | Website:  https://openfoam.org
    \\  /    A nd           | Version:  6
     \\/     M anipulation  |
\*---------------------------------------------------------------------------*/
FoamFile
{
    version     2.0;
    format      ascii;
    class       volVectorField;
    location    "0.05";
    object      U;
}
// * * * * * * * * * * * * * * * * * * * * * * * * * * * * * * * * * * * * * //

dimensions      [0 1 -1 0 0 0 0];

internalField   nonuniform List<vector> 
7000
(
(-3.69496e-06 1.14312e-05 0.167764)
(3.09944e-05 1.165e-05 0.34328)
(0.000105233 6.54002e-06 0.446168)
(0.000190601 2.96699e-06 0.505652)
(0.000250675 -2.53619e-07 0.53329)
(0.00026053 -3.77953e-06 0.533412)
(0.000213009 -7.81321e-06 0.505924)
(0.000124793 -1.284e-05 0.446366)
(3.86476e-05 -1.9641e-05 0.343211)
(-5.14061e-06 -1.7726e-05 0.167524)
(5.94534e-06 4.2088e-05 0.343414)
(0.000124526 5.27233e-05 0.782854)
(0.000335715 3.69469e-05 1.06251)
(0.000563395 1.72775e-05 1.22949)
(0.000721191 -2.64335e-06 1.30801)
(0.000748652 -2.38968e-05 1.30834)
(0.000627222 -4.82441e-05 1.23026)
(0.000394876 -7.4687e-05 1.06317)
(0.000151309 -9.38041e-05 0.782905)
(6.40353e-06 -6.87359e-05 0.343021)
(1.35729e-05 5.27111e-05 0.446469)
(0.000206806 7.12645e-05 1.06274)
(0.000529968 5.26612e-05 1.4724)
(0.000869132 2.50483e-05 1.72269)
(0.00110111 -4.93916e-06 1.84165)
(0.00114133 -3.73607e-05 1.84213)
(0.000962954 -7.32177e-05 1.72378)
(0.000617595 -0.000109019 1.47334)
(0.000246585 -0.000129216 1.06282)
(1.45315e-05 -8.77487e-05 0.445924)
(1.8604e-05 4.20897e-05 0.506042)
(0.000263156 5.91431e-05 1.22976)
(0.000663234 4.51048e-05 1.72267)
(0.001078 2.15747e-05 2.02826)
(0.00135959 -4.92902e-06 2.17461)
(0.00140734 -3.37225e-05 2.17515)
(0.00118932 -6.49842e-05 2.02951)
(0.000766874 -9.47366e-05 1.7237)
(0.000309472 -0.000108633 1.22976)
(1.94642e-05 -7.09393e-05 0.505327)
(2.08796e-05 1.58224e-05 0.533643)
(0.000291018 2.2643e-05 1.30809)
(0.000729807 1.74825e-05 1.84131)
(0.00118261 8.37355e-06 2.17421)
(0.00148892 -2.05512e-06 2.33424)
(0.00154002 -1.34165e-05 2.33481)
(0.00130159 -2.56363e-05 2.17551)
(0.000840175 -3.70087e-05 1.84233)
(0.000339699 -4.1845e-05 1.30799)
(2.14684e-05 -2.68319e-05 0.532818)
(2.08795e-05 -1.5823e-05 0.533643)
(0.000291018 -2.26446e-05 1.30809)
(0.000729807 -1.74847e-05 1.84131)
(0.00118261 -8.37623e-06 2.17421)
(0.00148892 2.0522e-06 2.33424)
(0.00154002 1.34135e-05 2.33481)
(0.00130159 2.56334e-05 2.17551)
(0.000840175 3.70061e-05 1.84233)
(0.000339699 4.18431e-05 1.30799)
(2.14685e-05 2.68312e-05 0.532818)
(1.86039e-05 -4.20899e-05 0.506042)
(0.000263155 -5.91441e-05 1.22976)
(0.000663234 -4.51066e-05 1.72267)
(0.001078 -2.15769e-05 2.02826)
(0.00135959 4.92636e-06 2.17461)
(0.00140734 3.37197e-05 2.17515)
(0.00118932 6.49814e-05 2.02951)
(0.000766874 9.47341e-05 1.7237)
(0.000309472 0.000108631 1.22976)
(1.94643e-05 7.09385e-05 0.505327)
(1.35727e-05 -5.271e-05 0.446469)
(0.000206805 -7.12647e-05 1.06274)
(0.000529967 -5.26624e-05 1.4724)
(0.000869131 -2.50502e-05 1.72269)
(0.00110111 4.93665e-06 1.84165)
(0.00114133 3.73579e-05 1.84213)
(0.000962954 7.32147e-05 1.72378)
(0.000617595 0.000109016 1.47334)
(0.000246585 0.000129214 1.06282)
(1.45314e-05 8.7748e-05 0.445924)
(5.94377e-06 -4.20848e-05 0.343414)
(0.000124524 -5.27224e-05 0.782854)
(0.000335714 -3.6947e-05 1.06251)
(0.000563394 -1.72783e-05 1.22949)
(0.00072119 2.64196e-06 1.30801)
(0.000748651 2.38949e-05 1.30834)
(0.000627221 4.82422e-05 1.23026)
(0.000394875 7.4685e-05 1.06317)
(0.000151309 9.38022e-05 0.782905)
(6.40435e-06 6.87355e-05 0.343021)
(-3.69817e-06 -1.14283e-05 0.167764)
(3.09908e-05 -1.16489e-05 0.34328)
(0.000105231 -6.53983e-06 0.446168)
(0.0001906 -2.96707e-06 0.505652)
(0.000250674 2.53345e-07 0.53329)
(0.000260529 3.77909e-06 0.533412)
(0.000213009 7.81269e-06 0.505924)
(0.000124793 1.28395e-05 0.446366)
(3.8648e-05 1.96407e-05 0.343211)
(-5.13988e-06 1.7726e-05 0.167524)
(-1.07889e-05 3.6329e-05 0.167685)
(0.000105158 3.6271e-05 0.343107)
(0.00034708 2.12742e-05 0.445964)
(0.000624982 9.28924e-06 0.505487)
(0.000824565 -1.27544e-06 0.533222)
(0.00086376 -1.23613e-05 0.533476)
(0.000715853 -2.57981e-05 0.506116)
(0.000430664 -4.29411e-05 0.446631)
(0.000143135 -6.42364e-05 0.343455)
(-1.36087e-05 -5.84421e-05 0.167644)
(2.02553e-05 0.000134037 0.343252)
(0.000410658 0.000167686 0.782458)
(0.00109564 0.000117531 1.06203)
(0.00183611 5.45391e-05 1.22908)
(0.00235877 -9.40906e-06 1.30783)
(0.00246556 -7.80551e-05 1.30847)
(0.00208775 -0.000157495 1.23068)
(0.00133701 -0.000244721 1.06375)
(0.000529509 -0.000308551 0.783414)
(2.66987e-05 -0.000226996 0.343237)
(4.54063e-05 0.000167464 0.446265)
(0.000677151 0.000225893 1.0622)
(0.0017235 0.000167146 1.47173)
(0.00282511 7.90741e-05 1.72211)
(0.00359262 -1.68292e-05 1.84138)
(0.00374779 -0.000121112 1.84228)
(0.00319161 -0.000237418 1.72432)
(0.00207643 -0.000354693 1.47408)
(0.000850016 -0.000421639 1.06345)
(5.49908e-05 -0.000287602 0.446166)
(6.16425e-05 0.000133406 0.505819)
(0.000859255 0.000187283 1.22915)
(0.00215358 0.000142854 1.72189)
(0.00350009 6.81647e-05 2.02758)
(0.00443071 -1.63954e-05 2.17427)
(0.00461451 -0.000108897 2.1753)
(0.00393374 -0.000209921 2.0301)
(0.00256964 -0.000306768 1.72451)
(0.00106002 -0.00035292 1.23043)
(7.168e-05 -0.000231267 0.505566)
(6.90342e-05 5.01382e-05 0.533413)
(0.00094935 7.16811e-05 1.30745)
(0.00236844 5.53881e-05 1.84048)
(0.003838 2.65141e-05 2.17349)
(0.00484972 -6.75566e-06 2.33388)
(0.00504633 -4.32489e-05 2.33495)
(0.00430133 -8.27034e-05 2.17611)
(0.00281143 -0.000119635 1.84316)
(0.00116078 -0.000135663 1.30868)
(7.85058e-05 -8.7292e-05 0.53305)
(6.90342e-05 -5.0138e-05 0.533413)
(0.00094935 -7.16806e-05 1.30745)
(0.00236844 -5.53873e-05 1.84048)
(0.003838 -2.65129e-05 2.17349)
(0.00484972 6.75739e-06 2.33388)
(0.00504633 4.32512e-05 2.33495)
(0.00430133 8.2706e-05 2.17611)
(0.00281143 0.000119638 1.84316)
(0.00116078 0.000135665 1.30868)
(7.85058e-05 8.72929e-05 0.53305)
(6.16425e-05 -0.000133405 0.505819)
(0.000859255 -0.000187282 1.22915)
(0.00215358 -0.000142853 1.72189)
(0.00350009 -6.81634e-05 2.02758)
(0.00443071 1.63971e-05 2.17427)
(0.00461451 0.000108899 2.1753)
(0.00393374 0.000209924 2.0301)
(0.00256964 0.000306771 1.72451)
(0.00106002 0.000352922 1.23043)
(7.168e-05 0.000231268 0.505566)
(4.54062e-05 -0.000167463 0.446265)
(0.000677151 -0.000225892 1.0622)
(0.0017235 -0.000167144 1.47173)
(0.00282511 -7.90726e-05 1.72211)
(0.00359262 1.68307e-05 1.84138)
(0.00374779 0.000121114 1.84228)
(0.00319161 0.00023742 1.72432)
(0.00207643 0.000354695 1.47408)
(0.000850016 0.00042164 1.06345)
(5.49908e-05 0.000287602 0.446166)
(2.02549e-05 -0.000134035 0.343252)
(0.000410658 -0.000167684 0.782458)
(0.00109564 -0.00011753 1.06203)
(0.00183611 -5.45379e-05 1.22908)
(0.00235877 9.40993e-06 1.30783)
(0.00246556 7.80558e-05 1.30847)
(0.00208775 0.000157496 1.23068)
(0.00133701 0.000244722 1.06375)
(0.000529509 0.000308552 0.783414)
(2.66984e-05 0.000226996 0.343237)
(-1.07897e-05 -3.63277e-05 0.167685)
(0.000105157 -3.627e-05 0.343107)
(0.000347079 -2.12736e-05 0.445964)
(0.000624981 -9.28885e-06 0.505487)
(0.000824564 1.27563e-06 0.533222)
(0.00086376 1.23613e-05 0.533476)
(0.000715853 2.5798e-05 0.506116)
(0.000430664 4.29409e-05 0.446631)
(0.000143135 6.4236e-05 0.343455)
(-1.36089e-05 5.84419e-05 0.167644)
(-1.3928e-05 6.7587e-05 0.1675)
(0.000233131 6.70462e-05 0.34271)
(0.000720216 3.92062e-05 0.445498)
(0.00127682 1.6619e-05 0.505105)
(0.00168791 -3.29169e-06 0.533057)
(0.00179296 -2.42844e-05 0.533609)
(0.00152678 -5.04716e-05 0.506544)
(0.000965534 -8.45077e-05 0.447244)
(0.000362794 -0.000127594 0.344039)
(-1.06346e-05 -0.000115754 0.167946)
(4.99078e-05 0.000249324 0.342877)
(0.000843753 0.000308992 0.781554)
(0.00219882 0.000214513 1.06092)
(0.00366579 9.81289e-05 1.22814)
(0.00473112 -1.97053e-05 1.30739)
(0.00500797 -0.000147628 1.30873)
(0.00433098 -0.000298901 1.23161)
(0.00286718 -0.000469934 1.06508)
(0.00120759 -0.00060236 0.784623)
(8.42762e-05 -0.000449609 0.343776)
(9.96884e-05 0.000308589 0.445791)
(0.00136128 0.000412967 1.06099)
(0.0034124 0.000303527 1.47021)
(0.0055799 0.000142328 1.7208)
(0.00713396 -3.27524e-05 1.84073)
(0.00753118 -0.00022496 1.84256)
(0.00653504 -0.000443527 1.72552)
(0.00437219 -0.000670199 1.47578)
(0.0018779 -0.000808299 1.06495)
(0.000146702 -0.000558907 0.446776)
(0.000131239 0.000244364 0.505296)
(0.00171046 0.000340856 1.22777)
(0.00423455 0.000258612 1.72012)
(0.0068728 0.000122781 2.02603)
(0.0087489 -3.07165e-05 2.17348)
(0.00921727 -0.000200129 2.17557)
(0.00799752 -0.000388428 2.0314)
(0.00536014 -0.000573805 1.72637)
(0.0023083 -0.00066899 1.23203)
(0.000182557 -0.000443892 0.506179)
(0.000145572 9.16028e-05 0.53287)
(0.00188224 0.000130194 1.30599)
(0.00464305 0.000100154 1.83859)
(0.00751657 4.77984e-05 2.17182)
(0.00955174 -1.24407e-05 2.333)
(0.0100522 -7.90762e-05 2.33521)
(0.00871693 -0.000152334 2.17745)
(0.00584065 -0.000222694 1.84508)
(0.00251296 -0.000255759 1.31031)
(0.000197251 -0.000166563 0.533653)
(0.000145572 -9.16021e-05 0.53287)
(0.00188224 -0.000130193 1.30599)
(0.00464305 -0.000100151 1.83859)
(0.00751657 -4.77942e-05 2.17182)
(0.00955174 1.24461e-05 2.333)
(0.0100522 7.9083e-05 2.33521)
(0.00871693 0.000152341 2.17745)
(0.00584065 0.000222702 1.84508)
(0.00251296 0.000255765 1.31031)
(0.000197251 0.000166565 0.533653)
(0.000131239 -0.000244364 0.505296)
(0.00171046 -0.000340854 1.22777)
(0.00423455 -0.000258609 1.72012)
(0.0068728 -0.000122777 2.02603)
(0.0087489 3.07214e-05 2.17348)
(0.00921727 0.000200135 2.17557)
(0.00799752 0.000388435 2.0314)
(0.00536014 0.000573811 1.72637)
(0.00230831 0.000668995 1.23203)
(0.000182557 0.000443894 0.506179)
(9.96883e-05 -0.000308588 0.445791)
(0.00136128 -0.000412965 1.06099)
(0.0034124 -0.000303525 1.47021)
(0.0055799 -0.000142324 1.7208)
(0.00713396 3.27561e-05 1.84073)
(0.00753118 0.000224965 1.84256)
(0.00653504 0.000443531 1.72552)
(0.00437219 0.000670203 1.47578)
(0.00187791 0.000808302 1.06495)
(0.000146703 0.000558909 0.446776)
(4.99074e-05 -0.000249323 0.342877)
(0.000843752 -0.00030899 0.781554)
(0.00219882 -0.000214511 1.06092)
(0.00366579 -9.81265e-05 1.22814)
(0.00473112 1.97077e-05 1.30739)
(0.00500797 0.000147631 1.30873)
(0.00433098 0.000298903 1.23161)
(0.00286718 0.000469936 1.06508)
(0.00120759 0.000602362 0.784623)
(8.42772e-05 0.000449609 0.343776)
(-1.39283e-05 -6.75866e-05 0.1675)
(0.00023313 -6.70453e-05 0.34271)
(0.000720216 -3.92053e-05 0.445498)
(0.00127682 -1.66181e-05 0.505105)
(0.00168791 3.2924e-06 0.533057)
(0.00179296 2.4285e-05 0.533609)
(0.00152678 5.04722e-05 0.506544)
(0.000965535 8.45082e-05 0.447244)
(0.000362795 0.000127594 0.344039)
(-1.0634e-05 0.000115754 0.167946)
(-9.21563e-06 0.000109266 0.167151)
(0.000457808 0.000107943 0.341979)
(0.00132753 6.23764e-05 0.444644)
(0.00231945 2.56105e-05 0.504392)
(0.00308108 -6.96965e-06 0.53272)
(0.00333602 -4.19092e-05 0.533805)
(0.00294073 -8.68172e-05 0.507299)
(0.00197242 -0.000146471 0.448388)
(0.000838491 -0.000225463 0.345188)
(2.39199e-05 -0.000202421 0.168583)
(0.00010748 0.000402942 0.34217)
(0.00153603 0.000493279 0.779897)
(0.00390647 0.000338317 1.0589)
(0.00648567 0.000152678 1.2264)
(0.00843456 -3.44116e-05 1.30651)
(0.00908729 -0.000240599 1.30908)
(0.00808469 -0.000491826 1.23324)
(0.00558518 -0.000787855 1.06754)
(0.00253019 -0.00103562 0.786978)
(0.000231306 -0.000788971 0.344904)
(0.000194211 0.000492627 0.444895)
(0.00241946 0.000652607 1.05877)
(0.00596806 0.000475743 1.46743)
(0.00974669 0.000221991 1.71835)
(0.0125662 -5.22282e-05 1.83943)
(0.0134921 -0.000356973 1.84293)
(0.0120139 -0.00071294 1.72758)
(0.00834261 -0.00109722 1.47892)
(0.00380646 -0.00135354 1.06787)
(0.000358756 -0.000954706 0.44807)
(0.000248173 0.000387088 0.504304)
(0.00300623 0.000535468 1.22523)
(0.00734538 0.000403875 1.71689)
(0.0119204 0.000191908 2.02316)
(0.0153059 -4.65042e-05 2.1719)
(0.016393 -0.000312472 2.1759)
(0.0145786 -0.000615429 2.03366)
(0.0101178 -0.000925391 1.72982)
(0.00460697 -0.00110169 1.23519)
(0.000430417 -0.000744839 0.507508)
(0.000272601 0.000144595 0.53184)
(0.00329279 0.000203971 1.30331)
(0.00802493 0.000156169 1.83516)
(0.0129952 7.4812e-05 2.16874)
(0.016658 -1.8378e-05 2.33129)
(0.0178182 -0.000122495 2.3355)
(0.0158293 -0.000239665 2.17978)
(0.0109729 -0.000356513 1.84865)
(0.00498378 -0.000417753 1.31355)
(0.000460044 -0.000277079 0.534982)
(0.000272601 -0.000144594 0.53184)
(0.00329279 -0.000203968 1.30331)
(0.00802493 -0.000156164 1.83516)
(0.0129952 -7.48049e-05 2.16874)
(0.016658 1.83875e-05 2.33129)
(0.0178182 0.000122507 2.3355)
(0.0158293 0.000239679 2.17978)
(0.0109729 0.000356528 1.84865)
(0.00498378 0.000417766 1.31355)
(0.000460044 0.000277084 0.534982)
(0.000248173 -0.000387086 0.504304)
(0.00300624 -0.000535465 1.22523)
(0.00734538 -0.00040387 1.71689)
(0.0119204 -0.000191902 2.02316)
(0.0153059 4.65131e-05 2.1719)
(0.016393 0.000312483 2.1759)
(0.0145786 0.000615443 2.03366)
(0.0101178 0.000925405 1.72982)
(0.00460698 0.0011017 1.23519)
(0.000430417 0.000744844 0.507508)
(0.000194212 -0.000492625 0.444895)
(0.00241946 -0.000652604 1.05877)
(0.00596806 -0.000475738 1.46743)
(0.00974669 -0.000221985 1.71835)
(0.0125662 5.22359e-05 1.83943)
(0.0134921 0.000356982 1.84293)
(0.0120139 0.000712951 1.72758)
(0.00834261 0.00109723 1.47892)
(0.00380646 0.00135355 1.06787)
(0.000358756 0.00095471 0.44807)
(0.00010748 -0.00040294 0.34217)
(0.00153603 -0.000493276 0.779897)
(0.00390647 -0.000338313 1.0589)
(0.00648567 -0.000152673 1.2264)
(0.00843457 3.44167e-05 1.30651)
(0.00908729 0.000240605 1.30908)
(0.00808469 0.000491832 1.23324)
(0.00558518 0.000787861 1.06754)
(0.00253019 0.00103562 0.786978)
(0.000231306 0.000788973 0.344904)
(-9.21531e-06 -0.000109265 0.167151)
(0.000457809 -0.000107942 0.341979)
(0.00132753 -6.23748e-05 0.444644)
(0.00231945 -2.56089e-05 0.504392)
(0.00308108 6.9712e-06 0.53272)
(0.00333602 4.19107e-05 0.533805)
(0.00294073 8.68186e-05 0.507299)
(0.00197242 0.000146472 0.448388)
(0.000838492 0.000225463 0.345188)
(2.39195e-05 0.000202421 0.168583)
(8.89576e-06 0.00016479 0.166543)
(0.000829392 0.000162395 0.340738)
(0.00228777 9.25664e-05 0.443198)
(0.0039587 3.69578e-05 0.503153)
(0.00530685 -1.27077e-05 0.532065)
(0.00588605 -6.72727e-05 0.534022)
(0.00540206 -0.000139811 0.508493)
(0.0038624 -0.000238678 0.450359)
(0.00184429 -0.000377461 0.347312)
(0.00014192 -0.000331034 0.169862)
(0.000208097 0.000607671 0.340947)
(0.00261199 0.000734374 0.7771)
(0.00650867 0.000497966 1.05549)
(0.0107943 0.000223758 1.22339)
(0.0141991 -5.05407e-05 1.30482)
(0.0156482 -0.000357824 1.3094)
(0.0144128 -0.000745929 1.23577)
(0.0104694 -0.00122731 1.07173)
(0.00513665 -0.00166907 0.791287)
(0.000586621 -0.00130348 0.347164)
(0.000349563 0.000733054 0.44334)
(0.00402518 0.000960975 1.05502)
(0.00979467 0.000695912 1.46275)
(0.0160188 0.000327235 1.71414)
(0.0209025 -6.76807e-05 1.83698)
(0.0229383 -0.000511872 1.84318)
(0.0210966 -0.00104747 1.7308)
(0.0153308 -0.00165524 1.48427)
(0.00750301 -0.00210662 1.07324)
(0.000845589 -0.00152414 0.450705)
(0.00043611 0.000571148 0.502577)
(0.00494909 0.000783406 1.22095)
(0.0119587 0.000588714 1.71146)
(0.0194534 0.000284094 2.01821)
(0.0252848 -5.54668e-05 2.16895)
(0.0276669 -0.000437938 2.17605)
(0.0253854 -0.000886261 2.03719)
(0.0183999 -0.00136753 1.73574)
(0.0089553 -0.00167624 1.24105)
(0.000989848 -0.00116165 0.51028)
(0.000475161 0.000212521 0.530038)
(0.00539691 0.000297527 1.29878)
(0.0130186 0.000227299 1.82938)
(0.0211392 0.000111011 2.16344)
(0.0274312 -2.10028e-05 2.3281)
(0.0299712 -0.00016975 2.33559)
(0.0274585 -0.000341736 2.18343)
(0.0198643 -0.0005215 1.8548)
(0.00963311 -0.000628563 1.3196)
(0.00105069 -0.0004272 0.537799)
(0.000475161 -0.000212519 0.530038)
(0.00539691 -0.000297523 1.29878)
(0.0130186 -0.000227293 1.82938)
(0.0211392 -0.000111002 2.16344)
(0.0274312 2.10147e-05 2.3281)
(0.0299712 0.000169766 2.33559)
(0.0274585 0.000341756 2.18343)
(0.0198643 0.000521523 1.8548)
(0.00963312 0.000628584 1.3196)
(0.00105069 0.00042721 0.537799)
(0.00043611 -0.000571147 0.502577)
(0.00494909 -0.000783402 1.22095)
(0.0119587 -0.000588708 1.71146)
(0.0194534 -0.000284086 2.01821)
(0.0252849 5.54777e-05 2.16895)
(0.0276669 0.000437953 2.17605)
(0.0253854 0.00088628 2.03719)
(0.0183999 0.00136755 1.73574)
(0.0089553 0.00167625 1.24105)
(0.000989847 0.00116166 0.51028)
(0.000349563 -0.000733053 0.44334)
(0.00402518 -0.000960972 1.05502)
(0.00979467 -0.000695907 1.46275)
(0.0160188 -0.000327228 1.71414)
(0.0209025 6.76896e-05 1.83698)
(0.0229384 0.000511884 1.84318)
(0.0210966 0.00104748 1.7308)
(0.0153309 0.00165526 1.48427)
(0.00750301 0.00210663 1.07324)
(0.000845588 0.00152414 0.450705)
(0.000208097 -0.00060767 0.340947)
(0.00261199 -0.000734371 0.7771)
(0.00650867 -0.000497962 1.05549)
(0.0107943 -0.000223753 1.22339)
(0.0141991 5.05467e-05 1.30482)
(0.0156482 0.000357831 1.3094)
(0.0144128 0.000745937 1.23577)
(0.0104694 0.00122732 1.07173)
(0.00513665 0.00166907 0.791287)
(0.00058662 0.00130348 0.347164)
(8.89597e-06 -0.000164789 0.166543)
(0.000829393 -0.000162393 0.340738)
(0.00228777 -9.25645e-05 0.443198)
(0.0039587 -3.69559e-05 0.503153)
(0.00530685 1.27094e-05 0.532065)
(0.00588605 6.72741e-05 0.534022)
(0.00540207 0.000139812 0.508493)
(0.00386241 0.000238678 0.450359)
(0.00184429 0.000377461 0.347312)
(0.000141919 0.000331034 0.169862)
(4.74715e-05 0.000236035 0.165546)
(0.00140028 0.000232512 0.338745)
(0.00372404 0.000131049 0.440866)
(0.00641976 5.16524e-05 0.501083)
(0.00872821 -1.9773e-05 0.530826)
(0.00997091 -0.000100415 0.53411)
(0.00958756 -0.000211653 0.510207)
(0.00735485 -0.000367797 0.453556)
(0.00393932 -0.000602088 0.351087)
(0.000483271 -0.000502574 0.172365)
(0.000367997 0.000870794 0.338949)
(0.00419234 0.00103981 0.772626)
(0.0102901 0.00069958 1.05001)
(0.0171139 0.00031898 1.21838)
(0.0228689 -5.64941e-05 1.30168)
(0.0259192 -0.00048259 1.30931)
(0.0248865 -0.00104223 1.23935)
(0.0191764 -0.00177946 1.07847)
(0.0102843 -0.00252888 0.798894)
(0.00144871 -0.00202645 0.351601)
(0.000586798 0.00103656 0.440795)
(0.00634058 0.00134601 1.04904)
(0.0152769 0.000972388 1.45524)
(0.0251041 0.000470776 1.70716)
(0.0332897 -5.76113e-05 1.83249)
(0.0375403 -0.000655737 1.8428)
(0.035917 -0.00140115 1.73532)
(0.0275774 -0.00229779 1.49291)
(0.0146521 -0.00304803 1.0828)
(0.00199457 -0.00227077 0.455988)
(0.000718756 0.000800786 0.499738)
(0.00772456 0.00109031 1.2141)
(0.0185166 0.000820192 1.70276)
(0.0302875 0.000411255 2.01003)
(0.0400095 -3.66073e-05 2.16361)
(0.0449679 -0.000542389 2.17542)
(0.0428809 -0.00115241 2.04218)
(0.0327872 -0.00184485 1.74537)
(0.0172863 -0.00235201 1.2516)
(0.00230026 -0.0016794 0.515974)
(0.00077815 0.000296801 0.52707)
(0.00839072 0.000412871 1.29154)
(0.0200923 0.000316282 1.82012)
(0.0328137 0.00016122 2.15471)
(0.0432767 -1.16828e-05 2.32235)
(0.0485594 -0.000206664 2.33484)
(0.0462195 -0.000438095 2.18862)
(0.0352532 -0.000693522 1.86486)
(0.0185094 -0.000868601 1.33059)
(0.00243299 -0.000608391 0.543671)
(0.00077815 -0.0002968 0.52707)
(0.00839072 -0.000412868 1.29154)
(0.0200923 -0.000316277 1.82012)
(0.0328137 -0.000161213 2.15471)
(0.0432767 1.1693e-05 2.32235)
(0.0485594 0.000206678 2.33484)
(0.0462195 0.000438115 2.18862)
(0.0352532 0.000693546 1.86486)
(0.0185094 0.000868624 1.33059)
(0.00243299 0.000608403 0.543671)
(0.000718756 -0.000800785 0.499738)
(0.00772456 -0.0010903 1.2141)
(0.0185166 -0.000820187 1.70276)
(0.0302875 -0.000411248 2.01003)
(0.0400095 3.66171e-05 2.16361)
(0.0449679 0.000542403 2.17542)
(0.0428809 0.00115242 2.04218)
(0.0327872 0.00184487 1.74537)
(0.0172864 0.00235203 1.2516)
(0.00230026 0.00167941 0.515974)
(0.000586798 -0.00103656 0.440795)
(0.00634058 -0.001346 1.04904)
(0.0152769 -0.000972383 1.45524)
(0.0251041 -0.000470769 1.70716)
(0.0332897 5.76211e-05 1.83249)
(0.0375403 0.00065575 1.8428)
(0.035917 0.00140116 1.73532)
(0.0275774 0.00229781 1.49291)
(0.0146521 0.00304804 1.0828)
(0.00199457 0.00227078 0.455988)
(0.000367998 -0.000870793 0.338949)
(0.00419234 -0.00103981 0.772626)
(0.0102901 -0.000699574 1.05001)
(0.017114 -0.000318974 1.21838)
(0.0228689 5.65017e-05 1.30168)
(0.0259192 0.000482599 1.30931)
(0.0248865 0.00104224 1.23935)
(0.0191764 0.00177947 1.07847)
(0.0102843 0.00252889 0.798894)
(0.00144871 0.00202645 0.351601)
(4.74721e-05 -0.000236034 0.165546)
(0.00140028 -0.00023251 0.338745)
(0.00372404 -0.000131046 0.440866)
(0.00641976 -5.16495e-05 0.501083)
(0.00872822 1.9776e-05 0.530826)
(0.00997091 0.000100418 0.53411)
(0.00958757 0.000211656 0.510207)
(0.00735486 0.000367799 0.453556)
(0.00393933 0.000602089 0.351087)
(0.00048327 0.000502575 0.172365)
(0.000113702 0.000321938 0.164002)
(0.00220953 0.000317863 0.335698)
(0.00572862 0.00017828 0.437262)
(0.00989487 7.1617e-05 0.497736)
(0.0137154 -2.42397e-05 0.528539)
(0.0162355 -0.000134716 0.533689)
(0.0164807 -0.00029219 0.512326)
(0.0136912 -0.000518504 0.458379)
(0.00826602 -0.000878592 0.357507)
(0.00139461 -0.00063664 0.177064)
(0.000599894 0.00118886 0.33586)
(0.00635262 0.00140547 0.765812)
(0.015438 0.000943936 1.04157)
(0.025853 0.000449152 1.21033)
(0.0352558 -2.53153e-05 1.29599)
(0.0413394 -0.000563508 1.30789)
(0.0417151 -0.00129724 1.24367)
(0.0344821 -0.00233353 1.0886)
(0.0204781 -0.00351311 0.811842)
(0.00353705 -0.00287047 0.360045)
(0.000920837 0.00139738 0.436851)
(0.00945705 0.001801 1.03992)
(0.022648 0.00130634 1.44371)
(0.0375271 0.000669727 1.696)
(0.050793 2.1315e-05 1.82447)
(0.0592095 -0.000704509 1.84055)
(0.0594252 -0.0016337 1.74078)
(0.048791 -0.00282727 1.50599)
(0.0285868 -0.00396583 1.09926)
(0.00474555 -0.00304057 0.466282)
(0.00111213 0.00107083 0.495326)
(0.011431 0.00145022 1.20367)
(0.027274 0.00109946 1.68941)
(0.0450075 0.000588959 1.997)
(0.0606848 4.95737e-05 2.15417)
(0.0704757 -0.000548898 2.17265)
(0.0704422 -0.00128465 2.04827)
(0.0575306 -0.00217267 1.76013)
(0.0334186 -0.00292442 1.27005)
(0.0054339 -0.00215659 0.52732)
(0.0011981 0.000395411 0.52245)
(0.0123752 0.00054768 1.28051)
(0.0295098 0.000423605 1.80593)
(0.0486299 0.000231656 2.14082)
(0.0654622 2.53361e-05 2.31225)
(0.0758854 -0.000202551 2.33182)
(0.075687 -0.000477157 2.19502)
(0.0616426 -0.000798634 1.88042)
(0.0356583 -0.0010554 1.34998)
(0.00574179 -0.000764782 0.555523)
(0.0011981 -0.000395411 0.52245)
(0.0123752 -0.000547679 1.28051)
(0.0295098 -0.000423603 1.80593)
(0.0486299 -0.000231653 2.14082)
(0.0654622 -2.53327e-05 2.31225)
(0.0758854 0.000202556 2.33182)
(0.075687 0.000477165 2.19502)
(0.0616426 0.000798647 1.88042)
(0.0356583 0.00105541 1.34998)
(0.00574179 0.000764792 0.555523)
(0.00111213 -0.00107083 0.495326)
(0.011431 -0.00145022 1.20367)
(0.027274 -0.00109945 1.68941)
(0.0450075 -0.000588956 1.997)
(0.0606848 -4.95699e-05 2.15417)
(0.0704757 0.000548904 2.17265)
(0.0704422 0.00128466 2.04828)
(0.0575306 0.00217269 1.76013)
(0.0334186 0.00292443 1.27005)
(0.0054339 0.0021566 0.52732)
(0.000920837 -0.00139738 0.436851)
(0.00945705 -0.00180099 1.03992)
(0.022648 -0.00130633 1.44371)
(0.0375271 -0.000669722 1.696)
(0.050793 -2.13094e-05 1.82447)
(0.0592095 0.000704516 1.84055)
(0.0594252 0.00163371 1.74078)
(0.048791 0.00282728 1.50599)
(0.0285868 0.00396584 1.09926)
(0.00474555 0.00304058 0.466283)
(0.000599894 -0.00118886 0.33586)
(0.00635262 -0.00140547 0.765812)
(0.015438 -0.000943931 1.04157)
(0.025853 -0.000449146 1.21033)
(0.0352558 2.53225e-05 1.29599)
(0.0413394 0.000563517 1.30789)
(0.0417151 0.00129725 1.24367)
(0.0344821 0.00233354 1.0886)
(0.0204781 0.00351312 0.811842)
(0.00353704 0.00287047 0.360045)
(0.000113703 -0.000321937 0.164002)
(0.00220953 -0.00031786 0.335698)
(0.00572862 -0.000178277 0.437262)
(0.00989487 -7.16135e-05 0.497736)
(0.0137154 2.42438e-05 0.528539)
(0.0162355 0.000134721 0.533689)
(0.0164807 0.000292194 0.512326)
(0.0136912 0.000518506 0.458379)
(0.00826603 0.000878591 0.357507)
(0.00139461 0.000636643 0.177064)
(0.000211436 0.000416757 0.16174)
(0.00325298 0.000413785 0.331274)
(0.00829375 0.000233231 0.431942)
(0.0144277 9.99256e-05 0.492522)
(0.0204923 -1.74712e-05 0.524457)
(0.0252958 -0.000153048 0.531936)
(0.0273481 -0.000351743 0.514241)
(0.0248997 -0.000641611 0.464999)
(0.0170818 -0.00108565 0.368121)
(0.00376494 -0.000353816 0.185882)
(0.000903835 0.00154111 0.331345)
(0.00904956 0.0018087 0.755954)
(0.0218729 0.00122246 1.02918)
(0.0370214 0.000627163 1.19789)
(0.0517553 8.92357e-05 1.28605)
(0.0631773 -0.000498365 1.30329)
(0.0676273 -0.00131802 1.24738)
(0.0608048 -0.00257593 1.10252)
(0.0406229 -0.00422544 0.833436)
(0.00874567 -0.00350151 0.376365)
(0.00134813 0.00179051 0.431079)
(0.0132931 0.00229659 1.02676)
(0.0317534 0.00168586 1.42681)
(0.0532309 0.000941999 1.67883)
(0.0738545 0.000235273 1.81063)
(0.0895479 -0.000509856 1.834)
(0.095178 -0.00146236 1.74548)
(0.0847949 -0.00277647 1.52423)
(0.0557964 -0.0042468 1.12718)
(0.0115704 -0.00335136 0.486689)
(0.00161044 0.00136193 0.488856)
(0.0159605 0.00183949 1.1886)
(0.0380229 0.00141655 1.66986)
(0.0635022 0.000832261 1.97704)
(0.0877611 0.000259446 2.13804)
(0.105968 -0.000330532 2.165)
(0.112095 -0.00104073 2.05367)
(0.0992696 -0.00195021 1.78106)
(0.0647754 -0.0028648 1.30186)
(0.0132178 -0.00218641 0.55029)
(0.00172825 0.000501186 0.515664)
(0.0172298 0.000693032 1.26457)
(0.0410365 0.000545454 1.78517)
(0.068448 0.000328102 2.11956)
(0.0944382 0.000111821 2.29507)
(0.113806 -0.000108355 2.32369)
(0.120104 -0.000365395 2.2008)
(0.106054 -0.000682414 1.9027)
(0.0689429 -0.000985703 1.38371)
(0.0139751 -0.000741875 0.579777)
(0.00172825 -0.000501186 0.515664)
(0.0172298 -0.000693032 1.26457)
(0.0410365 -0.000545454 1.78517)
(0.068448 -0.000328103 2.11956)
(0.0944382 -0.000111824 2.29507)
(0.113806 0.000108349 2.32369)
(0.120104 0.000365387 2.2008)
(0.106054 0.000682408 1.9027)
(0.0689429 0.000985701 1.38371)
(0.0139751 0.000741876 0.579777)
(0.00161044 -0.00136193 0.488856)
(0.0159605 -0.00183948 1.1886)
(0.0380229 -0.00141655 1.66986)
(0.0635022 -0.000832262 1.97704)
(0.0877611 -0.000259448 2.13804)
(0.105968 0.000330527 2.165)
(0.112095 0.00104072 2.05367)
(0.0992696 0.0019502 1.78106)
(0.0647754 0.0028648 1.30186)
(0.0132178 0.00218641 0.55029)
(0.00134813 -0.00179051 0.431079)
(0.0132931 -0.00229659 1.02676)
(0.0317534 -0.00168586 1.42681)
(0.0532309 -0.000941997 1.67883)
(0.0738545 -0.000235271 1.81063)
(0.0895479 0.000509856 1.834)
(0.0951779 0.00146236 1.74548)
(0.0847949 0.00277647 1.52423)
(0.0557964 0.0042468 1.12718)
(0.0115704 0.00335136 0.486689)
(0.000903836 -0.00154111 0.331345)
(0.00904956 -0.00180869 0.755954)
(0.0218729 -0.00122245 1.02918)
(0.0370214 -0.000627157 1.19789)
(0.0517553 -8.92287e-05 1.28605)
(0.0631773 0.000498372 1.30329)
(0.0676273 0.00131803 1.24738)
(0.0608048 0.00257594 1.10252)
(0.0406229 0.00422545 0.833436)
(0.00874566 0.00350152 0.376365)
(0.000211437 -0.000416756 0.16174)
(0.00325298 -0.000413783 0.331274)
(0.00829375 -0.000233227 0.431942)
(0.0144277 -9.9921e-05 0.492522)
(0.0204923 1.74772e-05 0.524457)
(0.0252958 0.000153055 0.531936)
(0.0273481 0.00035175 0.514241)
(0.0248997 0.000641616 0.464999)
(0.0170818 0.00108566 0.368121)
(0.00376494 0.000353819 0.185882)
(0.000335452 0.000508675 0.158631)
(0.00444067 0.000509695 0.325218)
(0.0112093 0.000292165 0.424492)
(0.0197223 0.000139317 0.484757)
(0.0288325 1.07379e-05 0.517503)
(0.0373513 -0.000137708 0.527338)
(0.0434731 -0.000378908 0.514285)
(0.0441908 -0.000794604 0.472735)
(0.0352711 -0.00129363 0.385751)
(0.012603 0.000673846 0.206314)
(0.00125417 0.00188374 0.325152)
(0.0120232 0.00220195 0.742505)
(0.0290102 0.00151147 1.01191)
(0.0497812 0.000861222 1.17952)
(0.0716157 0.000345496 1.26945)
(0.0915577 -0.000133026 1.29218)
(0.105083 -0.000758988 1.24691)
(0.104797 -0.00180931 1.11895)
(0.0811865 -0.00349534 0.870019)
(0.0279628 -0.00288737 0.416341)
(0.00182979 0.00216618 0.423155)
(0.0174634 0.00277339 1.00881)
(0.0417303 0.00207718 1.40333)
(0.0709656 0.00129299 1.65365)
(0.10129 0.000653549 1.78786)
(0.128492 0.000120851 1.81887)
(0.146179 -0.000447472 1.745)
(0.144148 -0.00125262 1.54651)
(0.109947 -0.00239434 1.17575)
(0.0367412 -0.00186667 0.538414)
(0.00216713 0.00163684 0.47996)
(0.02085 0.00221105 1.16808)
(0.0497246 0.00174251 1.64276)
(0.084259 0.0011424 1.94788)
(0.119774 0.000644488 2.11172)
(0.151242 0.000261334 2.14772)
(0.171137 -7.78969e-05 2.05359)
(0.167673 -0.000480753 1.8074)
(0.126904 -0.00100802 1.35821)
(0.0419115 -0.000700556 0.609484)
(0.00231862 0.000600544 0.506325)
(0.0224546 0.000831304 1.24287)
(0.0535498 0.00067057 1.75641)
(0.0906298 0.000450414 2.08858)
(0.128606 0.000266262 2.26716)
(0.16205 0.000130417 2.30552)
(0.182906 2.3434e-05 2.20109)
(0.178681 -8.83718e-05 1.93117)
(0.134799 -0.000231672 1.44396)
(0.044331 -0.000144733 0.642662)
(0.00231862 -0.000600545 0.506325)
(0.0224546 -0.000831303 1.24287)
(0.0535498 -0.00067057 1.75641)
(0.0906298 -0.000450417 2.08858)
(0.128606 -0.00026627 2.26716)
(0.16205 -0.000130432 2.30552)
(0.182906 -2.3457e-05 2.20109)
(0.178681 8.83391e-05 1.93117)
(0.134799 0.00023164 1.44396)
(0.044331 0.000144713 0.642662)
(0.00216713 -0.00163684 0.47996)
(0.02085 -0.00221105 1.16808)
(0.0497246 -0.00174251 1.64276)
(0.084259 -0.0011424 1.94788)
(0.119774 -0.000644495 2.11172)
(0.151242 -0.000261348 2.14772)
(0.171137 7.78745e-05 2.05359)
(0.167673 0.00048072 1.8074)
(0.126904 0.00100798 1.35821)
(0.0419115 0.000700537 0.609484)
(0.00182979 -0.00216618 0.423155)
(0.0174634 -0.00277339 1.00881)
(0.0417303 -0.00207718 1.40333)
(0.0709656 -0.00129299 1.65365)
(0.10129 -0.00065355 1.78786)
(0.128492 -0.000120857 1.81887)
(0.146179 0.00044746 1.745)
(0.144148 0.0012526 1.54651)
(0.109947 0.00239433 1.17575)
(0.0367412 0.00186666 0.538414)
(0.00125417 -0.00188374 0.325152)
(0.0120232 -0.00220194 0.742505)
(0.0290102 -0.00151147 1.01191)
(0.0497812 -0.000861216 1.17952)