/*--------------------------------*- C++ -*----------------------------------*\
  =========                 |
  \\      /  F ield         | OpenFOAM: The Open Source CFD Toolbox
   \\    /   O peration     | Website:  https://openfoam.org
    \\  /    A nd           | Version:  6
     \\/     M anipulation  |
\*---------------------------------------------------------------------------*/
FoamFile
{
    version     2.0;
    format      ascii;
    class       surfaceScalarField;
    location    "1700";
    object      phi;
}
// * * * * * * * * * * * * * * * * * * * * * * * * * * * * * * * * * * * * * //

dimensions      [0 3 -1 0 0 0 0];

internalField   nonuniform List<scalar> 
19500
(
1.55427e-07
1.57031e-07
9.96872e-05
1.60923e-08
1.57141e-07
9.99818e-05
9.87009e-09
1.57175e-07
9.98486e-05
4.0544e-09
1.57154e-07
9.98483e-05
-2.56041e-09
1.5714e-07
9.98491e-05
-8.92728e-09
1.57111e-07
9.98489e-05
-1.39499e-08
1.57068e-07
9.98477e-05
-1.89334e-08
1.57032e-07
9.98477e-05
-1.59282e-07
1.56939e-07
9.9983e-05
1.56776e-07
9.96837e-05
1.55529e-07
1.74296e-08
9.99837e-05
1.60156e-08
1.73717e-08
0.000100279
9.85072e-09
1.73672e-08
0.000100146
4.02448e-09
1.73724e-08
0.000100145
-2.59958e-09
1.73821e-08
0.000100146
-8.97473e-09
1.73985e-08
0.000100146
-1.40044e-08
1.74197e-08
0.000100144
-1.89135e-08
1.74365e-08
0.000100144
-1.59448e-07
1.74449e-08
0.00010028
1.74793e-08
9.99794e-05
1.55569e-07
1.18282e-08
9.98496e-05
1.60104e-08
1.18406e-08
0.000100145
9.8487e-09
1.18421e-08
0.000100011
4.03454e-09
1.18519e-08
0.000100011
-2.58913e-09
1.18707e-08
0.000100012
-8.96541e-09
1.18987e-08
0.000100011
-1.39909e-08
1.19326e-08
0.00010001
-1.89054e-08
1.19636e-08
0.00010001
-1.59531e-07
1.19813e-08
0.000100146
1.19572e-08
9.98456e-05
1.55564e-07
6.46471e-09
9.98494e-05
1.60186e-08
6.48197e-09
0.000100144
9.86048e-09
6.50117e-09
0.000100011
4.05676e-09
6.52605e-09
0.000100011
-2.55936e-09
6.56266e-09
0.000100012
-8.93125e-09
6.61009e-09
0.000100011
-1.39588e-08
6.66333e-09
0.00010001
-1.8886e-08
6.7114e-09
0.00010001
-1.59539e-07
6.73947e-09
0.000100146
6.74703e-09
9.98453e-05
1.55581e-07
7.45572e-11
9.98504e-05
1.60341e-08
9.8164e-11
0.000100146
9.88548e-09
1.24554e-10
0.000100012
4.09505e-09
1.63805e-10
0.000100012
-2.51065e-09
2.18695e-10
0.000100013
-8.87655e-09
2.87146e-10
0.000100012
-1.39087e-08
3.6215e-10
0.000100011
-1.88511e-08
4.30993e-10
0.000100011
-1.59523e-07
4.83909e-10
0.000100147
5.29691e-10
9.98464e-05
1.55602e-07
-6.31239e-09
9.98504e-05
1.60599e-08
-6.28369e-09
0.000100146
9.92558e-09
-6.25172e-09
0.000100012
4.15068e-09
-6.20063e-09
0.000100012
-2.442e-09
-6.13108e-09
0.000100013
-8.80101e-09
-6.04626e-09
0.000100012
-1.38406e-08
-5.95425e-09
0.000100011
-1.8802e-08
-5.86879e-09
0.000100011
-1.59454e-07
-5.79343e-09
0.000100147
-5.7142e-09
9.98465e-05
1.55624e-07
-1.16908e-08
9.98494e-05
1.6094e-08
-1.16632e-08
0.000100145
9.97769e-09
-1.16197e-08
0.000100011
4.21932e-09
-1.15627e-08
0.000100011
-2.35882e-09
-1.14883e-08
0.000100012
-8.71021e-09
-1.14006e-08
0.000100011
-1.37588e-08
-1.13076e-08
0.00010001
-1.87417e-08
-1.12224e-08
0.00010001
-1.59338e-07
-1.11506e-08
0.000100146
-1.10569e-08
9.98458e-05
1.55663e-07
-1.73273e-08
9.98496e-05
1.61294e-08
-1.72409e-08
0.000100145
1.00337e-08
-1.72009e-08
0.000100011
4.29089e-09
-1.71533e-08
0.000100011
-2.27297e-09
-1.70896e-08
0.000100012
-8.61706e-09
-1.70152e-08
0.000100012
-1.36756e-08
-1.69375e-08
0.000100011
-1.8679e-08
-1.68657e-08
0.000100011
-1.59221e-07
-1.6805e-08
0.000100146
-1.67882e-08
9.98464e-05
1.55652e-07
-1.56991e-07
9.99836e-05
1.61716e-08
-1.57051e-07
0.000100279
1.0093e-08
-1.57046e-07
0.000100146
4.35981e-09
-1.56967e-07
0.000100145
-2.18683e-09
-1.56872e-07
0.000100146
-8.52118e-09
-1.56746e-07
0.000100146
-1.35954e-08
-1.56601e-07
0.000100145
-1.86187e-08
-1.56472e-07
0.000100145
-1.59044e-07
-1.56297e-07
0.00010028
-1.56e-07
9.998e-05
1.5559e-07
9.96871e-05
1.62721e-08
9.9982e-05
1.01562e-08
9.98488e-05
4.45092e-09
9.98485e-05
-2.0742e-09
9.98494e-05
-8.39592e-09
9.98494e-05
-1.34717e-08
9.98484e-05
-1.85878e-08
9.98485e-05
-1.58738e-07
9.99837e-05
9.96851e-05
2.22856e-07
2.23988e-07
9.92387e-05
7.02303e-08
2.24133e-07
9.99087e-05
4.27618e-08
2.23833e-07
9.96507e-05
1.77026e-08
2.23735e-07
9.96479e-05
-1.67332e-09
2.23539e-07
9.96433e-05
-2.07534e-08
2.23273e-07
9.96432e-05
-4.49572e-08
2.22953e-07
9.96477e-05
-7.12877e-08
2.22577e-07
9.96502e-05
-2.26233e-07
2.22523e-07
9.99142e-05
2.21848e-07
9.92338e-05
2.23033e-07
7.08208e-08
9.99121e-05
7.02174e-08
7.08101e-08
0.000100583
4.2673e-08
7.07041e-08
0.000100325
1.75259e-08
7.05732e-08
0.000100322
-1.90006e-09
7.04413e-08
0.000100317
-2.10157e-08
7.03023e-08
0.000100316
-4.52681e-08
7.01645e-08
0.00010032
-7.15679e-08
7.0041e-08
0.000100322
-2.26892e-07
6.99172e-08
0.000100586
6.95327e-08
9.99034e-05
2.22757e-07
4.3583e-08
9.96524e-05
7.0112e-08
4.35253e-08
0.000100323
4.25803e-08
4.34481e-08
0.000100064
1.74097e-08
4.33123e-08
0.000100062
-2.03928e-09
4.31658e-08
0.000100057
-2.11698e-08
4.30143e-08
0.000100056
-4.54278e-08
4.287e-08
0.00010006
-7.16922e-08
4.27291e-08
0.000100062
-2.27013e-07
4.25461e-08
0.000100327
4.22058e-08
9.96444e-05
2.22722e-07
1.85604e-08
9.965e-05
6.99968e-08
1.84658e-08
0.000100321
4.24448e-08
1.83893e-08
0.000100062
1.72614e-08
1.82701e-08
0.000100059
-2.19234e-09
1.81357e-08
0.000100054
-2.1316e-08
1.79983e-08
0.000100054
-4.55684e-08
1.78678e-08
0.000100058
-7.18381e-08
1.77295e-08
0.00010006
-2.27393e-07
1.75594e-08
0.000100325
1.7341e-08
9.96414e-05
2.22646e-07
-8.67859e-10
9.96456e-05
6.99065e-08
-9.4736e-10
0.000100316
4.23282e-08
-1.0154e-09
0.000100057
1.71277e-08
-1.09895e-09
0.000100055
-2.32944e-09
-1.19054e-09
0.00010005
-2.14476e-08
-1.27851e-09
0.000100049
-4.57042e-08
-1.3572e-09
0.000100053
-7.19942e-08
-1.45156e-09
0.000100055
-2.27654e-07
-1.56156e-09
0.00010032
-1.63782e-09
9.96365e-05
2.2257e-07
-2.01599e-08
9.96456e-05
6.98417e-08
-2.02128e-08
0.000100316
4.22478e-08
-2.02602e-08
0.000100057
1.70374e-08
-2.02922e-08
0.000100055
-2.41674e-09
-2.03217e-08
0.00010005
-2.1527e-08
-2.03379e-08
0.00010005
-4.57936e-08
-2.03408e-08
0.000100054
-7.21071e-08
-2.03622e-08
0.000100055
-2.27763e-07
-2.03845e-08
0.00010032
-2.03015e-08
9.96365e-05
2.22504e-07
-4.48289e-08
9.96501e-05
6.98136e-08
-4.48838e-08
0.00010032
4.22194e-08
-4.48957e-08
0.000100062
1.70098e-08
-4.48672e-08
0.000100059
-2.43161e-09
-4.48307e-08
0.000100054
-2.15299e-08
-4.47735e-08
0.000100054
-4.58084e-08
-4.47001e-08
0.000100058
-7.2147e-08
-4.46499e-08
0.00010006
-2.27698e-07
-4.45932e-08
0.000100325
-4.4363e-08
9.96414e-05
2.22428e-07
-7.17433e-08
9.96526e-05
6.984e-08
-7.18056e-08
0.000100323
4.22486e-08
-7.17547e-08
0.000100064
1.70445e-08
-7.16839e-08
0.000100062
-2.3782e-09
-7.16061e-08
0.000100057
-2.14623e-08
-7.15021e-08
0.000100057
-4.57577e-08
-7.13794e-08
0.000100061
-7.21348e-08
-7.1287e-08
0.000100063
-2.27485e-07
-7.1237e-08
0.000100327
-7.09838e-08
9.96448e-05
2.22625e-07
-2.25533e-07
9.99133e-05
6.98933e-08
-2.25718e-07
0.000100584
4.22831e-08
-2.25468e-07
0.000100326
1.71052e-08
-2.25424e-07
0.000100323
-2.27682e-09
-2.25278e-07
0.000100318
-2.13276e-08
-2.2505e-07
0.000100318
-4.56271e-08
-2.24754e-07
0.000100322
-7.20906e-08
-2.24437e-07
0.000100324
-2.27536e-07
-2.2446e-07
0.000100588
-2.23793e-07
9.99046e-05
2.22445e-07
9.92381e-05
6.98718e-08
9.99078e-05
4.23396e-08
9.96499e-05
1.72548e-08
9.96473e-05
-2.0645e-09
9.96428e-05
-2.10666e-08
9.96428e-05
-4.53445e-08
9.96474e-05
-7.18542e-08
9.96501e-05
-2.26911e-07
9.99137e-05
9.92338e-05
2.5034e-07
2.53061e-07
9.87336e-05
9.0751e-08
2.53418e-07
9.9813e-05
5.81227e-08
2.52559e-07
9.94289e-05
2.46799e-08
2.52491e-07
9.9427e-05
-3.19329e-09
2.52136e-07
9.94172e-05
-3.05781e-08
2.51689e-07
9.94173e-05
-6.26882e-08
2.51169e-07
9.94273e-05
-9.32368e-08
2.50437e-07
9.94294e-05
-2.58168e-07
2.50546e-07
9.98262e-05
2.49493e-07
9.87247e-05
2.50742e-07
9.18056e-08
9.98207e-05
9.09682e-08
9.20276e-08
0.000100902
5.80283e-08
9.17412e-08
0.000100516
2.44308e-08
9.14702e-08
0.000100514
-3.5721e-09
9.11957e-08
0.000100504
-3.10754e-08
9.08757e-08
0.000100503
-6.32807e-08
9.05269e-08
0.000100511
-9.41106e-08
9.02213e-08
0.000100512
-2.59203e-07
8.99658e-08
0.00010091
8.90936e-08
9.98025e-05
2.49921e-07
5.9611e-08
9.94327e-05
9.06803e-08
5.95788e-08
0.000100512
5.78183e-08
5.9413e-08
0.000100127
2.41498e-08
5.914e-08
0.000100125
-3.90337e-09
5.88355e-08
0.000100115
-3.14403e-08
5.84896e-08
0.000100114
-6.36636e-08
5.81239e-08
0.000100123
-9.43574e-08
5.77743e-08
0.000100124
-2.59072e-07
5.73355e-08
0.000100522
5.67109e-08
9.94156e-05
2.49969e-07
2.63288e-08
9.94313e-05
9.04502e-08
2.62444e-08
0.000100511
5.75419e-08
2.60748e-08
0.000100126
2.38317e-08
2.58405e-08
0.000100124
-4.25083e-09
2.55672e-08
0.000100114
-3.18008e-08
2.52641e-08
0.000100113
-6.40169e-08
2.49509e-08
0.000100122
-9.47099e-08
2.46344e-08
0.000100122
-2.59843e-07
2.42417e-08
0.000100521
2.38562e-08
9.94123e-05
2.49841e-07
-1.53341e-09
9.94217e-05
9.02869e-08
-1.61651e-09
0.000100501
5.73168e-08
-1.75244e-09
0.000100116
2.35567e-08
-1.90728e-09
0.000100114
-4.55477e-09
-2.08711e-09
0.000100104
-3.21191e-08
-2.27348e-09
0.000100103
-6.43456e-08
-2.45439e-09
0.000100112
-9.50764e-08
-2.652e-09
0.000100112
-2.60279e-07
-2.92208e-09
0.000100511
-2.95363e-09
9.94012e-05
2.49752e-07
-2.92079e-08
9.94217e-05
9.0167e-08
-2.92754e-08
0.000100501
5.71621e-08
-2.93571e-08
0.000100116
2.33766e-08
-2.94075e-08
0.000100114
-4.74039e-09
-2.94627e-08
0.000100104
-3.23041e-08
-2.94966e-08
0.000100103
-6.45433e-08
-2.95053e-08
0.000100112
-9.53177e-08
-2.95361e-08
0.000100112
-2.60428e-07
-2.96299e-08
0.00010051
-2.92847e-08
9.94008e-05
2.4972e-07
-6.19513e-08
9.94313e-05
9.01111e-08
-6.20341e-08
0.000100511
5.71059e-08
-6.20633e-08
0.000100126
2.33264e-08
-6.2005e-08
0.000100124
-4.76783e-09
-6.19418e-08
0.000100114
-3.23115e-08
-6.18354e-08
0.000100113
-6.45572e-08
-6.16885e-08
0.000100122
-9.53771e-08
-6.15769e-08
0.000100122
-2.60252e-07
-6.14952e-08
0.00010052
-6.08568e-08
9.94114e-05
2.49551e-07
-9.35966e-08
9.9433e-05
9.01714e-08
-9.38926e-08
0.000100512
5.71685e-08
-9.37338e-08
0.000100127
2.34022e-08
-9.35978e-08
0.000100126
-4.65934e-09
-9.34691e-08
0.000100115
-3.21777e-08
-9.32843e-08
0.000100115
-6.44425e-08
-9.305e-08
0.000100124
-9.53328e-08
-9.28707e-08
0.000100124
-2.59669e-07
-9.28401e-08
0.000100522
-9.18957e-08
9.94149e-05
2.50253e-07
-2.55139e-07
9.98228e-05
9.03303e-08
-2.55478e-07
0.000100904
5.72147e-08
-2.54695e-07
0.000100518
2.35007e-08
-2.54665e-07
0.000100516
-4.50381e-09
-2.54337e-07
0.000100506
-3.19768e-08
-2.53897e-07
0.000100505
-6.42268e-08
-2.53367e-07
0.000100513
-9.53056e-08
-2.52641e-07
0.000100513
-2.59916e-07
-2.529e-07
0.000100911
-2.51556e-07
9.98027e-05
2.49925e-07
9.87317e-05
9.01171e-08
9.98108e-05
5.73464e-08
9.94267e-05
2.38153e-08
9.9425e-05
-4.02709e-09
9.94153e-05
-3.13654e-08
9.94154e-05
-6.35278e-08
9.94255e-05
-9.44309e-08
9.94275e-05
-2.58637e-07
9.98235e-05
9.87227e-05
2.65945e-07
2.70822e-07
9.81945e-05
1.00035e-07
2.7147e-07
9.97051e-05
6.26372e-08
2.6999e-07
9.91939e-05
2.57422e-08
2.69971e-07
9.91916e-05
-6.37926e-09
2.69346e-07
9.91778e-05
-3.75772e-08
2.68632e-07
9.9178e-05
-7.18615e-08
2.67852e-07
9.91925e-05
-1.05973e-07
2.66533e-07
9.91952e-05
-2.78524e-07
2.66956e-07
9.97302e-05
2.64572e-07
9.81781e-05
2.66651e-07
1.02689e-07
9.97197e-05
1.00506e-07
1.03191e-07
0.000101234
6.25196e-08
1.02674e-07
0.000100719
2.54021e-08
1.02272e-07
0.000100717
-7.00717e-09
1.0186e-07
0.000100701
-3.84875e-08
1.01346e-07
0.0001007
-7.29507e-08
1.00748e-07
0.000100712
-1.07407e-07
1.00198e-07
0.000100711
-2.80842e-07
9.9808e-08
0.000101248
9.80572e-08
9.9685e-05
2.65225e-07
6.62836e-08
9.92012e-05
9.99823e-08
6.6312e-08
0.000100712
6.2159e-08
6.60362e-08
0.000100199
2.4914e-08
6.56469e-08
0.000100197
-7.56223e-09
6.51997e-08
0.000100182
-3.90878e-08
6.46603e-08
0.00010018
-7.36163e-08
6.40505e-08
0.000100193
-1.07788e-07
6.34325e-08
0.000100193
-2.80753e-07
6.26579e-08
0.000100729
6.14309e-08
9.91682e-05
2.65405e-07
2.9976e-08
9.91996e-05
9.96545e-08
2.99718e-08
0.000100711
6.17623e-08
2.96948e-08
0.000100198
2.44424e-08
2.93815e-08
0.000100195
-8.09788e-09
2.90064e-08
0.00010018
-3.96757e-08
2.85688e-08
0.000100178
-7.42488e-08
2.8087e-08
0.000100191
-1.08426e-07
2.75602e-08
0.00010019
-2.82265e-07
2.68835e-08
0.000100727
2.61123e-08
9.91622e-05
2.65168e-07
-1.94194e-09
9.91858e-05
9.94475e-08
-1.98947e-09
0.000100697
6.14628e-08
-2.17014e-09
0.000100184
2.40614e-08
-2.33775e-09
0.000100181
-8.53946e-09
-2.5399e-09
0.000100166
-4.0169e-08
-2.75172e-09
0.000100164
-7.48193e-08
-2.96836e-09
0.000100176
-1.09066e-07
-3.2444e-09
0.000100175
-2.83016e-07
-3.69701e-09
0.000100712
-3.67331e-09
9.9145e-05
2.65082e-07
-3.36354e-08
9.91858e-05
9.93117e-08
-3.37157e-08
0.000100696
6.12875e-08
-3.37741e-08
0.000100183
2.38584e-08
-3.37668e-08
0.000100181
-8.74945e-09
-3.37575e-08
0.000100166
-4.03937e-08
-3.36985e-08
0.000100164
-7.511e-08
-3.35951e-08
0.000100176
-1.09426e-07
-3.35447e-08
0.000100175
-2.83236e-07
-3.36764e-08
0.000100711
-3.28443e-08
9.91442e-05
2.65166e-07
-6.92774e-08
9.91994e-05
9.9273e-08
-6.9356e-08
0.00010071
6.12718e-08
-6.93382e-08
0.000100197
2.38785e-08
-6.9169e-08
0.000100195
-8.67615e-09
-6.89781e-08
0.000100179
-4.02859e-08
-6.86913e-08
0.000100178
-7.50366e-08
-6.8319e-08
0.00010019
-1.09407e-07
-6.79893e-08
0.000100189
-2.8288e-07
-6.77744e-08
0.000100725
-6.63676e-08
9.91599e-05
2.64895e-07
-1.04987e-07
9.92014e-05
9.94261e-08
-1.05502e-07
0.000100712
6.14518e-08
-1.05155e-07
0.000100199
2.41106e-08
-1.04878e-07
0.000100197
-8.37048e-09
-1.04604e-07
0.000100181
-3.99267e-08
-1.04211e-07
0.00010018
-7.47008e-08
-1.03709e-07
0.000100192
-1.09152e-07
-1.03263e-07
0.000100192
-2.8157e-07
-1.03152e-07
0.000100727
-1.01324e-07
9.91661e-05
2.66181e-07
-2.73231e-07
9.97225e-05
9.97778e-08
-2.73785e-07
0.000101236
6.15934e-08
-2.7239e-07
0.000100721
2.43541e-08
-2.72347e-07
0.000100719
-8.05597e-09
-2.71674e-07
0.000100703
-3.95563e-08
-2.70873e-07
0.000100701
-7.4279e-08
-2.69968e-07
0.000100713
-1.09033e-07
-2.68554e-07
0.000100712
-2.81993e-07
-2.69099e-07
0.000101247
-2.66241e-07
9.96837e-05
2.6563e-07
9.81912e-05
9.93998e-08
9.97017e-05
6.18822e-08
9.91903e-05
2.49387e-08
9.91882e-05
-7.11284e-09
9.91744e-05
-3.82938e-08
9.91746e-05
-7.28833e-08
9.9189e-05
-1.07389e-07
9.91919e-05
-2.79254e-07
9.97246e-05
9.81757e-05
2.77114e-07
2.84334e-07
9.76307e-05
1.07068e-07
2.85266e-07
9.95874e-05
6.47822e-08
2.83127e-07
9.89506e-05
2.52118e-08
2.83108e-07
9.89457e-05
-9.93601e-09
2.82037e-07
9.89288e-05
-4.36103e-08
2.8087e-07
9.89291e-05
-7.92755e-08
2.7961e-07
9.89472e-05
-1.15795e-07
2.77448e-07
9.89539e-05
-2.95224e-07
2.7742e-07
9.96279e-05
2.73701e-07
9.76062e-05
2.78128e-07
1.11541e-07
9.96118e-05
1.07734e-07
1.1229e-07
0.000101575
6.4562e-08
1.115e-07
0.000100931
2.46769e-08
1.10915e-07
0.000100926
-1.10138e-08
1.10265e-07
0.000100906
-4.52521e-08
1.0942e-07
0.000100903
-8.11368e-08
1.08381e-07
0.000100917
-1.18567e-07
1.07369e-07
0.000100917
-2.98802e-07
1.0651e-07
0.000101595
1.03472e-07
9.9552e-05
2.76075e-07
7.08691e-08
9.89631e-05
1.0693e-07
7.09402e-08
0.00010092
6.39761e-08
7.0504e-08
0.00010028
2.38633e-08
6.9943e-08
0.000100275
-1.19404e-08
6.92559e-08
0.000100256
-4.62763e-08
6.83834e-08
0.000100253
-8.23042e-08
6.73255e-08
0.000100268
-1.19395e-07
6.62092e-08
0.00010027
-2.99183e-07
6.47643e-08
0.000100946
6.23577e-08
9.89053e-05
2.76386e-07
3.23797e-08
9.8959e-05
1.06476e-07
3.24773e-08
0.000100916
6.34018e-08
3.20404e-08
0.000100277
2.31457e-08
3.16084e-08
0.000100271
-1.27991e-08
3.10624e-08
0.000100252
-4.72891e-08
3.03922e-08
0.000100249
-8.34473e-08
2.95921e-08
0.000100263
-1.20647e-07
2.87153e-08
0.000100263
-3.02032e-07
2.74416e-08
0.000100942
2.5872e-08
9.88919e-05
2.75971e-07
-2.34853e-09
9.89419e-05
1.0619e-07
-2.35135e-09
0.000100898
6.29789e-08
-2.59815e-09
0.000100259
2.25854e-08
-2.78245e-09
0.000100253
-1.34835e-08
-3.02252e-09
0.000100233
-4.811e-08
-3.27913e-09
0.00010023
-8.44197e-08
-3.5708e-09
0.000100243
-1.21876e-07
-3.92782e-09
0.000100243
-3.03458e-07
-4.71948e-09
0.000100922
-4.72247e-09
9.88677e-05
2.75882e-07
-3.68222e-08
9.89418e-05
1.06031e-07
-3.69144e-08
0.000100898
6.27724e-08
-3.69357e-08
0.000100258
2.2346e-08
-3.68353e-08
0.000100253
-1.37366e-08
-3.67179e-08
0.000100233
-4.84059e-08
-3.64981e-08
0.00010023
-8.48237e-08
-3.61933e-08
0.000100243
-1.22464e-07
-3.59112e-08
0.000100243
-3.03891e-07
-3.61193e-08
0.00010092
-3.43021e-08
9.88663e-05
2.76141e-07
-7.44988e-08
9.89584e-05
1.0603e-07
-7.45369e-08
0.000100915
6.2826e-08
-7.44523e-08
0.000100275
2.24837e-08
-7.41152e-08
0.00010027
-1.34905e-08
-7.37132e-08
0.00010025
-4.8086e-08
-7.312e-08
0.000100247
-8.45276e-08
-7.23458e-08
0.000100261
-1.22338e-07
-7.15587e-08
0.000100261
-3.03037e-07
-7.10712e-08
0.000100938
-6.82547e-08
9.88876e-05
2.75776e-07
-1.14291e-07
9.89629e-05
1.06308e-07
-1.14995e-07
0.000100919
6.31851e-08
-1.14432e-07
0.00010028
2.29707e-08
-1.1396e-07
0.000100274
-1.28464e-08
-1.13447e-07
0.000100255
-4.731e-08
-1.12707e-07
0.000100252
-8.37311e-08
-1.11744e-07
0.000100267
-1.21668e-07
-1.1077e-07
0.000100268
-3.00462e-07
-1.10383e-07
0.000100942
-1.0666e-07
9.89014e-05
2.77625e-07
-2.87003e-07
9.96149e-05
1.06872e-07
-2.87698e-07
0.000101577
6.3463e-08
-2.85672e-07
0.000100933
2.34388e-08
-2.85548e-07
0.000100928
-1.22624e-08
-2.8434e-07
0.000100908
-4.66215e-08
-2.82956e-07
0.000100904
-8.28963e-08
-2.81418e-07
0.000100917
-1.21254e-07
-2.78915e-07
0.000100916
-3.00145e-07
-2.78984e-07
0.000101592
-2.74139e-07
9.95474e-05
2.76924e-07
9.76255e-05
1.06415e-07
9.95827e-05
6.40293e-08
9.89453e-05
2.44565e-08
9.89406e-05
-1.05696e-08
9.89236e-05
-4.42997e-08
9.89241e-05
-8.03375e-08
9.89424e-05
-1.1799e-07
9.89493e-05
-2.95532e-07
9.962e-05
9.76044e-05
2.83191e-07
2.92967e-07
9.70522e-05
1.11523e-07
2.9416e-07
9.94626e-05
6.56675e-08
2.91288e-07
9.87029e-05
2.38624e-08
2.91155e-07
9.86942e-05
-1.40534e-08
2.89417e-07
9.86755e-05
-4.98587e-08
2.875e-07
9.86763e-05
-8.54392e-08
2.85397e-07
9.86976e-05
-1.23651e-07
2.81756e-07
9.87088e-05
-3.04697e-07
2.81355e-07
9.95256e-05
2.73966e-07
9.70221e-05
2.84498e-07
1.18065e-07
9.94997e-05
1.12319e-07
1.19025e-07
0.00010192
6.52222e-08
1.17902e-07
0.000101149
2.29377e-08
1.17047e-07
0.00010114
-1.59163e-08
1.15991e-07
0.000101116
-5.26889e-08
1.14576e-07
0.000101111
-8.87833e-08
1.12765e-07
0.000101126
-1.2786e-07
1.10838e-07
0.000101126
-3.1174e-07
1.09101e-07
0.000101947
1.03376e-07
9.94051e-05
2.81754e-07
7.45361e-08
9.87222e-05
1.1117e-07
7.46193e-08
0.000101132
6.43014e-08
7.39527e-08
0.000100368
2.16232e-08
7.31241e-08
0.000100359
-1.74677e-08
7.20276e-08
0.000100336
-5.44695e-08
7.05709e-08
0.000100333
-9.09079e-08
6.87107e-08
0.000100348
-1.29583e-07
6.66077e-08
0.000100351
-3.13828e-07
6.38378e-08
0.000101171
5.88326e-08
9.86294e-05
2.82155e-07
3.441e-08
9.87142e-05
1.10538e-07
3.46041e-08
0.000101125
6.34491e-08
3.39438e-08
0.000100361
2.04936e-08
3.33205e-08
0.000100351
-1.89028e-08
3.24767e-08
0.000100328
-5.62516e-08
3.13945e-08
0.000100323
-9.30665e-08
3.00253e-08
0.000100337
-1.32098e-07
2.83533e-08
0.000100338
-3.19388e-07
2.60447e-08
0.000101161
2.25413e-08
9.86025e-05
2.81493e-07
-2.83318e-09
9.86949e-05
1.10114e-07
-2.78711e-09
0.000101104
6.2814e-08
-3.13364e-09
0.00010034
1.96186e-08
-3.35313e-09
0.00010033
-2.00231e-08
-3.66865e-09
0.000100307
-5.76533e-08
-4.01479e-09
0.000100301
-9.49074e-08
-4.44059e-09
0.000100314
-1.34279e-07
-5.0434e-09
0.000100313
-3.22593e-07
-6.43999e-09
0.000101137
-6.43338e-09
9.85685e-05
2.81389e-07
-3.97699e-08
9.86946e-05
1.09914e-07
-3.98628e-08
0.000101104
6.25501e-08
-3.98464e-08
0.00010034
1.93088e-08
-3.96109e-08
0.00010033
-2.03616e-08
-3.93237e-08
0.000100306
-5.80787e-08
-3.88308e-08
0.0001003
-9.55968e-08
-3.81607e-08
0.000100313
-1.35323e-07
-3.75151e-08
0.000100312
-3.23345e-07
-3.749e-08
0.000101135
-3.40276e-08
9.85647e-05
2.81861e-07
-7.88998e-08
9.8713e-05
1.09974e-07
-7.88592e-08
0.000101124
6.27098e-08
-7.86838e-08
0.000100359
1.96329e-08
-7.80984e-08
0.000100349
-1.98252e-08
-7.73515e-08
0.000100326
-5.7374e-08
-7.62246e-08
0.00010032
-9.49448e-08
-7.47207e-08
0.000100333
-1.34712e-07
-7.30165e-08
0.000100334
-3.21518e-07
-7.16693e-08
0.000101154
-6.58915e-08
9.85942e-05
2.81435e-07
-1.21373e-07
9.87212e-05
1.1042e-07
-1.22179e-07
0.000101131
6.33361e-08
-1.21367e-07
0.000100367
2.05302e-08
-1.20607e-07
0.000100357
-1.85934e-08
-1.19686e-07
0.000100334
-5.58227e-08
-1.18337e-07
0.00010033
-9.32224e-08
-1.16533e-07
0.000100344
-1.32947e-07
-1.14468e-07
0.000100347
-3.1627e-07
-1.13144e-07
0.000101163
-1.06604e-07
9.86219e-05
2.83927e-07
-2.95815e-07
9.95027e-05
1.11238e-07
-2.96657e-07
0.000101921
6.38294e-08
-2.93936e-07
0.00010115
2.13667e-08
-2.93586e-07
0.000101141
-1.75105e-08
-2.91575e-07
0.000101116
-5.44672e-08
-2.89222e-07
0.00010111
-9.1482e-08
-2.8651e-07
0.000101122
-1.31568e-07
-2.82098e-07
0.000101121
-3.1453e-07
-2.81608e-07
0.000101938
-2.72171e-07
9.93953e-05
2.83053e-07
9.70447e-05
1.10792e-07
9.94564e-05
6.48462e-08
9.86955e-05
2.3105e-08
9.86871e-05
-1.45942e-08
9.86682e-05
-5.0382e-08
9.86694e-05
-8.68429e-08
9.8691e-05
-1.26374e-07
9.87041e-05
-3.05533e-07
9.95152e-05
9.70241e-05
2.84542e-07
2.97089e-07
9.64684e-05
1.13013e-07
2.98473e-07
9.93335e-05
6.46772e-08
2.94755e-07
9.84544e-05
2.1301e-08
2.94326e-07
9.84413e-05
-1.87124e-08
2.91628e-07
9.84222e-05
-5.58129e-08
2.88548e-07
9.84239e-05
-9.12143e-08
2.84979e-07
9.84474e-05
-1.26989e-07
2.79265e-07
9.84669e-05
-3.06911e-07
2.76868e-07
9.94254e-05
2.64225e-07
9.64465e-05
2.86082e-07
1.21816e-07
9.93865e-05
1.13831e-07
1.22928e-07
0.000102265
6.38365e-08
1.21366e-07
0.00010137
1.96873e-08
1.20097e-07
0.000101356
-2.18357e-08
1.18374e-07
0.000101329
-6.05859e-08
1.15997e-07
0.000101321
-9.68391e-08
1.12821e-07
0.000101333
-1.34555e-07
1.09182e-07
0.000101334
-3.18679e-07
1.05408e-07
0.000102298
9.40536e-08
9.92504e-05
2.82561e-07
7.65956e-08
9.84822e-05
1.12226e-07
7.66486e-08
0.000101346
6.24025e-08
7.56342e-08
0.000100461
1.76003e-08
7.43777e-08
0.000100447
-2.44155e-08
7.25882e-08
0.000100422
-6.37306e-08
7.01178e-08
0.000100416
-1.00736e-07
6.67777e-08
0.000100429
-1.38326e-07
6.27417e-08
0.000100434
-3.25025e-07
5.7065e-08
0.0001014
4.61019e-08
9.83459e-05
2.82964e-07
3.55752e-08
9.84695e-05
1.11321e-07
3.58423e-08
0.000101335
6.11018e-08
3.48603e-08
0.000100449
1.57734e-08
3.39185e-08
0.000100434
-2.6871e-08
3.25561e-08
0.000100408
-6.69795e-08
3.073e-08
0.000100401
-1.04889e-07
2.82598e-08
0.000100412
-1.43741e-07
2.52054e-08
0.000100413
-3.36488e-07
2.06641e-08
0.000101384
1.28885e-08
9.8292e-05
2.81976e-07
-3.45635e-09
9.84493e-05
1.10665e-07
-3.36334e-09
0.000101312
6.01038e-08
-3.8648e-09
0.000100427
1.43473e-08
-4.16472e-09
0.000100411
-2.87876e-08
-4.6389e-09
0.000100385
-6.95243e-08
-5.17555e-09
0.000100376
-1.08204e-07
-5.88511e-09
0.000100385
-1.48086e-07
-6.69682e-09
0.000100383
-3.43909e-07
-8.82406e-09
0.000101356
-9.98377e-09
9.82385e-05
2.81836e-07
-4.21229e-08
9.84488e-05
1.10389e-07
-4.21888e-08
0.000101312
5.97288e-08
-4.21364e-08
0.000100426
1.38905e-08
-4.17165e-08
0.000100411
-2.93143e-08
-4.11766e-08
0.000100383
-7.01994e-08
-4.024e-08
0.000100374
-1.09104e-07
-3.89106e-08
0.000100383
-1.49457e-07
-3.72446e-08
0.000100381
-3.46364e-07
-3.68742e-08
0.000101352
-2.90562e-08
9.82324e-05
2.82553e-07
-8.1928e-08
9.84677e-05
1.10536e-07
-8.17524e-08
0.000101333
6.00406e-08
-8.14447e-08
0.000100446
1.44972e-08
-8.04972e-08
0.000100431
-2.83019e-08
-7.92052e-08
0.000100404
-6.878e-08
-7.71889e-08
0.000100396
-1.07433e-07
-7.43468e-08
0.000100405
-1.48055e-07
-7.0718e-08
0.000100405
-3.41423e-07
-6.75002e-08
0.000101374
-5.51524e-08
9.82739e-05
2.82152e-07
-1.25786e-07
9.84804e-05
1.11216e-07
-1.26673e-07
0.000101344
6.10629e-08
-1.25559e-07
0.000100458
1.60384e-08
-1.24388e-07
0.000100444
-2.60849e-08
-1.22831e-07
0.000100418
-6.57962e-08
-1.20481e-07
0.000100411
-1.03772e-07
-1.17184e-07
0.000100423
-1.4402e-07
-1.13014e-07
0.000100427
-3.30519e-07
-1.09707e-07
0.000101388
-9.607e-08
9.83286e-05
2.85278e-07
-3.00219e-07
9.93892e-05
1.12342e-07
-3.01025e-07
0.000102266
6.18806e-08
-2.97517e-07
0.00010137
1.74402e-08
-2.96724e-07
0.000101355
-2.41495e-08
-2.93557e-07
0.000101326
-6.31721e-08
-2.89674e-07
0.000101316
-1.00201e-07
-2.84928e-07
0.000101325
-1.40517e-07
-2.77558e-07
0.000101324
-3.23715e-07
-2.74085e-07
0.000102283
-2.58093e-07
9.92283e-05
2.84414e-07
9.64584e-05
1.12053e-07
9.9326e-05
6.35818e-08
9.84448e-05
2.03159e-08
9.8432e-05
-1.93144e-08
9.84129e-05
-5.62525e-08
9.84155e-05
-9.21821e-08
9.84408e-05
-1.30452e-07
9.84642e-05
-3.08671e-07
9.94145e-05
9.6456e-05
2.82781e-07
2.98312e-07
9.58858e-05
1.12399e-07
2.99821e-07
9.92025e-05
6.19444e-08
2.95162e-07
9.82082e-05
1.73015e-08
2.94202e-07
9.81905e-05
-2.41799e-08
2.90182e-07
9.81728e-05
-6.20773e-08
2.8539e-07
9.81768e-05
-9.53282e-08
2.79541e-07
9.82044e-05
-1.27701e-07
2.70497e-07
9.82319e-05
-2.93314e-07
2.65526e-07
9.93237e-05
2.44765e-07
9.59028e-05
2.84492e-07
1.23722e-07
9.92747e-05
1.13096e-07
1.24897e-07
0.00010261
6.04759e-08
1.22766e-07
0.000101593
1.45875e-08
1.20872e-07
0.000101574
-2.92337e-08
1.1811e-07
0.000101544
-6.98012e-08
1.1419e-07
0.000101533
-1.04873e-07
1.08749e-07
0.000101541
-1.39793e-07
1.02214e-07
0.000101539
-3.13679e-07
9.42191e-08
0.00010264
7.31159e-08
9.91043e-05
2.80121e-07
7.72527e-08
9.82464e-05
1.10895e-07
7.72118e-08
0.000101561
5.82846e-08
7.56917e-08
0.000100559
1.13434e-08
7.3772e-08
0.000100539
-3.34532e-08
7.08721e-08
0.000100512
-7.52194e-08
6.67237e-08
0.000100504
-1.11602e-07
6.09072e-08
0.000100516
-1.47613e-07
5.31381e-08
0.00010052
-3.28019e-07
4.22833e-08
0.000101627
1.76874e-08
9.8072e-05
2.80406e-07
3.57729e-08
9.82283e-05
1.09578e-07
3.60663e-08
0.000101545
5.62833e-08
3.46272e-08
0.000100541
8.38823e-09
3.31768e-08
0.00010052
-3.76385e-08
3.09556e-08
0.000100492
-8.09397e-08
2.7874e-08
0.000100482
-1.19487e-07
2.34977e-08
0.000100489
-1.57852e-07
1.77656e-08
0.000100486
-3.5239e-07
8.48552e-09
0.000101605
-1.11793e-08
9.79679e-05
2.78997e-07
-4.26274e-09
9.82081e-05
1.08556e-07
-4.12938e-09
0.000101521
5.46991e-08
-4.86159e-09
0.000100518
6.04037e-09
-5.31542e-09
0.000100496
-4.09241e-08
-6.07824e-09
0.000100467
-8.54648e-08
-6.96203e-09
0.000100454
-1.25714e-07
-8.05816e-09
0.000100457
-1.66672e-07
-9.50792e-09
0.00010045
-3.71903e-07
-1.43389e-08
0.000101574
-1.70888e-08
9.78751e-05
2.78789e-07
-4.38416e-08
9.82074e-05
1.08155e-07
-4.38445e-08
0.00010152
5.41294e-08
-4.37585e-08
0.000100517
5.31173e-09
-4.30877e-08
0.000100495
-4.17957e-08
-4.21698e-08
0.000100465
-8.64708e-08
-4.0494e-08
0.000100451
-1.27332e-07
-3.79739e-08
0.000100453
-1.70208e-07
-3.46503e-08
0.000100445
-3.77229e-07
-3.16958e-08
0.000101571
-1.75364e-08
9.78532e-05
2.79772e-07
-8.37941e-08
9.82257e-05
1.08421e-07
-8.34249e-08
0.000101541
5.46586e-08
-8.29276e-08
0.000100537
6.35003e-09
-8.14547e-08
0.000100515
-3.998e-08
-7.93095e-08
0.000100486
-8.37219e-08
-7.58012e-08
0.000100473
-1.23932e-07
-7.05551e-08
0.000100477
-1.65296e-07
-6.3129e-08
0.000100474
-3.67379e-07
-5.47202e-08
0.000101594
-2.7483e-08
9.7917e-05
2.79481e-07
-1.28593e-07
9.82434e-05
1.09432e-07
-1.2939e-07
0.000101558
5.62646e-08
-1.2789e-07
0.000100554
8.899e-09
-1.26106e-07
0.000100533
-3.61041e-08
-1.23538e-07
0.000100505
-7.8139e-08
-1.1951e-07
0.000100495
-1.16389e-07
-1.13544e-07
0.000100503
-1.5561e-07
-1.05301e-07
0.000100507
-3.43143e-07
-9.69306e-08
0.000101614
-6.96431e-08
9.80271e-05
2.83342e-07
-3.01693e-07
9.92766e-05
1.10964e-07
-3.02451e-07
0.000102609
5.75919e-08
-2.98076e-07
0.000101591
1.12123e-08
-2.96528e-07
0.00010157
-3.26938e-08
-2.91701e-07
0.000101536
-7.31443e-08
-2.8541e-07
0.000101521
-1.09206e-07
-2.77221e-07
0.000101524
-1.47212e-07
-2.64405e-07
0.00010152
-3.25884e-07
-2.57546e-07
0.000102616
-2.28323e-07
9.90615e-05
2.82481e-07
9.58724e-05
1.11016e-07
9.91934e-05
6.03171e-08
9.81958e-05
1.58557e-08
9.81785e-05
-2.48434e-08
9.81608e-05
-6.16687e-08
9.81662e-05
-9.48071e-08
9.81966e-05
-1.31091e-07
9.82331e-05
-2.9814e-07
9.93237e-05
9.59304e-05
2.7929e-07
2.9795e-07
9.53072e-05
1.10702e-07
2.99468e-07
9.90703e-05
5.82479e-08
2.93758e-07
9.79656e-05
1.2479e-08
2.91993e-07
9.79433e-05
-2.97926e-08
2.86267e-07
9.79284e-05
-6.72006e-08
2.79151e-07
9.79362e-05
-9.95716e-08
2.70045e-07
9.79691e-05
-1.29446e-07
2.56356e-07
9.80065e-05
-2.60746e-07
2.49268e-07
9.92014e-05
2.21455e-07
9.54502e-05
2.8106e-07
1.24681e-07
9.91652e-05
1.11074e-07
1.25792e-07
0.000102952
5.58535e-08
1.22929e-07
0.000101818
8.1719e-09
1.2013e-07
0.000101792
-3.75745e-08
1.1583e-07
0.000101759
-7.91353e-08
1.0955e-07
0.000101744
-1.14869e-07
1.00483e-07
0.000101748
-1.47816e-07
8.82591e-08
0.000101741
-2.85823e-07
7.22341e-08
0.000102955
2.94663e-08
9.90646e-05
2.75756e-07
7.70752e-08
9.80162e-05
1.08103e-07
7.68375e-08
0.000101775
5.25922e-08
7.46054e-08
0.00010066
3.25159e-09
7.16884e-08
0.000100634
-4.42905e-08
6.70679e-08
0.000100606
-8.81601e-08
6.02166e-08
0.000100597
-1.27444e-07
4.99001e-08
0.000100606
-1.64702e-07
3.54319e-08
0.000100609
-3.1808e-07
1.32595e-08
0.000101849
-4.32488e-08
9.78909e-05
2.75765e-07
3.52422e-08
9.79922e-05
1.06176e-07
3.54827e-08
0.000101753
4.95194e-08
3.34007e-08
0.000100636
-1.48741e-09
3.11572e-08
0.000100609
-5.13132e-08
2.75499e-08
0.000100579
-9.85107e-08
2.22743e-08
0.000100566
-1.42318e-07
1.43564e-08
0.000100567
-1.8665e-07
3.79596e-09
0.00010056
-3.75072e-07
-1.33653e-08
0.000101834
-5.46483e-08
9.76572e-05
2.73821e-07
-5.31462e-09
9.79726e-05
1.04599e-07
-5.16277e-09
0.000101728
4.70094e-08
-6.23917e-09
0.000100613
-5.33953e-09
-6.97869e-09
0.000100585
-5.6999e-08
-8.2778e-09
0.000100552
-1.06796e-07
-9.88031e-09
0.000100535
-1.53692e-07
-1.20789e-08
0.000100529
-2.02548e-07
-1.44737e-08
0.000100514
-4.17268e-07
-1.95917e-08
0.00010181
-2.80165e-08
9.7467e-05
2.73493e-07
-4.53053e-08
9.79717e-05
1.03989e-07
-4.51935e-08
0.000101727
4.60957e-08
-4.50903e-08
0.000100611
-6.58548e-09