/*--------------------------------*- C++ -*----------------------------------*\
  =========                 |
  \\      /  F ield         | OpenFOAM: The Open Source CFD Toolbox
   \\    /   O peration     | Website:  https://openfoam.org
    \\  /    A nd           | Version:  6
     \\/     M anipulation  |
\*---------------------------------------------------------------------------*/
FoamFile
{
    version     2.0;
    format      ascii;
    class       volScalarField;
    location    "0.925";
    object      T;
}
// * * * * * * * * * * * * * * * * * * * * * * * * * * * * * * * * * * * * * //

dimensions      [0 0 0 1 0 0 0];

internalField   nonuniform List<scalar> 
7000
(
106.669
106.668
106.666
106.663
106.66
106.656
106.652
106.649
106.646
106.645
106.669
106.668
106.666
106.663
106.66
106.656
106.652
106.649
106.646
106.645
106.669
106.668
106.666
106.663
106.66
106.656
106.652
106.649
106.646
106.645
106.669
106.668
106.666
106.663
106.66
106.656
106.652
106.649
106.646
106.645
106.669
106.668
106.666
106.663
106.66
106.656
106.652
106.649
106.646
106.645
106.669
106.668
106.666
106.663
106.66
106.656
106.652
106.649
106.646
106.645
106.669
106.668
106.666
106.663
106.66
106.656
106.652
106.649
106.646
106.645
106.669
106.668
106.666
106.663
106.66
106.656
106.652
106.649
106.646
106.645
106.669
106.668
106.666
106.663
106.66
106.656
106.652
106.649
106.646
106.645
106.669
106.668
106.666
106.663
106.66
106.656
106.652
106.649
106.646
106.645
100.028
100.024
100.018
100.009
99.9985
99.9867
99.9749
99.9644
99.9566
99.9523
100.028
100.024
100.018
100.009
99.9985
99.9867
99.9749
99.9644
99.9565
99.9523
100.028
100.024
100.018
100.009
99.9985
99.9866
99.9749
99.9644
99.9565
99.9523
100.028
100.024
100.018
100.009
99.9985
99.9866
99.9749
99.9644
99.9565
99.9523
100.028
100.024
100.018
100.009
99.9985
99.9866
99.9749
99.9644
99.9565
99.9523
100.028
100.024
100.018
100.009
99.9985
99.9866
99.9749
99.9644
99.9565
99.9523
100.028
100.024
100.018
100.009
99.9985
99.9866
99.9749
99.9644
99.9565
99.9523
100.028
100.024
100.018
100.009
99.9985
99.9866
99.9749
99.9644
99.9565
99.9523
100.028
100.024
100.018
100.009
99.9985
99.9866
99.9749
99.9644
99.9565
99.9523
100.028
100.024
100.018
100.009
99.9985
99.9867
99.9749
99.9644
99.9565
99.9523
93.4444
93.4389
93.4284
93.4134
93.3951
93.3748
93.3544
93.3361
93.3222
93.3147
93.4443
93.4389
93.4284
93.4134
93.3951
93.3748
93.3544
93.3361
93.3222
93.3147
93.4443
93.4389
93.4284
93.4134
93.3951
93.3748
93.3544
93.3361
93.3222
93.3147
93.4443
93.4389
93.4284
93.4134
93.3951
93.3748
93.3544
93.3361
93.3222
93.3147
93.4443
93.4389
93.4284
93.4134
93.395
93.3747
93.3544
93.3361
93.3222
93.3147
93.4443
93.4389
93.4284
93.4134
93.395
93.3747
93.3544
93.3361
93.3222
93.3147
93.4443
93.4389
93.4284
93.4134
93.395
93.3747
93.3544
93.3361
93.3222
93.3147
93.4443
93.4389
93.4284
93.4134
93.3951
93.3748
93.3544
93.3361
93.3222
93.3147
93.4443
93.4389
93.4284
93.4134
93.3951
93.3748
93.3544
93.3361
93.3222
93.3147
93.4443
93.4389
93.4284
93.4134
93.3951
93.3748
93.3544
93.3361
93.3222
93.3147
86.958
86.9504
86.9354
86.9141
86.8876
86.858
86.8279
86.8004
86.7792
86.7676
86.958
86.9503
86.9354
86.9141
86.8876
86.858
86.8279
86.8004
86.7792
86.7676
86.958
86.9503
86.9354
86.9141
86.8876
86.858
86.8278
86.8004
86.7792
86.7676
86.958
86.9503
86.9354
86.914
86.8876
86.858
86.8278
86.8004
86.7792
86.7676
86.958
86.9503
86.9354
86.914
86.8876
86.858
86.8278
86.8004
86.7792
86.7676
86.958
86.9503
86.9354
86.914
86.8876
86.858
86.8278
86.8004
86.7792
86.7676
86.958
86.9503
86.9354
86.914
86.8876
86.858
86.8278
86.8004
86.7792
86.7676
86.958
86.9503
86.9354
86.914
86.8876
86.858
86.8278
86.8004
86.7792
86.7676
86.958
86.9503
86.9354
86.9141
86.8876
86.858
86.8278
86.8004
86.7792
86.7676
86.958
86.9503
86.9354
86.9141
86.8876
86.858
86.8279
86.8004
86.7792
86.7676
80.6059
80.596
80.5767
80.5488
80.5137
80.4738
80.4322
80.3933
80.3626
80.3455
80.6059
80.596
80.5767
80.5487
80.5137
80.4737
80.4321
80.3933
80.3626
80.3454
80.6059
80.596
80.5766
80.5487
80.5137
80.4737
80.4321
80.3933
80.3626
80.3454
80.6058
80.596
80.5766
80.5487
80.5136
80.4737
80.4321
80.3933
80.3626
80.3454
80.6058
80.596
80.5766
80.5487
80.5136
80.4737
80.4321
80.3933
80.3626
80.3454
80.6058
80.596
80.5766
80.5487
80.5136
80.4737
80.4321
80.3933
80.3626
80.3454
80.6058
80.596
80.5766
80.5487
80.5136
80.4737
80.4321
80.3933
80.3626
80.3454
80.6058
80.596
80.5766
80.5487
80.5136
80.4737
80.4321
80.3933
80.3626
80.3454
80.6059
80.596
80.5766
80.5487
80.5137
80.4737
80.4321
80.3933
80.3626
80.3454
80.6059
80.596
80.5767
80.5487
80.5137
80.4737
80.4321
80.3933
80.3626
80.3455
74.4237
74.4118
74.3883
74.354
74.3101
74.2588
74.2037
74.1503
74.1063
74.0808
74.4236
74.4117
74.3883
74.3539
74.3101
74.2588
74.2037
74.1503
74.1063
74.0808
74.4236
74.4117
74.3882
74.3539
74.31
74.2588
74.2036
74.1502
74.1063
74.0808
74.4236
74.4117
74.3882
74.3539
74.31
74.2587
74.2036
74.1502
74.1063
74.0808
74.4236
74.4117
74.3882
74.3539
74.31
74.2587
74.2036
74.1502
74.1063
74.0808
74.4236
74.4117
74.3882
74.3539
74.31
74.2587
74.2036
74.1502
74.1063
74.0808
74.4236
74.4117
74.3882
74.3539
74.31
74.2587
74.2036
74.1502
74.1063
74.0808
74.4236
74.4117
74.3882
74.3539
74.31
74.2587
74.2036
74.1502
74.1063
74.0808
74.4236
74.4117
74.3882
74.3539
74.31
74.2588
74.2037
74.1503
74.1063
74.0808
74.4236
74.4117
74.3883
74.3539
74.3101
74.2588
74.2037
74.1503
74.1063
74.0808
68.4449
68.4314
68.4047
68.3649
68.3128
68.2498
68.179
68.1063
68.0425
68.0031
68.4449
68.4314
68.4046
68.3649
68.3127
68.2498
68.1789
68.1063
68.0425
68.0031
68.4448
68.4314
68.4046
68.3648
68.3127
68.2497
68.1789
68.1063
68.0425
68.0031
68.4448
68.4313
68.4046
68.3648
68.3127
68.2497
68.1789
68.1063
68.0425
68.0031
68.4448
68.4313
68.4046
68.3648
68.3127
68.2497
68.1789
68.1062
68.0424
68.003
68.4448
68.4313
68.4046
68.3648
68.3127
68.2497
68.1789
68.1062
68.0424
68.003
68.4448
68.4313
68.4046
68.3648
68.3127
68.2497
68.1789
68.1063
68.0425
68.003
68.4448
68.4313
68.4046
68.3648
68.3127
68.2497
68.1789
68.1063
68.0425
68.0031
68.4448
68.4314
68.4046
68.3648
68.3127
68.2497
68.1789
68.1063
68.0425
68.0031
68.4448
68.4314
68.4046
68.3649
68.3128
68.2498
68.179
68.1063
68.0425
68.0031
62.7004
62.6863
62.6579
62.6149
62.5569
62.4834
62.3956
62.2976
62.2021
62.1359
62.7003
62.6862
62.6578
62.6149
62.5568
62.4834
62.3955
62.2975
62.2021
62.1359
62.7003
62.6862
62.6578
62.6148
62.5568
62.4834
62.3955
62.2975
62.2021
62.1359
62.7003
62.6862
62.6578
62.6148
62.5568
62.4833
62.3955
62.2975
62.202
62.1359
62.7003
62.6861
62.6578
62.6148
62.5568
62.4833
62.3954
62.2975
62.202
62.1358
62.7003
62.6861
62.6578
62.6148
62.5567
62.4833
62.3954
62.2975
62.202
62.1358
62.7003
62.6861
62.6578
62.6148
62.5568
62.4833
62.3954
62.2975
62.202
62.1358
62.7003
62.6862
62.6578
62.6148
62.5568
62.4834
62.3955
62.2975
62.2021
62.1359
62.7003
62.6862
62.6578
62.6149
62.5568
62.4834
62.3955
62.2975
62.2021
62.1359
62.7003
62.6862
62.6579
62.6149
62.5568
62.4834
62.3955
62.2976
62.2021
62.1359
57.2173
57.204
57.1769
57.1349
57.0761
56.9972
56.8943
56.765
56.6169
56.4906
57.2172
57.2039
57.1768
57.1349
57.076
56.9971
56.8942
56.7649
56.6169
56.4906
57.2172
57.2039
57.1768
57.1349
57.076
56.9971
56.8942
56.7649
56.6168
56.4905
57.2172
57.2039
57.1768
57.1348
57.076
56.9971
56.8941
56.7648
56.6168
56.4905
57.2172
57.2038
57.1768
57.1348
57.076
56.997
56.8941
56.7648
56.6168
56.4905
57.2172
57.2038
57.1768
57.1348
57.076
56.997
56.8941
56.7648
56.6168
56.4905
57.2172
57.2038
57.1768
57.1348
57.076
56.9971
56.8941
56.7648
56.6168
56.4905
57.2172
57.2039
57.1768
57.1348
57.076
56.9971
56.8942
56.7649
56.6168
56.4905
57.2172
57.2039
57.1768
57.1349
57.076
56.9971
56.8942
56.7649
56.6169
56.4906
57.2172
57.2039
57.1769
57.1349
57.076
56.9971
56.8942
56.7649
56.6169
56.4906
52.0183
52.0078
51.9863
51.9521
51.9017
51.8288
51.7221
51.5633
51.3315
51.0471
52.0182
52.0078
51.9862
51.952
51.9017
51.8288
51.7221
51.5633
51.3314
51.0471
52.0182
52.0077
51.9862
51.952
51.9016
51.8288
51.722
51.5632
51.3314
51.047
52.0182
52.0077
51.9862
51.952
51.9016
51.8287
51.722
51.5632
51.3313
51.047
52.0181
52.0077
51.9862
51.9519
51.9016
51.8287
51.722
51.5632
51.3313
51.047
52.0181
52.0077
51.9862
51.9519
51.9016
51.8287
51.722
51.5632
51.3313
51.047
52.0181
52.0077
51.9862
51.9519
51.9016
51.8287
51.722
51.5632
51.3313
51.047
52.0182
52.0077
51.9862
51.952
51.9016
51.8287
51.722
51.5632
51.3314
51.047
52.0182
52.0077
51.9862
51.952
51.9017
51.8288
51.722
51.5633
51.3314
51.047
52.0182
52.0078
51.9863
51.952
51.9017
51.8288
51.7221
51.5633
51.3314
51.0471
47.1206
47.1155
47.105
47.0875
47.0597
47.0138
46.9329
46.7792
46.4579
45.6922
47.1206
47.1155
47.1049
47.0875
47.0596
47.0137
46.9329
46.7791
46.4578
45.6921
47.1205
47.1155
47.1049
47.0874
47.0596
47.0137
46.9328
46.7791
46.4577
45.6921
47.1205
47.1154
47.1049
47.0874
47.0596
47.0137
46.9328
46.7791
46.4577
45.692
47.1205
47.1154
47.1049
47.0874
47.0596
47.0136
46.9328
46.779
46.4577
45.692
47.1205
47.1154
47.1049
47.0874
47.0596
47.0136
46.9328
46.779
46.4577
45.692
47.1205
47.1154
47.1049
47.0874
47.0596
47.0136
46.9328
46.7791
46.4577
45.692
47.1205
47.1154
47.1049
47.0874
47.0596
47.0137
46.9328
46.7791
46.4577
45.692
47.1205
47.1155
47.1049
47.0874
47.0596
47.0137
46.9329
46.7791
46.4578
45.6921
47.1206
47.1155
47.105
47.0875
47.0597
47.0138
46.9329
46.7792
46.4578
45.6921
42.5355
42.5384
42.5446
42.5539
42.5653
42.5747
42.5722
42.5361
42.4251
42.181
42.5354
42.5384
42.5445
42.5538
42.5652
42.5746
42.5721
42.536
42.425
42.1809
42.5354
42.5383
42.5445
42.5538
42.5652
42.5746
42.5721
42.536
42.425
42.1809
42.5353
42.5383
42.5445
42.5538
42.5651
42.5745
42.572
42.536
42.425
42.1808
42.5353
42.5383
42.5444
42.5538
42.5651
42.5745
42.572
42.5359
42.4249
42.1808
42.5353
42.5383
42.5444
42.5538
42.5651
42.5745
42.572
42.5359
42.4249
42.1808
42.5353
42.5383
42.5445
42.5538
42.5651
42.5745
42.572
42.5359
42.425
42.1808
42.5354
42.5383
42.5445
42.5538
42.5651
42.5746
42.572
42.536
42.425
42.1808
42.5354
42.5383
42.5445
42.5538
42.5652
42.5746
42.5721
42.536
42.425
42.1809
42.5354
42.5384
42.5446
42.5539
42.5652
42.5746
42.5721
42.5361
42.4251
42.1809
38.2676
38.2808
38.3085
38.3532
38.4178
38.5057
38.6197
38.7635
38.9475
39.2153
38.2675
38.2807
38.3085
38.3531
38.4177
38.5056
38.6197
38.7634
38.9474
39.2153
38.2675
38.2807
38.3084
38.3531
38.4177
38.5056
38.6196
38.7633
38.9473
39.2152
38.2675
38.2807
38.3084
38.3531
38.4177
38.5055
38.6196
38.7633
38.9473
39.2152
38.2675
38.2807
38.3084
38.353
38.4177
38.5055
38.6196
38.7633
38.9473
39.2152
38.2674
38.2807
38.3084
38.353
38.4177
38.5055
38.6196
38.7633
38.9473
39.2152
38.2675
38.2807
38.3084
38.353
38.4177
38.5055
38.6196
38.7633
38.9473
39.2152
38.2675
38.2807
38.3084
38.3531
38.4177
38.5055
38.6196
38.7633
38.9473
39.2152
38.2675
38.2807
38.3085
38.3531
38.4177
38.5056
38.6196
38.7634
38.9474
39.2153
38.2675
38.2808
38.3085
38.3532
38.4178
38.5056
38.6197
38.7634
38.9474
39.2153
34.3156
34.3404
34.3926
34.4776
34.6032
34.7808
35.0259
35.3611
35.8236
36.4817
34.3156
34.3404
34.3926
34.4775
34.6032
34.7808
35.0259
35.3611
35.8235
36.4817
34.3156
34.3403
34.3926
34.4775
34.6031
34.7807
35.0258
35.361
35.8235
36.4816
34.3155
34.3403
34.3925
34.4774
34.6031
34.7807
35.0258
35.361
35.8234
36.4816
34.3155
34.3403
34.3925
34.4774
34.6031
34.7807
35.0258
35.361
35.8234
36.4815
34.3155
34.3403
34.3925
34.4774
34.6031
34.7807
35.0258
35.361
35.8234
36.4815
34.3155
34.3403
34.3925
34.4774
34.6031
34.7807
35.0258
35.361
35.8234
36.4816
34.3155
34.3403
34.3925
34.4775
34.6031
34.7807
35.0258
35.361
35.8235
36.4816
34.3156
34.3404
34.3926
34.4775
34.6031
34.7808
35.0259
35.361
35.8235
36.4816
34.3156
34.3404
34.3926
34.4775
34.6032
34.7808
35.0259
35.3611
35.8236
36.4817
30.6732
30.7097
30.7867
30.9122
31.0993
31.3662
31.7384
32.2506
32.9504
33.9034
30.6731
30.7096
30.7866
30.9122
31.0992
31.3661
31.7383
32.2505
32.9503
33.9033
30.6731
30.7096
30.7866
30.9121
31.0992
31.3661
31.7383
32.2505
32.9503
33.9033
30.6731
30.7096
30.7865
30.9121
31.0991
31.366
31.7382
32.2504
32.9503
33.9032
30.6731
30.7095
30.7865
30.9121
31.0991
31.366
31.7382
32.2504
32.9502
33.9032
30.6731
30.7095
30.7865
30.9121
31.0991
31.366
31.7382
32.2504
32.9502
33.9032
30.6731
30.7096
30.7865
30.9121
31.0991
31.366
31.7382
32.2504
32.9503
33.9032
30.6731
30.7096
30.7865
30.9121
31.0992
31.3661
31.7383
32.2505
32.9503
33.9033
30.6731
30.7096
30.7866
30.9122
31.0992
31.3661
31.7383
32.2505
32.9503
33.9033
30.6731
30.7096
30.7866
30.9122
31.0993
31.3662
31.7384
32.2506
32.9504
33.9034
27.3299
27.3769
27.4762
27.6383
27.8802
28.2262
28.7099
29.3745
30.2732
31.4643
27.3298
27.3769
27.4762
27.6383
27.8801
28.2262
28.7098
29.3744
30.2732
31.4642
27.3298
27.3769
27.4761
27.6382
27.8801
28.2261
28.7098
29.3744
30.2731
31.4641
27.3298
27.3768
27.4761
27.6382
27.8801
28.2261
28.7097
29.3744
30.2731
31.4641
27.3298
27.3768
27.4761
27.6382
27.8801
28.2261
28.7097
29.3743
30.2731
31.4641
27.3297
27.3768
27.4761
27.6382
27.8801
28.2261
28.7097
29.3743
30.2731
31.4641
27.3298
27.3768
27.4761
27.6382
27.8801
28.2261
28.7097
29.3744
30.2731
31.4641
27.3298
27.3768
27.4761
27.6382
27.8801
28.2261
28.7098
29.3744
30.2731
31.4641
27.3298
27.3769
27.4762
27.6383
27.8801
28.2262
28.7098
29.3744
30.2731
31.4642
27.3298
27.3769
27.4762
27.6383
27.8802
28.2262
28.7099
29.3745
30.2732
31.4642
24.273
24.3284
24.445
24.6355
24.9196
25.3267
25.8973
26.6843
27.7507
29.1568
24.273
24.3283
24.445
24.6354
24.9195
25.3267
25.8973
26.6843
27.7506
29.1568
24.2729
24.3283
24.445
24.6354
24.9195
25.3266
25.8972
26.6842
27.7506
29.1567
24.2729
24.3283
24.4449
24.6353
24.9195
25.3266
25.8972
26.6842
27.7506
29.1567
24.2729
24.3282
24.4449
24.6353
24.9195
25.3266
25.8972
26.6842
27.7505
29.1567
24.2729
24.3282
24.4449
24.6353
24.9195
25.3266
25.8972
26.6842
27.7505
29.1567
24.2729
24.3283
24.4449
24.6353
24.9195
25.3266
25.8972
26.6842
27.7506
29.1567
24.2729
24.3283
24.4449
24.6354
24.9195
25.3266
25.8972
26.6842
27.7506
29.1567
24.273
24.3283
24.445
24.6354
24.9195
25.3267
25.8973
26.6843
27.7506
29.1568
24.273
24.3283
24.445
24.6354
24.9196
25.3267
25.8973
26.6843
27.7507
29.1568
21.4891
21.5495
21.6767
21.8839
22.1927
22.6354
23.2588
24.1279
25.3286
26.9533
21.489
21.5494
21.6767
21.8839
22.1927
22.6354
23.2587
24.1279
25.3286
26.9532
21.489
21.5494
21.6766
21.8838
22.1926
22.6353
23.2587
24.1278
25.3285
26.9532
21.489
21.5494
21.6766
21.8838
22.1926
22.6353
23.2586
24.1278
25.3285
26.9531
21.4889
21.5494
21.6766
21.8838
22.1926
22.6353
23.2586
24.1278
25.3285
26.9531
21.4889
21.5494
21.6766
21.8838
22.1926
22.6353
23.2586
24.1278
25.3285
26.9531
21.4889
21.5494
21.6766
21.8838
22.1926
22.6353
23.2586
24.1278
25.3285
26.9531
21.489
21.5494
21.6766
21.8838
22.1926
22.6353
23.2587
24.1278
25.3285
26.9532
21.489
21.5494
21.6767
21.8839
22.1927
22.6354
23.2587
24.1279
25.3286
26.9532
21.489
21.5495
21.6767
21.8839
22.1927
22.6354
23.2588
24.1279
25.3286
26.9533
18.9648
19.0266
19.1565
19.367
19.6792
20.1251
20.7538
21.6415
22.9112
24.7559
18.9647
19.0266
19.1564
19.3669
19.6791
20.1251
20.7538
21.6415
22.9111
24.7558
18.9647
19.0266
19.1564
19.3669
19.6791
20.125
20.7538
21.6414
22.9111
24.7558
18.9647
19.0265
19.1564
19.3669
19.679
20.125
20.7537
21.6414
22.9111
24.7558
18.9647
19.0265
19.1563
19.3669
19.679
20.125
20.7537
21.6414
22.9111
24.7558
18.9647
19.0265
19.1563
19.3669
19.679
20.125
20.7537
21.6414
22.9111
24.7558
18.9647
19.0265
19.1564
19.3669
19.679
20.125
20.7537
21.6414
22.9111
24.7558
18.9647
19.0266
19.1564
19.3669
19.6791
20.1251
20.7538
21.6414
22.9111
24.7558
18.9647
19.0266
19.1564
19.3669
19.6791
20.1251
20.7538
21.6415
22.9112
24.7559
18.9647
19.0266
19.1565
19.367
19.6792
20.1251
20.7539
21.6415
22.9112
24.7559
16.6883
16.748
16.8726
17.0729
17.3665
17.7801
18.3545
19.1584
20.33
22.2338
16.6883
16.748
16.8726
17.0729
17.3665
17.78
18.3545
19.1584
20.3299
22.2337
16.6882
16.7479
16.8725
17.0729
17.3665
17.78
18.3544
19.1583
20.3299
22.2337
16.6882
16.7479
16.8725
17.0728
17.3664
17.78
18.3544
19.1583
20.3298
22.2337
16.6882
16.7479
16.8725
17.0728
17.3664
17.78
18.3544
19.1583
20.3298
22.2337
16.6882
16.7479
16.8725
17.0728
17.3664
17.78
18.3544
19.1583
20.3298
22.2337
16.6882
16.7479
16.8725
17.0728
17.3664
17.78
18.3544
19.1583
20.3298
22.2337
16.6882
16.7479
16.8725
17.0729
17.3665
17.78
18.3544
19.1583
20.3299
22.2337
16.6883
16.748
16.8726
17.0729
17.3665
17.78
18.3545
19.1584
20.3299
22.2338
16.6883
16.748
16.8726
17.0729
17.3665
17.7801
18.3545
19.1584
20.33
22.2338
43.5125
43.4888
45.0196
47.9156
52.1748
57.9216
65.4143
75.1109
87.8441
105.287
43.5124
43.4887
45.0195
47.9155
52.1747
57.9215
65.4142
75.1108
87.844
105.287
43.5123
43.4887
45.0194
47.9155
52.1746
57.9214
65.4141
75.1107
87.8439
105.287
43.5123
43.4886
45.0194
47.9154
52.1746
57.9214
65.4141
75.1107
87.8438
105.287
43.5123
43.4886
45.0194
47.9154
52.1745
57.9213
65.414
75.1106
87.8438
105.287
43.5123
43.4886
45.0194
47.9154
52.1745
57.9213
65.414
75.1106
87.8438
105.287
43.5123
43.4886
45.0194
47.9154
52.1746
57.9213
65.414
75.1106
87.8438
105.287
43.5123
43.4886
45.0194
47.9154
52.1746
57.9214
65.4141
75.1107
87.8438
105.287
43.5123
43.4887
45.0195
47.9155
52.1746
57.9214
65.4141
75.1107
87.8439
105.287
43.5124
43.4887
45.0195
47.9155
52.1747
57.9215
65.4142
75.1108
87.844
105.287
41.8475
42.4753
44.2392
47.1771
51.3483
56.8699
63.9339
72.8226
83.9015
97.4663
41.8474
42.4752
44.2391
47.177
51.3482
56.8698
63.9338
72.8225
83.9013
97.4662
41.8473
42.4752
44.239
47.177
51.3481
56.8697
63.9337
72.8224
83.9013
97.4661
41.8473
42.4751
44.239
47.1769
51.3481
56.8696
63.9337
72.8224
83.9012
97.466
41.8473
42.4751
44.2389
47.1769
51.3481
56.8696
63.9336
72.8224
83.9012
97.466
41.8473
42.4751
44.2389
47.1769
51.3481
56.8696
63.9336
72.8224
83.9012
97.466
41.8473
42.4751
44.2389
47.1769
51.3481
56.8696
63.9337
72.8224
83.9012
97.466
41.8473
42.4751
44.239
47.1769
51.3481
56.8697
63.9337
72.8224
83.9012
97.4661
41.8473
42.4752
44.239
47.177
51.3482
56.8697
63.9338
72.8225
83.9013
97.4662
41.8474
42.4753
44.2391
47.1771
51.3483
56.8698
63.9339
72.8226
83.9014
97.4663
39.7218
40.8705
42.8707
45.8304
49.8324
54.9695
61.352
69.0926
78.2415
88.6039
39.7217
40.8704
42.8706
45.8303
49.8323
54.9694
61.3519
69.0925
78.2414
88.6038
39.7216
40.8703
42.8706
45.8302
49.8322
54.9693
61.3518
69.0924
78.2413
88.6037
39.7216
40.8703
42.8705
45.8301
49.8322
54.9692
61.3517
69.0924
78.2413
88.6036
39.7216
40.8702
42.8705
45.8301
49.8322
54.9692
61.3517
69.0923
78.2412
88.6036
39.7216
40.8702
42.8705
45.8301
49.8322
54.9692
61.3517
69.0923
78.2412
88.6036
39.7216
40.8703
42.8705
45.8301
49.8322
54.9692
61.3517
69.0924
78.2412
88.6036
39.7216
40.8703
42.8706
45.8302
49.8322
54.9693
61.3518
69.0924
78.2413
88.6037
39.7217
40.8703
42.8706
45.8302
49.8323
54.9693
61.3518
69.0925
78.2414
88.6037
39.7217
40.8704
42.8707
45.8303
49.8324
54.9694
61.3519
69.0926
78.2415
88.6038
37.4625
38.9623
41.1303
44.0659
47.8415
52.5161
58.1338
64.7019
72.1372
80.1689
37.4624
38.9622
41.1302
44.0658
47.8414
52.516
58.1337
64.7017
72.1371
80.1688
37.4623
38.9621
41.1301
44.0658
47.8413
52.5159
58.1336
64.7017
72.137
80.1687
37.4623
38.9621
41.1301
44.0657
47.8413
52.5159
58.1336
64.7016
72.1369
80.1686
37.4623
38.9621
41.1301
44.0657
47.8413
52.5158
58.1335
64.7016
72.1369
80.1686
37.4623
38.9621
41.13
44.0657
47.8413
52.5158
58.1335
64.7016
72.1369
80.1686
37.4623
38.9621
41.1301
44.0657
47.8413
52.5159
58.1336
64.7016
72.1369
80.1686
37.4623
38.9621
41.1301
44.0657
47.8413
52.5159
58.1336
64.7016
72.137
80.1687
37.4624
38.9622
41.1302
44.0658
47.8414
52.516
58.1337
64.7017
72.1371
80.1688
37.4625
38.9623
41.1302
44.0659
47.8415
52.5161
58.1338
64.7018
72.1372
80.1689
35.1973
36.9362
39.2097
42.0853
45.61
49.8101
54.6849
60.1892
66.2042
72.5007
35.1973
36.9361
39.2096
42.0852
45.6099
49.81
54.6848
60.1891
66.2041
72.5006
35.1972
36.936
39.2095
42.0852
45.6098
49.8099
54.6847
60.189
66.204
72.5005
35.1972
36.936
39.2095
42.0851
45.6097
49.8098
54.6846
60.189
66.2039
72.5005
35.1971
36.9359
39.2095
42.0851
45.6097
49.8098
54.6846
60.1889
66.2039
72.5004
35.1971
36.9359
39.2095
42.0851
45.6097
49.8098
54.6846
60.1889
66.2039
72.5004
35.1971
36.936
39.2095
42.0851
45.6097
49.8098
54.6846
60.1889
66.2039
72.5005
35.1972
36.936
39.2095
42.0852
45.6098
49.8099
54.6847
60.189
66.204
72.5005
35.1972
36.9361
39.2096
42.0852
45.6098
49.81
54.6848
60.1891
66.2041
72.5006
35.1973
36.9361
39.2097
42.0853
45.6099
49.8101
54.6849
60.1892
66.2042
72.5007
33.0014
34.9253
37.2732
40.0776
43.3587
47.1167
51.3227
55.9078
60.7538
65.6894
33.0014
34.9252
37.2731
40.0775
43.3586
47.1166
51.3226
55.9077
60.7537
65.6893
33.0013
34.9252
37.2731
40.0774
43.3585
47.1165
51.3225
55.9076
60.7536
65.6892
33.0013
34.9251
37.273
40.0773
43.3584
47.1165
51.3225
55.9076
60.7535
65.6891
33.0012
34.9251
37.273
40.0773
43.3584
47.1165
51.3224
55.9076
60.7535
65.6891
33.0012
34.9251
37.273
40.0773
43.3584
47.1165
51.3224
55.9076
60.7535
65.6891
33.0013
34.9251
37.273
40.0773
43.3584
47.1165
51.3225
55.9076
60.7535
65.6891
33.0013
34.9252
37.2731
40.0774
43.3585
47.1165
51.3225
55.9076
60.7536
65.6892
33.0013
34.9252
37.2731
40.0775
43.3586
47.1166
51.3226
55.9077
60.7537
65.6893
33.0014
34.9253
37.2732
40.0775
43.3586
47.1167
51.3227
55.9078
60.7538
65.6894
30.9306
33.0379
35.4639
38.2118
41.2828
44.6591
48.2934
52.1029
55.9727
59.7741
30.9305
33.0378
35.4638
38.2117
41.2827
44.659
48.2933
52.1028
55.9726
59.774
30.9305
33.0378
35.4637
38.2116
41.2826
44.659
48.2932
52.1027
55.9725
59.7739
30.9304
33.0377
35.4637
38.2116
41.2826
44.6589
48.2932
52.1026
55.9725
59.7739
30.9304
33.0377
35.4636
38.2115
41.2825
44.6589
48.2931
52.1026
55.9724
59.7739
30.9304
33.0377
35.4636
38.2115
41.2825
44.6589
48.2931
52.1026
55.9724
59.7739
30.9304
33.0377
35.4637
38.2116
41.2826
44.6589
48.2932
52.1026
55.9725
59.7739
30.9305
33.0378
35.4637
38.2116
41.2826
44.659
48.2932
52.1027
55.9725
59.7739
30.9305
33.0378
35.4638
38.2117
41.2827
44.659
48.2933
52.1028
55.9726
59.774
30.9306
33.0379
35.4639
38.2118
41.2828
44.6591
48.2934
52.1029
55.9727
59.7741
29.0326
31.3747
33.912
36.6379
39.5501
42.6232
45.7962
48.9693
52.0125
54.8015
29.0325
31.3747
33.912
36.6378
39.55
42.6231
45.7961
48.9692
52.0124
54.8014
29.0325
31.3746
33.9119
36.6378
39.55
42.6231
45.7961
48.9691
52.0123
54.8013
29.0325
31.3746
33.9119
36.6377
39.5499
42.623
45.796
48.969
52.0123
54.8012
29.0324
31.3745
33.9118
36.6377
39.5499
42.623
45.796
48.969
52.0122
54.8012
29.0324
31.3746
33.9118
36.6377
39.5499
42.623
45.796
48.969
52.0122
54.8012
29.0325
31.3746
33.9119
36.6377
39.5499
42.623
45.796
48.969
52.0123
54.8012
29.0325
31.3746
33.9119
36.6378
39.55
42.6231
45.7961
48.9691
52.0123
54.8013
29.0326
31.3747
33.912
36.6378
39.55
42.6232
45.7962
48.9692
52.0124
54.8014
29.0326
31.3747
33.9121
36.6379
39.5501
42.6233
45.7963
48.9693
52.0125
54.8015
27.3701
30.0533
32.7466
35.4888
38.3014
41.163
44.002
46.6917
49.0519
50.8761
27.37
30.0532
32.7465
35.4888
38.3013
41.1629
44.0019
46.6916
49.0518
50.876
27.3699
30.0532
32.7465
35.4887
38.3013
41.1629
44.0018
46.6915
49.0517
50.8759
27.3699
30.0532
32.7464
35.4887
38.3012
41.1628
44.0017
46.6915
49.0517
50.8759
27.3699
30.0531
32.7464
35.4886
38.3012
41.1628
44.0017
46.6914
49.0517
50.8758
27.3699
30.0531
32.7464
35.4886
38.3012
41.1628
44.0017
46.6914
49.0517
50.8758
27.3699
30.0532
32.7464
35.4887
38.3012
41.1628
44.0018
46.6915
49.0517
50.8759
27.3699
30.0532
32.7465
35.4887
38.3013
41.1629
44.0018
46.6915
49.0517
50.8759
27.37
30.0533
32.7466
35.4888
38.3014
41.163
44.0019
46.6916
49.0518
50.876
27.3701
30.0533
32.7466
35.4889
38.3015
41.1631
44.002
46.6917
49.0519
50.8761
26.1262
29.2523
32.1028
34.8772
37.6455
40.398
43.056
45.4651
47.3662
48.3163
26.1262
29.2522
32.1028
34.8771
37.6454
40.3979
43.0559
45.465
47.3662
48.3162
26.1261
29.2522
32.1027
34.877
37.6454
40.3979
43.0559
45.465
47.3661
48.3161
26.1261
29.2522
32.1027
34.877
37.6454
40.3978
43.0558
45.4649
47.366
48.3161
26.1261
29.2521
32.1026
34.877
37.6453
40.3978
43.0558
45.4649
47.366
48.316
26.1261
29.2521
32.1027
34.877
37.6453
40.3978
43.0558
45.4649
47.366
48.316
26.1261
29.2522
32.1027
34.877
37.6454
40.3978
43.0558
45.4649
47.3661
48.3161
26.1261
29.2522
32.1027
34.8771
37.6454
40.3979
43.0559
45.465
47.3661
48.3161
26.1262
29.2523
32.1028
34.8771
37.6455
40.398
43.056
45.4651
47.3662
48.3162
26.1263
29.2523
32.1029
34.8772
37.6456
40.3981
43.0561
45.4652
47.3663
48.3163
131.33
143.815
151.539
156.996
161.065
164.142
166.436
168.072
169.126
169.642
131.33
143.815
151.539
156.995
161.065
164.142
166.436
168.072
169.125
169.642
131.33
143.814
151.539
156.995
161.065
164.142
166.436
168.072
169.125
169.642
131.33
143.814
151.539
156.995
161.065
164.142
166.436
168.072
169.125
169.642
131.33
143.814
151.539
156.995
161.065
164.142
166.436
168.072
169.125
169.642
131.33
143.814
151.539
156.995
161.065
164.142
166.436
168.072
169.125
169.642
131.33
143.814
151.539
156.995
161.065
164.142
166.436
168.072
169.125
169.642
131.33
143.814
151.539
156.995
161.065
164.142
166.436
168.072
169.125
169.642
131.33
143.814
151.539
156.995
161.065
164.142
166.436
168.072
169.126
169.642
131.33
143.815
151.539
156.996
161.065
164.142
166.436
168.072
169.126
169.642
112.856
124.096
132.093
137.939
142.308
145.594
148.03
149.759
150.869
151.412
112.856
124.096
132.093
137.938
142.308
145.594
148.03
149.759
150.869
151.412
112.856
124.096
132.093
137.938
142.308
145.594
148.03
149.759
150.869
151.412
112.856
124.096
132.093
137.938
142.308
145.594
148.03
149.759
150.869
151.412
112.856
124.095
132.093
137.938
142.308
145.594
148.03
149.759
150.869
151.412
112.856
124.095
132.093
137.938
142.308
145.594
148.03
149.759
150.869
151.412
112.856
124.096
132.093
137.938
142.308
145.594
148.03
149.759
150.869
151.412
112.856
124.096
132.093
137.938
142.308
145.594
148.03
149.759
150.869
151.412
112.856
124.096
132.093
137.938
142.308
145.594
148.03
149.759
150.869
151.412
112.856
124.096
132.093
137.939
142.308
145.594
148.03
149.759
150.869
151.412
99.3252
108.42
115.608
121.174
125.459
128.727
131.167
132.904
134.021
134.568
99.325
108.42
115.608
121.174
125.459
128.727
131.167
132.904
134.021
134.568
99.3249
108.42
115.607
121.174
125.458
128.727
131.166
132.904
134.021
134.568
99.3249
108.42
115.607
121.174
125.458
128.727
131.166
132.904
134.021
134.568
99.3248
108.42
115.607
121.174
125.458
128.727
131.166
132.903
134.021
134.568
99.3248
108.42
115.607
121.174
125.458
128.727
131.166
132.903
134.021
134.568
99.3249
108.42
115.607
121.174
125.458
128.727
131.166
132.904
134.021
134.568
99.3249
108.42
115.607
121.174
125.458
128.727
131.166
132.904
134.021
134.568
99.325
108.42
115.608
121.174
125.459
128.727
131.167
132.904
134.021
134.568
99.3251
108.42
115.608
121.174
125.459
128.727
131.167
132.904
134.021
134.568
88.2201
95.4642
101.564
106.522
110.463
113.533
115.856
117.523
118.6
119.129
88.2199
95.4641
101.564
106.522
110.463
113.533
115.855
117.523
118.6
119.129
88.2198
95.464
101.564
106.521
110.463
113.533
115.855
117.523
118.6
119.129
88.2198
95.464
101.564
106.521
110.463
113.533
115.855
117.523
118.6
119.129
88.2198
95.4639
101.564
106.521
110.463
113.533
115.855
117.522
118.6
119.129
88.2198
95.4639
101.564
106.521
110.463
113.533
115.855
117.522
118.6
119.129
88.2198
95.464
101.564
106.521
110.463
113.533
115.855
117.523
118.6
119.129
88.2198
95.464
101.564
106.521
110.463
113.533
115.855
117.523
118.6
119.129
88.2199
95.4641
101.564
106.522
110.463
113.533
115.855
117.523
118.6
119.129
88.22
95.4642
101.564
106.522
110.463
113.533
115.856
117.523
118.601
119.13
78.7237
84.4669
89.49
93.7206
97.1829
99.9389
102.056
103.592
104.593
105.085
78.7236
84.4668
89.4899
93.7205
97.1828
99.9388
102.056
103.592
104.592
105.085
78.7235
84.4667
89.4898
93.7204
97.1827
99.9387
102.056
103.592
104.592
105.085
78.7234
84.4666
89.4897
93.7203
97.1826
99.9386
102.056
103.592
104.592
105.085
78.7234
84.4666
89.4897
93.7203
97.1826
99.9386
102.056
103.592
104.592
105.085
78.7234
84.4666
89.4897
93.7203
97.1826
99.9386
102.056
103.592
104.592
105.085
78.7234
84.4666
89.4897
93.7203
97.1826
99.9387
102.056
103.592
104.592
105.085
78.7235
84.4667
89.4898
93.7204
97.1827
99.9387
102.056
103.592
104.592
105.085
78.7236
84.4668
89.4899
93.7205
97.1828
99.9388
102.056
103.592
104.592
105.085
78.7237
84.4669
89.49
93.7206
97.1829
99.9389
102.056
103.593
104.593
105.085
70.5062
75.0022
79.0323
82.522
85.4515
87.833
89.6925
91.0583
91.9544
92.398
70.5061
75.0021
79.0322
82.5218
85.4513
87.8329
89.6924
91.0581
91.9542
92.398
70.506
75.002
79.0321
82.5217
85.4512
87.8328
89.6923
91.0581
91.9542
92.3979
70.506
75.002
79.032
82.5217
85.4512
87.8327
89.6923
91.058
91.9541
92.3978
70.5059
75.002
79.032
82.5217
85.4512
87.8327
89.6923
91.058
91.9541
92.3978
70.5059
75.002
79.032
82.5217
85.4512
87.8327
89.6923
91.058
91.9541
92.3978
70.506
75.002
79.0321
82.5217
85.4512
87.8328
89.6923
91.058
91.9541
92.3979
70.506
75.002
79.0321
82.5218
85.4513
87.8328
89.6924
91.0581
91.9542
92.3979
70.5061
75.0021
79.0322
82.5219
85.4514
87.8329
89.6925
91.0582
91.9543
92.398
70.5062
75.0023
79.0323
82.522
85.4515
87.833
89.6926
91.0583
91.9544
92.3982
63.4025
66.8094
69.932
72.71
75.1026
77.0906
78.6698
79.8448
80.6225
81.0096
63.4023
66.8093
69.9319
72.7098
75.1025
77.0904
78.6697
79.8447
80.6224
81.0095
63.4023
66.8092
69.9318
72.7098
75.1024
77.0904
78.6696
79.8446
80.6224
81.0095
63.4022
66.8092
69.9318
72.7097
75.1023
77.0903
78.6696
79.8445
80.6223
81.0094
63.4022
66.8091
69.9317
72.7097
75.1023
77.0903
78.6696
79.8445
80.6223
81.0094
63.4022
66.8091
69.9317
72.7097
75.1023
77.0903
78.6696
79.8445
80.6223
81.0094
63.4022
66.8092
69.9318
72.7097
75.1023
77.0903
78.6696
79.8445
80.6223
81.0095
63.4023
66.8092
69.9318
72.7098
75.1024
77.0904
78.6697
79.8446
80.6224
81.0095
63.4024
66.8093
69.9319
72.7099
75.1025
77.0905
78.6698
79.8447
80.6225
81.0096
63.4025
66.8094
69.932
72.71
75.1026
77.0906
78.6699
79.8448
80.6226
81.0098
57.3035
59.6961
61.9815
64.0969
65.9795
67.5842
68.884
69.8648
70.5204
70.8485
57.3034
59.696