/*--------------------------------*- C++ -*----------------------------------*\
  =========                 |
  \\      /  F ield         | OpenFOAM: The Open Source CFD Toolbox
   \\    /   O peration     | Website:  https://openfoam.org
    \\  /    A nd           | Version:  6
     \\/     M anipulation  |
\*---------------------------------------------------------------------------*/
FoamFile
{
    version     2.0;
    format      ascii;
    class       volScalarField;
    location    "0.015";
    object      T;
}
// * * * * * * * * * * * * * * * * * * * * * * * * * * * * * * * * * * * * * //

dimensions      [0 0 0 1 0 0 0];

internalField   nonuniform List<scalar> 
7000
(
83.1834
83.1824
83.182
83.1819
83.1819
83.1819
83.1819
83.182
83.1822
83.1825
83.1824
83.1813
83.181
83.1809
83.1809
83.1809
83.1809
83.181
83.1812
83.1818
83.182
83.181
83.1807
83.1806
83.1806
83.1806
83.1806
83.1807
83.181
83.1816
83.1819
83.1809
83.1806
83.1805
83.1805
83.1805
83.1805
83.1806
83.1809
83.1816
83.1819
83.1809
83.1806
83.1805
83.1805
83.1805
83.1805
83.1806
83.1809
83.1815
83.1819
83.1809
83.1806
83.1805
83.1805
83.1805
83.1805
83.1806
83.1809
83.1815
83.1819
83.1809
83.1806
83.1805
83.1805
83.1805
83.1805
83.1806
83.1809
83.1816
83.182
83.181
83.1807
83.1806
83.1806
83.1806
83.1806
83.1807
83.181
83.1817
83.1822
83.1812
83.181
83.1809
83.1809
83.1809
83.1809
83.181
83.1813
83.1819
83.1825
83.1818
83.1816
83.1816
83.1815
83.1815
83.1816
83.1817
83.1819
83.1826
39.872
39.8705
39.87
39.8699
39.8698
39.8698
39.8699
39.87
39.8705
39.8714
39.8705
39.8691
39.8686
39.8684
39.8684
39.8684
39.8684
39.8686
39.8692
39.8706
39.87
39.8686
39.8681
39.8679
39.8679
39.8679
39.8679
39.8681
39.8688
39.8703
39.8699
39.8684
39.8679
39.8678
39.8677
39.8677
39.8678
39.868
39.8687
39.8703
39.8698
39.8684
39.8679
39.8677
39.8677
39.8677
39.8678
39.868
39.8686
39.8702
39.8698
39.8684
39.8679
39.8677
39.8677
39.8677
39.8678
39.868
39.8686
39.8702
39.8699
39.8684
39.8679
39.8678
39.8678
39.8678
39.8678
39.868
39.8687
39.8703
39.87
39.8686
39.8681
39.868
39.868
39.868
39.868
39.8682
39.8689
39.8705
39.8705
39.8692
39.8688
39.8687
39.8686
39.8686
39.8687
39.8689
39.8696
39.8712
39.8714
39.8706
39.8703
39.8703
39.8702
39.8702
39.8703
39.8705
39.8712
39.8728
15.3574
15.3565
15.3561
15.356
15.356
15.356
15.356
15.3562
15.3567
15.3578
15.3565
15.3555
15.3552
15.3551
15.355
15.3551
15.3551
15.3553
15.3558
15.3573
15.3561
15.3552
15.3548
15.3547
15.3547
15.3547
15.3548
15.3549
15.3556
15.3571
15.356
15.3551
15.3547
15.3546
15.3546
15.3546
15.3547
15.3548
15.3555
15.3571
15.356
15.355
15.3547
15.3546
15.3546
15.3546
15.3546
15.3548
15.3555
15.3571
15.356
15.3551
15.3547
15.3546
15.3546
15.3546
15.3546
15.3548
15.3555
15.3571
15.356
15.3551
15.3548
15.3547
15.3546
15.3546
15.3547
15.3549
15.3555
15.3571
15.3562
15.3553
15.3549
15.3548
15.3548
15.3548
15.3549
15.3551
15.3557
15.3573
15.3567
15.3558
15.3556
15.3555
15.3555
15.3555
15.3555
15.3557
15.3564
15.358
15.3578
15.3573
15.3571
15.3571
15.3571
15.3571
15.3571
15.3573
15.358
15.3596
4.88327
4.88283
4.88267
4.88262
4.88261
4.88261
4.88264
4.88273
4.88305
4.88381
4.88283
4.8824
4.88224
4.88219
4.88218
4.88218
4.88221
4.88232
4.88268
4.88362
4.88267
4.88224
4.88208
4.88203
4.88202
4.88202
4.88205
4.88217
4.88255
4.88354
4.88262
4.88219
4.88203
4.88198
4.88197
4.88198
4.88201
4.88212
4.88251
4.88351
4.88261
4.88218
4.88202
4.88197
4.88196
4.88197
4.882
4.88211
4.88251
4.88351
4.88261
4.88218
4.88202
4.88198
4.88197
4.88197
4.882
4.88212
4.88251
4.88351
4.88264
4.88221
4.88205
4.88201
4.882
4.882
4.88203
4.88215
4.88254
4.88354
4.88273
4.88232
4.88217
4.88212
4.88211
4.88212
4.88215
4.88227
4.88266
4.88366
4.88305
4.88268
4.88255
4.88251
4.88251
4.88251
4.88254
4.88266
4.88305
4.88406
4.88381
4.88362
4.88354
4.88351
4.88351
4.88351
4.88354
4.88366
4.88406
4.88507
1.31456
1.31441
1.31435
1.31434
1.31433
1.31433
1.31434
1.31439
1.31453
1.3149
1.31441
1.31426
1.3142
1.31418
1.31418
1.31418
1.31419
1.31424
1.31441
1.31483
1.31435
1.3142
1.31415
1.31413
1.31412
1.31413
1.31414
1.31419
1.31436
1.31481
1.31434
1.31418
1.31413
1.31411
1.31411
1.31411
1.31412
1.31418
1.31435
1.3148
1.31433
1.31418
1.31412
1.31411
1.3141
1.31411
1.31412
1.31417
1.31435
1.3148
1.31433
1.31418
1.31413
1.31411
1.31411
1.31411
1.31412
1.31417
1.31435
1.3148
1.31434
1.31419
1.31414
1.31412
1.31412
1.31412
1.31413
1.31419
1.31436
1.31481
1.31439
1.31424
1.31419
1.31418
1.31417
1.31417
1.31419
1.31424
1.31442
1.31487
1.31453
1.31441
1.31436
1.31435
1.31435
1.31435
1.31436
1.31442
1.31459
1.31504
1.3149
1.31483
1.31481
1.3148
1.3148
1.3148
1.31481
1.31487
1.31504
1.3155
0.306022
0.305978
0.305962
0.305957
0.305956
0.305956
0.30596
0.305977
0.306029
0.306161
0.305978
0.305935
0.305919
0.305914
0.305913
0.305913
0.305918
0.305935
0.305993
0.306144
0.305962
0.305919
0.305902
0.305897
0.305896
0.305897
0.305902
0.30592
0.30598
0.306136
0.305957
0.305914
0.305897
0.305893
0.305892
0.305892
0.305897
0.305915
0.305976
0.306134
0.305956
0.305913
0.305896
0.305892
0.30589
0.305891
0.305896
0.305915
0.305976
0.306133
0.305956
0.305913
0.305897
0.305892
0.305891
0.305892
0.305897
0.305915
0.305976
0.306134
0.30596
0.305918
0.305902
0.305897
0.305896
0.305897
0.305901
0.30592
0.305981
0.306139
0.305977
0.305935
0.30592
0.305915
0.305915
0.305915
0.30592
0.305939
0.306
0.306158
0.306029
0.305993
0.30598
0.305976
0.305976
0.305976
0.305981
0.306
0.306061
0.30622
0.306161
0.306144
0.306136
0.306134
0.306133
0.306134
0.306139
0.306158
0.30622
0.306379
0.062689
0.0626785
0.0626745
0.0626733
0.062673
0.0626732
0.0626744
0.0626792
0.0626946
0.0627335
0.0626785
0.062668
0.062664
0.0626628
0.0626626
0.0626628
0.062664
0.0626692
0.0626859
0.0627297
0.0626745
0.062664
0.0626601
0.0626589
0.0626586
0.0626588
0.0626602
0.0626655
0.0626829
0.0627279
0.0626733
0.0626628
0.0626589
0.0626577
0.0626574
0.0626577
0.062659
0.0626644
0.062682
0.0627274
0.062673
0.0626626
0.0626586
0.0626574
0.0626572
0.0626574
0.0626588
0.0626642
0.0626818
0.0627273
0.0626732
0.0626628
0.0626588
0.0626577
0.0626574
0.0626576
0.062659
0.0626644
0.062682
0.0627275
0.0626744
0.062664
0.0626602
0.062659
0.0626588
0.062659
0.0626603
0.0626657
0.0626834
0.0627289
0.0626792
0.0626692
0.0626655
0.0626644
0.0626642
0.0626644
0.0626657
0.0626712
0.0626888
0.0627343
0.0626946
0.0626859
0.0626829
0.062682
0.0626818
0.062682
0.0626834
0.0626888
0.0627065
0.0627522
0.0627335
0.0627297
0.0627279
0.0627274
0.0627273
0.0627275
0.0627289
0.0627343
0.0627522
0.0627982
0.011463
0.0114607
0.0114599
0.0114596
0.0114596
0.0114596
0.0114599
0.0114611
0.011465
0.0114747
0.0114607
0.0114585
0.0114577
0.0114575
0.0114574
0.0114575
0.0114578
0.011459
0.0114632
0.0114739
0.0114599
0.0114577
0.0114569
0.0114566
0.0114566
0.0114566
0.011457
0.0114583
0.0114625
0.0114736
0.0114596
0.0114575
0.0114566
0.0114564
0.0114563
0.0114564
0.0114567
0.011458
0.0114623
0.0114734
0.0114596
0.0114574
0.0114566
0.0114563
0.0114563
0.0114563
0.0114567
0.011458
0.0114623
0.0114734
0.0114596
0.0114575
0.0114566
0.0114564
0.0114563
0.0114564
0.0114567
0.011458
0.0114624
0.0114735
0.0114599
0.0114578
0.011457
0.0114567
0.0114567
0.0114567
0.011457
0.0114584
0.0114627
0.0114738
0.0114611
0.011459
0.0114583
0.011458
0.011458
0.011458
0.0114584
0.0114597
0.011464
0.0114752
0.011465
0.0114632
0.0114625
0.0114623
0.0114623
0.0114624
0.0114627
0.011464
0.0114684
0.0114795
0.0114747
0.0114739
0.0114736
0.0114734
0.0114734
0.0114735
0.0114738
0.0114752
0.0114795
0.0114908
0.00189314
0.00189272
0.00189256
0.00189252
0.00189251
0.00189252
0.00189258
0.00189284
0.00189366
0.00189573
0.00189272
0.00189231
0.00189215
0.00189211
0.0018921
0.00189211
0.00189218
0.00189245
0.00189333
0.00189559
0.00189256
0.00189215
0.001892
0.00189195
0.00189194
0.00189195
0.00189202
0.0018923
0.00189321
0.00189552
0.00189252
0.00189211
0.00189195
0.0018919
0.00189189
0.00189191
0.00189198
0.00189226
0.00189317
0.0018955
0.00189251
0.0018921
0.00189194
0.00189189
0.00189189
0.0018919
0.00189197
0.00189225
0.00189316
0.0018955
0.00189252
0.00189211
0.00189195
0.00189191
0.0018919
0.00189191
0.00189198
0.00189227
0.00189318
0.00189551
0.00189258
0.00189218
0.00189202
0.00189198
0.00189197
0.00189198
0.00189205
0.00189234
0.00189325
0.00189558
0.00189284
0.00189245
0.00189231
0.00189226
0.00189225
0.00189227
0.00189234
0.00189262
0.00189354
0.00189587
0.00189367
0.00189334
0.00189322
0.00189318
0.00189318
0.00189319
0.00189326
0.00189355
0.00189446
0.0018968
0.00189577
0.00189563
0.00189557
0.00189554
0.00189554
0.00189555
0.00189563
0.00189591
0.00189684
0.0018992
0.000285171
0.000285101
0.000285075
0.000285067
0.000285065
0.000285067
0.000285079
0.000285119
0.000285211
0.000285267
0.000285101
0.000285033
0.000285007
0.000284998
0.000284997
0.000284999
0.000285011
0.000285054
0.000285155
0.000285245
0.000285075
0.000285007
0.00028498
0.000284972
0.000284971
0.000284973
0.000284985
0.000285029
0.000285135
0.000285234
0.000285067
0.000284998
0.000284972
0.000284964
0.000284963
0.000284965
0.000284978
0.000285022
0.000285129
0.000285231
0.000285065
0.000284997
0.000284971
0.000284963
0.000284961
0.000284964
0.000284976
0.000285021
0.000285128
0.00028523
0.000285068
0.000284999
0.000284973
0.000284965
0.000284964
0.000284966
0.000284979
0.000285023
0.000285131
0.000285233
0.00028508
0.000285012
0.000284987
0.000284979
0.000284977
0.00028498
0.000284992
0.000285037
0.000285144
0.000285247
0.00028513
0.000285064
0.00028504
0.000285033
0.000285031
0.000285034
0.000285046
0.000285091
0.000285199
0.000285301
0.000285288
0.000285232
0.000285212
0.000285206
0.000285205
0.000285208
0.000285221
0.000285265
0.000285374
0.000285477
0.000285688
0.000285666
0.000285655
0.000285651
0.000285651
0.000285654
0.000285666
0.000285711
0.000285821
0.000285928
3.95052e-05
3.94947e-05
3.94906e-05
3.94894e-05
3.94891e-05
3.94892e-05
3.9488e-05
3.94613e-05
3.9136e-05
3.58063e-05
3.94947e-05
3.94843e-05
3.94803e-05
3.9479e-05
3.94788e-05
3.94789e-05
3.94777e-05
3.94514e-05
3.91277e-05
3.58032e-05
3.94906e-05
3.94803e-05
3.94763e-05
3.9475e-05
3.94748e-05
3.94749e-05
3.94738e-05
3.94478e-05
3.91247e-05
3.58017e-05
3.94894e-05
3.9479e-05
3.9475e-05
3.94738e-05
3.94736e-05
3.94737e-05
3.94726e-05
3.94466e-05
3.91238e-05
3.58012e-05
3.94892e-05
3.94788e-05
3.94748e-05
3.94736e-05
3.94733e-05
3.94735e-05
3.94724e-05
3.94465e-05
3.91237e-05
3.58011e-05
3.94896e-05
3.94792e-05
3.94752e-05
3.9474e-05
3.94738e-05
3.94739e-05
3.94729e-05
3.94469e-05
3.91241e-05
3.58016e-05
3.94917e-05
3.94815e-05
3.94775e-05
3.94763e-05
3.94761e-05
3.94762e-05
3.94752e-05
3.94492e-05
3.91264e-05
3.58037e-05
3.95002e-05
3.94903e-05
3.94866e-05
3.94855e-05
3.94853e-05
3.94854e-05
3.94844e-05
3.94584e-05
3.91356e-05
3.5812e-05
3.95274e-05
3.95189e-05
3.95159e-05
3.9515e-05
3.95148e-05
3.9515e-05
3.9514e-05
3.9488e-05
3.91649e-05
3.58387e-05
3.95957e-05
3.95925e-05
3.95909e-05
3.95903e-05
3.95902e-05
3.95904e-05
3.95894e-05
3.95634e-05
3.92399e-05
3.59084e-05
5.06855e-06
5.06708e-06
5.06652e-06
5.06634e-06
5.0663e-06
5.06622e-06
5.06517e-06
5.05404e-06
4.95799e-06
4.27852e-06
5.06708e-06
5.06563e-06
5.06507e-06
5.0649e-06
5.06485e-06
5.06478e-06
5.06374e-06
5.05267e-06
4.95687e-06
4.2781e-06
5.06652e-06
5.06507e-06
5.06452e-06
5.06434e-06
5.0643e-06
5.06422e-06
5.06319e-06
5.05216e-06
4.95646e-06
4.27791e-06
5.06635e-06
5.0649e-06
5.06434e-06
5.06417e-06
5.06413e-06
5.06405e-06
5.06302e-06
5.052e-06
4.95634e-06
4.27784e-06
5.06631e-06
5.06487e-06
5.06431e-06
5.06414e-06
5.0641e-06
5.06402e-06
5.063e-06
5.05198e-06
4.95632e-06
4.27783e-06
5.06638e-06
5.06494e-06
5.06438e-06
5.06421e-06
5.06417e-06
5.06409e-06
5.06306e-06
5.05205e-06
4.95639e-06
4.2779e-06
5.06672e-06
5.06529e-06
5.06474e-06
5.06457e-06
5.06453e-06
5.06446e-06
5.06343e-06
5.05241e-06
4.95674e-06
4.2782e-06
5.06804e-06
5.06666e-06
5.06615e-06
5.06599e-06
5.06595e-06
5.06588e-06
5.06485e-06
5.05383e-06
4.95813e-06
4.27939e-06
5.07226e-06
5.07108e-06
5.07066e-06
5.07053e-06
5.0705e-06
5.07043e-06
5.0694e-06
5.05838e-06
4.9626e-06
4.28323e-06
5.08284e-06
5.08241e-06
5.08219e-06
5.08211e-06
5.08209e-06
5.08202e-06
5.08099e-06
5.06995e-06
4.97399e-06
4.29323e-06
6.05923e-07
6.05735e-07
6.05662e-07
6.05639e-07
6.05631e-07
6.05601e-07
6.05305e-07
6.02783e-07
5.84926e-07
4.85367e-07
6.05735e-07
6.05548e-07
6.05476e-07
6.05453e-07
6.05445e-07
6.05416e-07
6.05121e-07
6.02609e-07
5.84786e-07
4.85312e-07
6.05662e-07
6.05476e-07
6.05404e-07
6.05382e-07
6.05374e-07
6.05344e-07
6.05051e-07
6.02543e-07
5.84734e-07
4.85288e-07
6.0564e-07
6.05454e-07
6.05382e-07
6.05359e-07
6.05352e-07
6.05322e-07
6.0503e-07
6.02523e-07
5.84718e-07
4.8528e-07
6.05636e-07
6.0545e-07
6.05378e-07
6.05356e-07
6.05348e-07
6.05319e-07
6.05026e-07
6.0252e-07
5.84716e-07
4.85279e-07
6.05645e-07
6.0546e-07
6.05388e-07
6.05366e-07
6.05358e-07
6.05329e-07
6.05036e-07
6.0253e-07
5.84726e-07
4.85287e-07
6.05694e-07
6.0551e-07
6.05439e-07
6.05417e-07
6.05409e-07
6.0538e-07
6.05088e-07
6.02582e-07
5.84776e-07
4.85328e-07
6.05883e-07
6.05705e-07
6.05639e-07
6.05618e-07
6.05611e-07
6.05582e-07
6.05289e-07
6.02783e-07
5.8497e-07
4.85489e-07
6.06482e-07
6.06331e-07
6.06277e-07
6.06261e-07
6.06255e-07
6.06226e-07
6.05933e-07
6.03424e-07
5.85592e-07
4.86005e-07
6.07984e-07
6.07931e-07
6.07902e-07
6.07892e-07
6.07888e-07
6.07859e-07
6.07566e-07
6.05051e-07
5.87178e-07
4.87344e-07
6.78474e-08
6.78248e-08
6.78161e-08
6.78133e-08
6.7812e-08
6.78052e-08
6.77471e-08
6.73158e-08
6.46701e-08
5.2245e-08
6.78248e-08
6.78025e-08
6.77939e-08
6.77911e-08
6.77898e-08
6.7783e-08
6.77252e-08
6.72952e-08
6.46538e-08
5.22384e-08
6.78161e-08
6.77939e-08
6.77852e-08
6.77825e-08
6.77811e-08
6.77744e-08
6.77168e-08
6.72873e-08
6.46477e-08
5.22355e-08
6.78134e-08
6.77912e-08
6.77826e-08
6.77798e-08
6.77785e-08
6.77718e-08
6.77142e-08
6.72849e-08
6.46458e-08
5.22346e-08
6.7813e-08
6.77908e-08
6.77821e-08
6.77794e-08
6.77781e-08
6.77714e-08
6.77138e-08
6.72846e-08
6.46456e-08
5.22346e-08
6.78142e-08
6.77921e-08
6.77835e-08
6.77807e-08
6.77794e-08
6.77727e-08
6.77151e-08
6.72859e-08
6.46469e-08
5.22356e-08
6.78206e-08
6.77986e-08
6.77902e-08
6.77875e-08
6.77862e-08
6.77795e-08
6.77219e-08
6.72927e-08
6.46534e-08
5.22408e-08
6.78455e-08
6.78243e-08
6.78164e-08
6.78138e-08
6.78126e-08
6.78059e-08
6.77483e-08
6.73189e-08
6.46785e-08
5.22611e-08
6.79243e-08
6.79062e-08
6.78998e-08
6.78978e-08
6.78967e-08
6.789e-08
6.78323e-08
6.74024e-08
6.47588e-08
5.23261e-08
6.8121e-08
6.81148e-08
6.81115e-08
6.81103e-08
6.81093e-08
6.81027e-08
6.80449e-08
6.76138e-08
6.49628e-08
5.24938e-08
7.14859e-09
7.14608e-09
7.14509e-09
7.14477e-09
7.14456e-09
7.14338e-09
7.13417e-09
7.07247e-09
6.73413e-09
5.34001e-09
7.14608e-09
7.14358e-09
7.14261e-09
7.14229e-09
7.14208e-09
7.1409e-09
7.13173e-09
7.07018e-09
6.73235e-09
5.33926e-09
7.1451e-09
7.14261e-09
7.14164e-09
7.14132e-09
7.14111e-09
7.13994e-09
7.13078e-09
7.06931e-09
6.73167e-09
5.33894e-09
7.14479e-09
7.14231e-09
7.14134e-09
7.14102e-09
7.14081e-09
7.13964e-09
7.13049e-09
7.06904e-09
6.73146e-09
5.33884e-09
7.14474e-09
7.14226e-09
7.14129e-09
7.14098e-09
7.14077e-09
7.13959e-09
7.13045e-09
7.069e-09
6.73144e-09
5.33884e-09
7.1449e-09
7.14242e-09
7.14146e-09
7.14114e-09
7.14093e-09
7.13976e-09
7.13061e-09
7.06917e-09
6.7316e-09
5.33897e-09
7.14569e-09
7.14323e-09
7.14228e-09
7.14197e-09
7.14177e-09
7.14059e-09
7.13144e-09
7.06999e-09
6.73238e-09
5.33958e-09
7.14874e-09
7.14637e-09
7.14547e-09
7.14518e-09
7.14499e-09
7.14381e-09
7.13466e-09
7.07318e-09
6.73541e-09
5.34198e-09
7.15834e-09
7.15633e-09
7.15561e-09
7.15538e-09
7.1552e-09
7.15403e-09
7.14486e-09
7.08329e-09
6.74505e-09
5.34967e-09
7.1823e-09
7.18163e-09
7.18126e-09
7.18112e-09
7.18095e-09
7.17978e-09
7.17059e-09
7.10883e-09
6.76947e-09
5.36939e-09
7.11598e-10
7.11333e-10
7.11229e-10
7.11194e-10
7.11165e-10
7.1099e-10
7.09733e-10
7.01984e-10
6.63186e-10
5.19039e-10
7.11333e-10
7.11071e-10
7.10968e-10
7.10933e-10
7.10904e-10
7.1073e-10
7.09478e-10
7.01745e-10
6.63002e-10
5.18959e-10
7.1123e-10
7.10968e-10
7.10866e-10
7.10831e-10
7.10802e-10
7.10629e-10
7.09378e-10
7.01654e-10
6.62932e-10
5.18926e-10
7.11198e-10
7.10936e-10
7.10834e-10
7.10799e-10
7.1077e-10
7.10597e-10
7.09347e-10
7.01625e-10
6.6291e-10
5.18915e-10
7.11193e-10
7.10932e-10
7.1083e-10
7.10795e-10
7.10766e-10
7.10593e-10
7.09343e-10
7.01622e-10
6.62908e-10
5.18915e-10
7.11211e-10
7.1095e-10
7.10849e-10
7.10814e-10
7.10785e-10
7.10612e-10
7.09362e-10
7.01641e-10
6.62926e-10
5.18929e-10
7.11302e-10
7.11043e-10
7.10943e-10
7.10909e-10
7.1088e-10
7.10707e-10
7.09457e-10
7.01735e-10
6.63015e-10
5.18999e-10
7.1165e-10
7.11401e-10
7.11307e-10
7.11275e-10
7.11247e-10
7.11074e-10
7.09824e-10
7.02097e-10
6.63356e-10
5.19266e-10
7.12746e-10
7.12535e-10
7.12459e-10
7.12434e-10
7.12408e-10
7.12234e-10
7.10982e-10
7.03243e-10
6.6444e-10
5.20121e-10
7.15473e-10
7.15404e-10
7.15366e-10
7.1535e-10
7.15326e-10
7.15152e-10
7.13896e-10
7.06128e-10
6.67178e-10
5.22303e-10
6.71631e-11
6.71368e-11
6.71265e-11
6.71229e-11
6.71191e-11
6.70965e-11
6.69438e-11
6.60653e-11
6.19884e-11
4.80634e-11
6.71368e-11
6.71108e-11
6.71005e-11
6.7097e-11
6.70932e-11
6.70707e-11
6.69185e-11
6.60419e-11
6.19705e-11
4.80554e-11
6.71265e-11
6.71006e-11
6.70904e-11
6.70868e-11
6.70831e-11
6.70606e-11
6.69086e-11
6.60328e-11
6.19636e-11
4.80521e-11
6.71233e-11
6.70974e-11
6.70872e-11
6.70836e-11
6.70799e-11
6.70574e-11
6.69055e-11
6.603e-11
6.19614e-11
4.8051e-11
6.71229e-11
6.7097e-11
6.70868e-11
6.70832e-11
6.70795e-11
6.7057e-11
6.69051e-11
6.60296e-11
6.19613e-11
4.8051e-11
6.71248e-11
6.7099e-11
6.70888e-11
6.70853e-11
6.70816e-11
6.70591e-11
6.69072e-11
6.60317e-11
6.19632e-11
4.80526e-11
6.71346e-11
6.7109e-11
6.7099e-11
6.70955e-11
6.70918e-11
6.70693e-11
6.69174e-11
6.60418e-11
6.19726e-11
4.80599e-11
6.71721e-11
6.71474e-11
6.7138e-11
6.71348e-11
6.71311e-11
6.71087e-11
6.69567e-11
6.60805e-11
6.20089e-11
4.80881e-11
6.72895e-11
6.72686e-11
6.72611e-11
6.72585e-11
6.7255e-11
6.72325e-11
6.70803e-11
6.62025e-11
6.21235e-11
4.81778e-11
6.75811e-11
6.75744e-11
6.75707e-11
6.7569e-11
6.75658e-11
6.75432e-11
6.73903e-11
6.65088e-11
6.24123e-11
4.84057e-11
6.02971e-12
6.02724e-12
6.02627e-12
6.02591e-12
6.02548e-12
6.02284e-12
6.00597e-12
5.91451e-12
5.51649e-12
4.24863e-12
6.02724e-12
6.0248e-12
6.02383e-12
6.02348e-12
6.02305e-12
6.02041e-12
6.0036e-12
5.91232e-12
5.51483e-12
4.24787e-12
6.02627e-12
6.02384e-12
6.02287e-12
6.02252e-12
6.02209e-12
6.01946e-12
6.00267e-12
5.91147e-12
5.51419e-12
4.24756e-12
6.02597e-12
6.02354e-12
6.02257e-12
6.02222e-12
6.02179e-12
6.01917e-12
6.00238e-12
5.91121e-12
5.51399e-12
4.24746e-12
6.02593e-12
6.0235e-12
6.02254e-12
6.02219e-12
6.02175e-12
6.01913e-12
6.00234e-12
5.91118e-12
5.51397e-12
4.24746e-12
6.02614e-12
6.02371e-12
6.02275e-12
6.0224e-12
6.02197e-12
6.01934e-12
6.00256e-12
5.91139e-12
5.51417e-12
4.24762e-12
6.02713e-12
6.02472e-12
6.02378e-12
6.02344e-12
6.02301e-12
6.02038e-12
6.00359e-12
5.91241e-12
5.51512e-12
4.24835e-12
6.03093e-12
6.02861e-12
6.02773e-12
6.02741e-12
6.02698e-12
6.02436e-12
6.00756e-12
5.91631e-12
5.51876e-12
4.25117e-12
6.0428e-12
6.04084e-12
6.04014e-12
6.03987e-12
6.03947e-12
6.03684e-12
6.02001e-12
5.92858e-12
5.53021e-12
4.26009e-12
6.07221e-12
6.07161e-12
6.07126e-12
6.07109e-12
6.0707e-12
6.06807e-12
6.05115e-12
5.95928e-12
5.55899e-12
4.28264e-12
5.16391e-13
5.16171e-13
5.16083e-13
5.1605e-13
5.16003e-13
5.15721e-13
5.14003e-13
5.05151e-13
4.68704e-13
3.59243e-13
5.16171e-13
5.15953e-13
5.15866e-13
5.15833e-13
5.15786e-13
5.15505e-13
5.13791e-13
5.04957e-13
4.68558e-13
3.59175e-13
5.16084e-13
5.15866e-13
5.1578e-13
5.15747e-13
5.157e-13
5.15419e-13
5.13708e-13
5.04881e-13
4.685e-13
3.59147e-13
5.16057e-13
5.15839e-13
5.15753e-13
5.1572e-13
5.15673e-13
5.15393e-13
5.13682e-13
5.04857e-13
4.68483e-13
3.59138e-13
5.16053e-13
5.15836e-13
5.1575e-13
5.15717e-13
5.1567e-13
5.1539e-13
5.13679e-13
5.04855e-13
4.68482e-13
3.59139e-13
5.16073e-13
5.15856e-13
5.1577e-13
5.15738e-13
5.15691e-13
5.1541e-13
5.137e-13
5.04876e-13
4.68501e-13
3.59154e-13
5.16169e-13
5.15954e-13
5.15869e-13
5.15837e-13
5.15791e-13
5.1551e-13
5.13799e-13
5.04973e-13
4.68591e-13
3.59224e-13
5.16534e-13
5.16327e-13
5.16248e-13
5.16218e-13
5.16172e-13
5.15891e-13
5.14179e-13
5.05346e-13
4.68937e-13
3.59491e-13
5.17671e-13
5.17496e-13
5.17433e-13
5.17408e-13
5.17364e-13
5.17083e-13
5.15367e-13
5.06514e-13
4.70023e-13
3.60332e-13
5.20481e-13
5.20428e-13
5.20397e-13
5.20381e-13
5.20338e-13
5.20056e-13
5.18331e-13
5.0943e-13
4.72742e-13
3.62452e-13
4.22962e-14
4.22774e-14
4.22699e-14
4.2267e-14
4.22622e-14
4.22343e-14
4.20711e-14
4.1268e-14
3.812e-14
2.91787e-14
4.22774e-14
4.22588e-14
4.22514e-14
4.22485e-14
4.22437e-14
4.22159e-14
4.20532e-14
4.12516e-14
3.81076e-14
2.91728e-14
4.227e-14
4.22515e-14
4.2244e-14
4.22411e-14
4.22364e-14
4.22086e-14
4.20461e-14
4.12451e-14
3.81028e-14
2.91704e-14
4.22677e-14
4.22491e-14
4.22417e-14
4.22388e-14
4.22341e-14
4.22063e-14
4.20439e-14
4.12431e-14
3.81013e-14
2.91697e-14
4.22674e-14
4.22489e-14
4.22415e-14
4.22386e-14
4.22339e-14
4.22061e-14
4.20436e-14
4.1243e-14
3.81012e-14
2.91697e-14
4.22692e-14
4.22508e-14
4.22434e-14
4.22405e-14
4.22358e-14
4.2208e-14
4.20456e-14
4.12448e-14
3.8103e-14
2.91711e-14
4.2278e-14
4.22597e-14
4.22524e-14
4.22496e-14
4.22449e-14
4.22171e-14
4.20546e-14
4.12538e-14
3.81112e-14
2.91774e-14
4.23113e-14
4.22937e-14
4.22869e-14
4.22842e-14
4.22796e-14
4.22518e-14
4.20892e-14
4.12876e-14
3.81425e-14
2.92016e-14
4.24147e-14
4.23999e-14
4.23945e-14
4.23923e-14
4.23878e-14
4.23599e-14
4.21969e-14
4.13933e-14
3.82403e-14
2.92774e-14
4.26698e-14
4.26655e-14
4.26629e-14
4.26614e-14
4.2657e-14
4.26291e-14
4.24651e-14
4.16567e-14
3.84848e-14
2.94676e-14
4.20738e-06
4.68347e-07
4.94489e-08
4.97426e-09
6.38408e-10
1.85211e-09
1.89401e-08
1.88701e-07
1.78662e-06
1.60452e-05
4.20702e-06
4.68306e-07
4.94444e-08
4.97372e-09
6.3779e-10
1.84683e-09
1.88944e-08
1.88335e-07
1.78395e-06
1.6028e-05
4.20686e-06
4.68288e-07
4.94425e-08
4.97351e-09
6.37614e-10
1.84543e-09
1.8883e-08
1.88249e-07
1.78337e-06
1.60244e-05
4.2068e-06
4.68282e-07
4.94418e-08
4.97345e-09
6.37572e-10
1.84512e-09
1.88805e-08
1.88231e-07
1.78325e-06
1.60236e-05
4.20679e-06
4.68282e-07
4.94419e-08
4.97345e-09
6.37567e-10
1.84507e-09
1.88801e-08
1.88228e-07
1.78323e-06
1.60235e-05
4.20685e-06
4.6829e-07
4.94429e-08
4.97357e-09
6.37583e-10
1.8451e-09
1.88804e-08
1.88231e-07
1.78325e-06
1.60237e-05
4.20715e-06
4.68329e-07
4.94477e-08
4.97414e-09
6.37663e-10
1.84529e-09
1.88821e-08
1.88247e-07
1.78338e-06
1.60247e-05
4.20831e-06
4.68482e-07
4.94666e-08
4.97633e-09
6.3796e-10
1.84592e-09
1.88881e-08
1.88302e-07
1.78386e-06
1.60285e-05
4.21206e-06
4.68972e-07
4.95267e-08
4.98327e-09
6.38851e-10
1.84749e-09
1.89034e-08
1.88449e-07
1.78518e-06
1.60397e-05
4.22165e-06
4.70214e-07
4.96779e-08
5.00062e-09
6.40918e-10
1.84979e-09
1.89259e-08
1.88678e-07
1.78741e-06
1.60604e-05
8.47777e-07
1.25395e-07
1.59126e-08
1.8239e-09
2.62234e-10
7.43046e-10
6.88967e-09
6.03282e-08
4.75574e-07
3.21629e-06
8.47701e-07
1.25384e-07
1.59112e-08
1.82372e-09
2.61974e-10
7.40961e-10
6.87333e-09
6.02138e-08
4.74885e-07
3.21299e-06
8.47666e-07
1.25379e-07
1.59106e-08
1.82364e-09
2.61896e-10
7.4037e-10
6.86888e-09
6.01838e-08
4.7471e-07
3.21215e-06
8.47654e-07
1.25377e-07
1.59104e-08
1.82362e-09
2.61877e-10
7.40233e-10
6.86788e-09
6.01772e-08
4.74671e-07
3.21196e-06
8.47654e-07
1.25377e-07
1.59104e-08
1.82362e-09
2.61874e-10
7.40209e-10
6.86771e-09
6.01761e-08
4.74665e-07
3.21192e-06
8.47668e-07
1.2538e-07
1.59108e-08
1.82367e-09
2.61882e-10
7.40224e-10
6.86783e-09
6.01772e-08
4.74673e-07
3.21197e-06
8.47738e-07
1.25392e-07
1.59125e-08
1.8239e-09
2.61917e-10
7.40304e-10
6.86852e-09
6.01826e-08
4.74712e-07
3.2122e-06
8.48011e-07
1.25439e-07
1.59193e-08
1.82479e-09
2.6205e-10
7.4058e-10
6.8709e-09
6.02021e-08
4.74854e-07
3.21308e-06
8.48891e-07
1.25589e-07
1.59411e-08
1.82763e-09
2.62454e-10
7.41292e-10
6.87716e-09
6.02551e-08
4.75253e-07
3.21563e-06
8.51169e-07
1.25975e-07
1.59971e-08
1.83487e-09
2.63421e-10
7.42548e-10
6.8883e-09
6.03535e-08
4.76038e-07
3.22103e-06
1.26874e-07
2.29383e-08
3.38108e-09
4.35619e-10
6.99572e-11
1.93502e-10
1.63341e-09
1.27481e-08
8.66177e-08
4.79866e-07
1.26862e-07
2.29363e-08
3.3808e-09
4.35575e-10
6.98853e-11
1.92961e-10
1.62955e-09
1.27241e-08
8.64937e-08
4.7938e-07
1.26856e-07
2.29354e-08
3.38067e-09
4.35557e-10
6.98626e-11
1.92799e-10
1.62843e-09
1.27172e-08
8.64585e-08
4.79237e-07
1.26855e-07
2.29351e-08
3.38063e-09
4.35552e-10
6.98569e-11
1.92759e-10
1.62816e-09
1.27156e-08
8.64502e-08
4.79203e-07
1.26855e-07
2.29351e-08
3.38063e-09
4.35552e-10
6.98561e-11
1.92752e-10
1.62811e-09
1.27153e-08
8.64489e-08
4.79197e-07
1.26857e-07
2.29357e-08
3.38072e-09
4.35566e-10
6.98582e-11
1.92756e-10
1.62814e-09
1.27156e-08
8.64504e-08
4.79205e-07
1.26869e-07
2.29382e-08
3.38114e-09
4.35627e-10
6.98687e-11
1.92779e-10
1.62832e-09
1.27169e-08
8.64583e-08
4.79245e-07
1.26917e-07
2.2948e-08
3.38278e-09
4.35866e-10
6.99079e-11
1.92859e-10
1.62895e-09
1.27215e-08
8.64875e-08
4.79394e-07
1.2707e-07
2.29794e-08
3.38803e-09
4.36626e-10
7.00275e-11
1.9307e-10
1.63064e-09
1.27342e-08
8.6571e-08
4.79835e-07
1.27465e-07
2.30604e-08
3.40149e-09
4.38567e-10
7.03172e-11
1.93484e-10
1.63399e-09
1.27605e-08
8.67504e-08
4.80841e-07
1.62681e-08
3.40938e-09
5.66282e-10
8.05249e-11
1.42615e-11
3.85623e-11
2.9981e-10
2.12441e-09
1.28251e-08
6.13704e-08
1.62665e-08
3.40908e-09
5.66235e-10
8.05168e-11
1.42462e-11
3.84545e-11
2.99101e-10
2.12041e-09
1.28068e-08
6.13082e-08
1.62658e-08
3.40894e-09
5.66214e-10
8.05134e-11
1.42412e-11
3.84204e-11
2.98881e-10
2.11919e-09
1.28011e-08
6.12879e-08
1.62655e-08
3.4089e-09
5.66207e-10
8.05123e-11
1.42399e-11
3.84118e-11
2.98826e-10
2.11888e-09
1.27997e-08
6.12828e-08
1.62655e-08
3.4089e-09
5.66208e-10
8.05126e-11
1.42397e-11
3.84102e-11
2.98816e-10
2.11883e-09
1.27994e-08
6.12819e-08
1.62659e-08
3.40899e-09
5.66225e-10
8.05153e-11
1.42402e-11
3.84111e-11
2.98822e-10
2.11887e-09
1.27997e-08
6.1283e-08
1.62677e-08
3.40942e-09
5.66306e-10
8.05281e-11
1.42426e-11
3.84161e-11
2.98858e-10
2.11911e-09
1.2801e-08
6.12888e-08
1.62747e-08
3.41108e-09
5.66616e-10
8.05776e-11
1.42514e-11
3.84336e-11
2.98986e-10
2.11997e-09
1.28059e-08
6.13106e-08
1.62973e-08
3.41639e-09
5.67607e-10
8.07347e-11
1.42784e-11
3.84817e-11
2.9934e-10
2.1224e-09
1.28201e-08
6.13758e-08
1.63554e-08
3.43005e-09
5.70142e-10
8.11347e-11
1.43443e-11
3.85822e-11
3.00091e-10
2.12773e-09
1.28524e-08
6.15318e-08
1.8762e-09
4.4038e-10
8.05896e-11
1.24563e-11
2.4029e-12
6.36208e-12
4.60561e-11
3.00877e-10
1.65058e-09
7.06022e-09
1.876e-09
4.40339e-10
8.05829e-11
1.2455e-11
2.40023e-12
6.34421e-12
4.59466e-11
3.00309e-10
1.64821e-09
7.05301e-09
1.87591e-09
4.40321e-10
8.05799e-11
1.24545e-11
2.39932e-12
6.33833e-12
4.59109e-11
3.00123e-10
1.64742e-09
7.05048e-09
1.87588e-09
4.40315e-10
8.05789e-11
1.24543e-11
2.39908e-12
6.33678e-12
4.59015e-11
3.00075e-10
1.64722e-09
7.0498e-09
1.87588e-09
4.40316e-10
8.05791e-11
1.24543e-11
2.39904e-12
6.33648e-12
4.58998e-11
3.00067e-10
1.64718e-09
7.04968e-09
1.87593e-09
4.40329e-10
8.05819e-11
1.24548e-11
2.39913e-12
6.33663e-12
4.59009e-11
3.00073e-10
1.64722e-09
7.04982e-09
1.87617e-09
4.40392e-10
8.05947e-11
1.2457e-11
2.39957e-12
6.33754e-12
4.5907e-11
3.00111e-10
1.64741e-09
7.05058e-09
1.8771e-09
4.40635e-10
8.06444e-11
1.24656e-11
2.40121e-12
6.34075e-12
4.59288e-11
3.00247e-10
1.64811e-09
7.05342e-09
1.88007e-09
4.41411e-10
8.08024e-11
1.24926e-11
2.40625e-12
6.34976e-12
4.59907e-11
3.0064e-10
1.6502e-09
7.06207e-09
1.88768e-09
4.43396e-10
8.12052e-11
1.25612e-11
2.41857e-12
6.36948e-12
4.61282e-11
3.01538e-10
1.65514e-09
7.08333e-09
1.99176e-10
5.11422e-11
1.01407e-11
1.68314e-12
3.49892e-13
9.08519e-13
6.18038e-12
3.76801e-11
1.90999e-10
7.47635e-10
1.99154e-10
5.11373e-11
1.01399e-11
1.68297e-12
3.49488e-13
9.0595e-13
6.16557e-12
3.76083e-11
1.90723e-10
7.46862e-10
1.99144e-10
5.11352e-11
1.01395e-11
1.68289e-12
3.49348e-13
9.05073e-13
6.16053e-12
3.75838e-11
1.90626e-10
7.46574e-10
1.99141e-10
5.11345e-11
1.01394e-11
1.68287e-12
3.49309e-13
9.04834e-13
6.15917e-12
3.75771e-11
1.906e-10
7.46493e-10
1.99141e-10
5.11346e-11
1.01394e-11
1.68288e-12
3.49303e-13
9.04786e-13
6.1589e-12
3.75759e-11
1.90595e-10
7.46478e-10
1.99147e-10
5.11364e-11
1.01398e-11
1.68295e-12
3.49317e-13
9.0481e-13
6.15906e-12
3.75768e-11
1.90599e-10
7.46495e-10
1.99176e-10
5.11446e-11
1.01416e-11
1.68328e-12
3.49387e-13
9.04952e-13
6.15996e-12
3.7582e-11
1.90624e-10
7.46586e-10
1.99288e-10
5.11764e-11
1.01486e-11
1.68456e-12
3.49651e-13
9.0546e-13
6.16321e-12
3.7601e-11
1.90716e-10
7.46927e-10
1.99645e-10
5.12776e-11
1.01708e-11
1.68861e-12
3.50458e-13
9.06914e-13
6.17262e-12
3.76569e-11
1.90991e-10
7.47974e-10
2.00556e-10
5.15352e-11
1.0227e-11
1.69883e-12
3.5244e-13
9.10203e-13
6.19419e-12
3.77882e-11
1.91658e-10
7.50596e-10
1.97238e-11
5.44781e-12
1.15572e-12
2.04014e-13
4.5293e-14
1.15495e-13
7.43932e-13
4.27381e-12
2.02724e-11
7.38459e-11
1.97214e-11
5.44728e-12
1.15562e-12
2.03991e-13
4.5239e-14
1.15166e-13
7.42131e-13
4.26559e-12
2.02428e-11
7.37683e-11
1.97204e-11
5.44704e-12
1.15557e-12
2.03982e-13
4.52197e-14
1.1505e-13
7.41497e-13
4.26267e-12
2.02319e-11
7.3738e-11
1.97201e-11
5.44697e-12
1.15556e-12
2.03979e-13
4.52142e-14
1.15017e-13
7.41319e-13
4.26185e-12
2.02289e-11
7.37292e-11
1.97201e-11
5.44698e-12
1.15557e-12
2.0398e-13
4.52134e-14
1.15011e-13
7.41284e-13
4.26169e-12
2.02283e-11
7.37275e-11
1.97208e-11
5.4472e-12
1.15562e-12
2.0399e-13
4.52154e-14
1.15014e-13
7.41304e-13
4.2618e-12
2.02288e-11
7.37294e-11
1.9724e-11
5.44818e-12
1.15585e-12
2.04035e-13
4.52254e-14
1.15034e-13
7.41424e-13
4.26246e-12
2.02317e-11
7.37395e-11
1.97365e-11
5.45198e-12
1.15673e-12
2.04207e-13
4.52628e-14
1.15105e-13
7.41858e-13
4.26485e-12
2.02426e-11
7.37774e-11
1.97763e-11
5.464e-12
1.15953e-12
2.04747e-13
4.53776e-14
1.15313e-13
7.43132e-13
4.272e-12
2.02757e-11
7.3895e-11
1.98772e-11
5.49448e-12
1.16661e-12
2.06107e-13
4.56597e-14
1.15794e-13
7.46124e-13
4.28915e-12
2.0357e-11
7.41924e-11
1.83781e-12