/*--------------------------------*- C++ -*----------------------------------*\
  =========                 |
  \\      /  F ield         | OpenFOAM: The Open Source CFD Toolbox
   \\    /   O peration     | Website:  https://openfoam.org
    \\  /    A nd           | Version:  6
     \\/     M anipulation  |
\*---------------------------------------------------------------------------*/
FoamFile
{
    version     2.0;
    format      ascii;
    class       volScalarField;
    location    "0.195";
    object      T;
}
// * * * * * * * * * * * * * * * * * * * * * * * * * * * * * * * * * * * * * //

dimensions      [0 0 0 1 0 0 0];

internalField   nonuniform List<scalar> 
7000
(
102.948
102.948
102.948
102.947
102.947
102.946
102.946
102.945
102.944
102.944
102.948
102.948
102.948
102.947
102.947
102.946
102.946
102.945
102.944
102.944
102.948
102.948
102.948
102.947
102.947
102.946
102.946
102.945
102.944
102.944
102.948
102.948
102.948
102.947
102.947
102.946
102.946
102.945
102.944
102.944
102.948
102.948
102.948
102.947
102.947
102.946
102.946
102.945
102.944
102.944
102.948
102.948
102.948
102.947
102.947
102.946
102.946
102.945
102.944
102.944
102.948
102.948
102.948
102.947
102.947
102.946
102.946
102.945
102.944
102.944
102.948
102.948
102.948
102.947
102.947
102.946
102.946
102.945
102.944
102.944
102.948
102.948
102.948
102.947
102.947
102.946
102.946
102.945
102.944
102.944
102.948
102.948
102.948
102.947
102.947
102.946
102.946
102.945
102.944
102.944
89.0268
89.0263
89.0254
89.0242
89.0225
89.0204
89.0181
89.0159
89.0141
89.0131
89.0267
89.0262
89.0253
89.0241
89.0224
89.0203
89.018
89.0158
89.014
89.013
89.0266
89.0262
89.0253
89.024
89.0223
89.0202
89.0179
89.0157
89.0139
89.013
89.0266
89.0261
89.0252
89.024
89.0222
89.0202
89.0179
89.0157
89.0139
89.0129
89.0266
89.0261
89.0252
89.0239
89.0222
89.0202
89.0179
89.0157
89.0139
89.0129
89.0266
89.0261
89.0252
89.0239
89.0222
89.0202
89.0179
89.0157
89.0139
89.0129
89.0266
89.0261
89.0252
89.0239
89.0222
89.0202
89.0179
89.0157
89.0139
89.0129
89.0266
89.0261
89.0253
89.024
89.0223
89.0202
89.0179
89.0157
89.0139
89.013
89.0266
89.0262
89.0253
89.024
89.0223
89.0203
89.018
89.0158
89.014
89.013
89.0267
89.0262
89.0254
89.0241
89.0224
89.0203
89.018
89.0158
89.0141
89.0131
75.6373
75.6364
75.6347
75.6322
75.6288
75.6247
75.6199
75.6153
75.6114
75.6093
75.6371
75.6363
75.6346
75.6321
75.6287
75.6245
75.6198
75.6151
75.6113
75.6092
75.637
75.6362
75.6345
75.632
75.6286
75.6244
75.6197
75.6151
75.6112
75.6091
75.637
75.6361
75.6344
75.6319
75.6285
75.6244
75.6197
75.615
75.6112
75.6091
75.6369
75.6361
75.6344
75.6319
75.6285
75.6243
75.6196
75.615
75.6112
75.609
75.6369
75.636
75.6344
75.6319
75.6285
75.6243
75.6196
75.615
75.6112
75.609
75.637
75.6361
75.6344
75.6319
75.6285
75.6244
75.6197
75.615
75.6112
75.6091
75.637
75.6361
75.6345
75.632
75.6286
75.6244
75.6197
75.6151
75.6113
75.6091
75.6371
75.6362
75.6345
75.6321
75.6287
75.6245
75.6198
75.6152
75.6114
75.6092
75.6371
75.6363
75.6346
75.6322
75.6288
75.6246
75.6199
75.6153
75.6115
75.6093
63.0892
63.0877
63.0849
63.0806
63.0747
63.0671
63.0584
63.0494
63.0419
63.0376
63.089
63.0875
63.0847
63.0804
63.0745
63.0669
63.0582
63.0493
63.0418
63.0375
63.0889
63.0874
63.0846
63.0803
63.0744
63.0668
63.0581
63.0492
63.0417
63.0374
63.0888
63.0873
63.0845
63.0802
63.0743
63.0667
63.058
63.0491
63.0416
63.0373
63.0887
63.0873
63.0845
63.0802
63.0743
63.0667
63.058
63.0491
63.0416
63.0373
63.0887
63.0873
63.0845
63.0802
63.0743
63.0667
63.058
63.0491
63.0416
63.0373
63.0887
63.0873
63.0845
63.0802
63.0743
63.0667
63.058
63.0491
63.0416
63.0374
63.0888
63.0874
63.0846
63.0803
63.0744
63.0668
63.0581
63.0492
63.0417
63.0374
63.0889
63.0875
63.0847
63.0804
63.0745
63.0669
63.0582
63.0493
63.0418
63.0375
63.089
63.0876
63.0848
63.0806
63.0746
63.0671
63.0584
63.0495
63.042
63.0377
51.6301
51.6278
51.6234
51.6165
51.6065
51.5935
51.5779
51.5615
51.5471
51.5385
51.6299
51.6276
51.6232
51.6163
51.6063
51.5933
51.5777
51.5613
51.5469
51.5383
51.6297
51.6275
51.6231
51.6161
51.6062
51.5932
51.5776
51.5612
51.5468
51.5382
51.6296
51.6274
51.623
51.6161
51.6061
51.5931
51.5775
51.5611
51.5467
51.5382
51.6296
51.6274
51.623
51.616
51.6061
51.5931
51.5775
51.561
51.5467
51.5381
51.6296
51.6274
51.623
51.616
51.6061
51.5931
51.5775
51.5611
51.5467
51.5382
51.6296
51.6274
51.623
51.6161
51.6061
51.5931
51.5776
51.5611
51.5467
51.5382
51.6297
51.6275
51.6231
51.6161
51.6062
51.5932
51.5777
51.5612
51.5468
51.5383
51.6298
51.6276
51.6232
51.6163
51.6064
51.5933
51.5778
51.5613
51.547
51.5385
51.6299
51.6278
51.6234
51.6164
51.6065
51.5935
51.578
51.5615
51.5472
51.5386
41.4322
41.429
41.4223
41.4115
41.3956
41.3739
41.3469
41.317
41.2895
41.2724
41.432
41.4288
41.4221
41.4113
41.3954
41.3737
41.3467
41.3168
41.2894
41.2723
41.4319
41.4286
41.422
41.4112
41.3952
41.3736
41.3466
41.3167
41.2892
41.2722
41.4318
41.4285
41.4219
41.4111
41.3952
41.3735
41.3465
41.3166
41.2892
41.2721
41.4317
41.4285
41.4218
41.411
41.3951
41.3735
41.3465
41.3166
41.2891
41.2721
41.4317
41.4285
41.4218
41.411
41.3951
41.3735
41.3465
41.3166
41.2892
41.2721
41.4318
41.4285
41.4219
41.4111
41.3952
41.3735
41.3466
41.3167
41.2892
41.2721
41.4318
41.4286
41.422
41.4112
41.3953
41.3736
41.3467
41.3168
41.2893
41.2723
41.432
41.4287
41.4221
41.4113
41.3954
41.3738
41.3468
41.3169
41.2895
41.2724
41.4321
41.4289
41.4223
41.4115
41.3956
41.374
41.347
41.3171
41.2897
41.2726
32.5874
32.5829
32.5733
32.5572
32.5327
32.4981
32.4526
32.3991
32.3465
32.3114
32.5872
32.5827
32.5731
32.557
32.5326
32.4979
32.4524
32.3989
32.3463
32.3113
32.5871
32.5825
32.5729
32.5569
32.5324
32.4977
32.4523
32.3988
32.3462
32.3112
32.587
32.5824
32.5728
32.5568
32.5323
32.4977
32.4522
32.3987
32.3461
32.3111
32.5869
32.5824
32.5728
32.5567
32.5323
32.4976
32.4522
32.3987
32.3461
32.3111
32.5869
32.5824
32.5728
32.5567
32.5323
32.4976
32.4522
32.3987
32.3461
32.3111
32.587
32.5824
32.5729
32.5568
32.5324
32.4977
32.4522
32.3987
32.3462
32.3112
32.5871
32.5825
32.5729
32.5569
32.5325
32.4978
32.4523
32.3988
32.3463
32.3113
32.5872
32.5827
32.5731
32.5571
32.5326
32.498
32.4525
32.399
32.3465
32.3114
32.5873
32.5828
32.5733
32.5573
32.5328
32.4982
32.4527
32.3992
32.3467
32.3116
25.1104
25.1043
25.0911
25.0685
25.0328
24.9797
24.9058
24.812
24.7109
24.6356
25.1102
25.1041
25.091
25.0683
25.0326
24.9795
24.9056
24.8118
24.7107
24.6355
25.1101
25.104
25.0908
25.0682
25.0325
24.9794
24.9055
24.8117
24.7106
24.6354
25.11
25.1039
25.0907
25.0681
25.0324
24.9793
24.9054
24.8117
24.7105
24.6354
25.1099
25.1038
25.0907
25.0681
25.0324
24.9793
24.9054
24.8116
24.7105
24.6354
25.1099
25.1038
25.0907
25.0681
25.0324
24.9793
24.9054
24.8116
24.7105
24.6354
25.11
25.1039
25.0908
25.0681
25.0324
24.9794
24.9055
24.8117
24.7106
24.6354
25.1101
25.104
25.0909
25.0683
25.0325
24.9795
24.9056
24.8118
24.7107
24.6355
25.1102
25.1041
25.091
25.0684
25.0327
24.9796
24.9057
24.812
24.7109
24.6357
25.1103
25.1043
25.0912
25.0686
25.0329
24.9798
24.9059
24.8122
24.7111
24.6359
18.9491
18.9414
18.9245
18.8945
18.8455
18.769
18.6551
18.4964
18.3015
18.1287
18.949
18.9413
18.9243
18.8944
18.8454
18.7689
18.6549
18.4962
18.3014
18.1286
18.9488
18.9412
18.9242
18.8943
18.8453
18.7688
18.6548
18.4961
18.3013
18.1285
18.9488
18.9411
18.9241
18.8942
18.8452
18.7687
18.6548
18.4961
18.3013
18.1285
18.9487
18.941
18.9241
18.8942
18.8452
18.7687
18.6547
18.496
18.3012
18.1285
18.9487
18.941
18.9241
18.8942
18.8452
18.7687
18.6548
18.4961
18.3013
18.1285
18.9488
18.9411
18.9242
18.8942
18.8452
18.7688
18.6548
18.4961
18.3013
18.1285
18.9489
18.9412
18.9243
18.8943
18.8453
18.7689
18.6549
18.4962
18.3014
18.1286
18.949
18.9413
18.9244
18.8945
18.8455
18.769
18.6551
18.4964
18.3016
18.1288
18.9491
18.9415
18.9246
18.8947
18.8457
18.7692
18.6553
18.4965
18.3017
18.129
13.9999
13.9908
13.9704
13.9337
13.8716
13.7702
13.6084
13.3574
12.9905
12.5531
13.9997
13.9906
13.9703
13.9335
13.8715
13.7701
13.6083
13.3572
12.9904
12.5531
13.9996
13.9905
13.9702
13.9334
13.8714
13.77
13.6082
13.3572
12.9904
12.553
13.9995
13.9905
13.9701
13.9334
13.8713
13.7699
13.6081
13.3571
12.9903
12.553
13.9995
13.9904
13.9701
13.9334
13.8713
13.7699
13.6081
13.3571
12.9903
12.5529
13.9995
13.9904
13.9701
13.9334
13.8713
13.7699
13.6081
13.3571
12.9903
12.553
13.9996
13.9905
13.9702
13.9334
13.8714
13.77
13.6082
13.3572
12.9904
12.553
13.9996
13.9906
13.9702
13.9335
13.8715
13.7701
13.6083
13.3573
12.9905
12.5531
13.9997
13.9907
13.9704
13.9336
13.8716
13.7702
13.6084
13.3574
12.9906
12.5532
13.9999
13.9908
13.9705
13.9338
13.8718
13.7704
13.6086
13.3575
12.9907
12.5534
10.1239
10.114
10.0914
10.0502
9.97912
9.85937
9.65812
9.31423
8.69595
7.45076
10.1238
10.1138
10.0913
10.0501
9.97901
9.85926
9.65801
9.31413
8.69587
7.45069
10.1237
10.1138
10.0912
10.05
9.97893
9.85918
9.65794
9.31406
8.69581
7.45064
10.1237
10.1137
10.0912
10.0499
9.97888
9.85913
9.6579
9.31402
8.69577
7.45061
10.1236
10.1137
10.0912
10.0499
9.97886
9.85912
9.65788
9.31401
8.69576
7.45061
10.1236
10.1137
10.0912
10.0499
9.97888
9.85914
9.6579
9.31403
8.69578
7.45062
10.1237
10.1137
10.0912
10.05
9.97892
9.85918
9.65795
9.31407
8.69583
7.45066
10.1238
10.1138
10.0913
10.05
9.979
9.85926
9.65803
9.31415
8.6959
7.45073
10.1238
10.1139
10.0914
10.0502
9.97912
9.85937
9.65814
9.31426
8.696
7.45081
10.124
10.114
10.0915
10.0503
9.97926
9.85952
9.65828
9.3144
8.69613
7.45093
7.1645
7.15441
7.13152
7.0895
7.01702
6.89489
6.6909
6.35031
5.77972
4.83282
7.1644
7.15431
7.13142
7.0894
7.01692
6.8948
6.69082
6.35023
5.77965
4.83276
7.16434
7.15424
7.13135
7.08934
7.01686
6.89474
6.69076
6.35018
5.77961
4.83272
7.16429
7.1542
7.13131
7.0893
7.01682
6.89471
6.69073
6.35015
5.77958
4.8327
7.16428
7.15418
7.1313
7.08928
7.01681
6.8947
6.69072
6.35014
5.77957
4.8327
7.16428
7.15419
7.13131
7.08929
7.01682
6.89471
6.69074
6.35016
5.77959
4.83271
7.16432
7.15423
7.13134
7.08933
7.01686
6.89475
6.69078
6.3502
5.77962
4.83274
7.16438
7.15429
7.13141
7.0894
7.01693
6.89482
6.69084
6.35026
5.77968
4.83279
7.16446
7.15438
7.1315
7.08949
7.01702
6.89491
6.69093
6.35035
5.77976
4.83286
7.16455
7.15449
7.13162
7.08961
7.01715
6.89503
6.69105
6.35046
5.77987
4.83295
4.96119
4.95172
4.93033
4.89134
4.8249
4.71514
4.53766
4.25694
3.82729
3.21071
4.96111
4.95165
4.93025
4.89126
4.82483
4.71507
4.5376
4.25688
3.82723
3.21067
4.96106
4.95159
4.9302
4.89121
4.82478
4.71503
4.53756
4.25684
3.8272
3.21064
4.96102
4.95156
4.93017
4.89118
4.82475
4.715
4.53753
4.25682
3.82718
3.21062
4.96101
4.95155
4.93016
4.89117
4.82474
4.71499
4.53753
4.25682
3.82718
3.21062
4.96102
4.95156
4.93017
4.89118
4.82475
4.71501
4.53754
4.25683
3.82719
3.21063
4.96105
4.95159
4.9302
4.89122
4.82478
4.71504
4.53757
4.25686
3.82722
3.21065
4.9611
4.95164
4.93025
4.89127
4.82484
4.71509
4.53762
4.25691
3.82726
3.21069
4.96116
4.95171
4.93032
4.89134
4.82491
4.71517
4.5377
4.25698
3.82733
3.21075
4.96124
4.9518
4.93042
4.89144
4.82501
4.71526
4.53779
4.25707
3.82741
3.21082
3.36144
3.35319
3.33466
3.30134
3.24566
3.15622
3.0172
2.80916
2.51404
2.12967
3.36138
3.35313
3.3346
3.30129
3.24561
3.15617
3.01715
2.80912
2.514
2.12964
3.36134
3.35309
3.33456
3.30125
3.24557
3.15614
3.01712
2.80909
2.51398
2.12961
3.36131
3.35306
3.33454
3.30122
3.24555
3.15612
3.0171
2.80907
2.51396
2.1296
3.36131
3.35306
3.33453
3.30122
3.24555
3.15611
3.0171
2.80907
2.51396
2.1296
3.36131
3.35306
3.33454
3.30123
3.24556
3.15612
3.01711
2.80908
2.51397
2.12961
3.36134
3.35309
3.33457
3.30125
3.24558
3.15615
3.01713
2.80911
2.51399
2.12963
3.36137
3.35313
3.33461
3.3013
3.24562
3.15619
3.01718
2.80914
2.51403
2.12966
3.36143
3.35318
3.33467
3.30136
3.24568
3.15625
3.01723
2.8092
2.51408
2.1297
3.36149
3.35326
3.33474
3.30143
3.24576
3.15633
3.0173
2.80927
2.51414
2.12976
2.22846
2.22173
2.20674
2.1802
2.13685
2.06924
1.96814
1.82408
1.6315
1.39667
2.22842
2.22168
2.2067
2.18016
2.13681
2.06921
1.96811
1.82405
1.63147
1.39664
2.22839
2.22165
2.20667
2.18013
2.13678
2.06918
1.96809
1.82402
1.63145
1.39662
2.22837
2.22164
2.20665
2.18012
2.13676
2.06917
1.96807
1.82401
1.63144
1.39661
2.22837
2.22163
2.20665
2.18011
2.13676
2.06916
1.96807
1.82401
1.63144
1.39661
2.22837
2.22164
2.20665
2.18012
2.13677
2.06917
1.96808
1.82402
1.63145
1.39662
2.22839
2.22166
2.20667
2.18014
2.13679
2.06919
1.9681
1.82404
1.63147
1.39664
2.22842
2.22169
2.2067
2.18017
2.13682
2.06922
1.96813
1.82407
1.63149
1.39666
2.22846
2.22173
2.20675
2.18022
2.13687
2.06927
1.96817
1.82411
1.63153
1.39669
2.22851
2.22179
2.20681
2.18028
2.13693
2.06932
1.96823
1.82416
1.63158
1.39674
1.4456
1.44041
1.42898
1.40909
1.37731
1.32916
1.25965
1.16461
1.04336
0.902345
1.44557
1.44038
1.42895
1.40906
1.37728
1.32914
1.25962
1.16459
1.04334
0.902327
1.44555
1.44036
1.42893
1.40904
1.37726
1.32912
1.25961
1.16457
1.04332
0.902315
1.44553
1.44035
1.42892
1.40903
1.37725
1.32911
1.2596
1.16457
1.04332
0.902308
1.44553
1.44034
1.42892
1.40903
1.37725
1.32911
1.2596
1.16457
1.04331
0.902308
1.44553
1.44035
1.42892
1.40903
1.37726
1.32911
1.2596
1.16457
1.04332
0.902313
1.44555
1.44036
1.42894
1.40905
1.37727
1.32913
1.25962
1.16459
1.04333
0.902325
1.44557
1.44038
1.42896
1.40907
1.3773
1.32915
1.25964
1.16461
1.04335
0.902343
1.4456
1.44042
1.42899
1.4091
1.37733
1.32919
1.25967
1.16464
1.04338
0.902367
1.44563
1.44046
1.42904
1.40915
1.37737
1.32923
1.25971
1.16467
1.04342
0.902398
0.917668
0.913877
0.905611
0.891454
0.869327
0.836693
0.791039
0.73082
0.656907
0.574205
0.917647
0.913856
0.905591
0.891434
0.869308
0.836675
0.791022
0.730804
0.656893
0.574192
0.917632
0.913841
0.905576
0.89142
0.869295
0.836663
0.79101
0.730794
0.656884
0.574183
0.917624
0.913833
0.905568
0.891412
0.869288
0.836656
0.791004
0.730788
0.656879
0.574179
0.917622
0.913831
0.905567
0.891411
0.869287
0.836655
0.791003
0.730788
0.656879
0.574178
0.917626
0.913835
0.905571
0.891416
0.869292
0.83666
0.791008
0.730793
0.656883
0.574183
0.917636
0.913845
0.905582
0.891427
0.869303
0.836671
0.791019
0.730803
0.656892
0.574191
0.917652
0.913862
0.905599
0.891444
0.86932
0.836688
0.791036
0.730818
0.656907
0.574204
0.917673
0.913885
0.905623
0.891468
0.869344
0.836712
0.791058
0.730839
0.656926
0.574222
0.917698
0.913915
0.905654
0.8915
0.869375
0.836742
0.791087
0.730866
0.656951
0.574244
0.570123
0.567479
0.561774
0.552155
0.537431
0.516259
0.487507
0.450861
0.407611
0.361303
0.570108
0.567465
0.56176
0.552141
0.537418
0.516246
0.487495
0.450851
0.407601
0.361294
0.570098
0.567455
0.561751
0.552132
0.537409
0.516238
0.487487
0.450844
0.407594
0.361288
0.570093
0.56745
0.561745
0.552127
0.537405
0.516234
0.487483
0.45084
0.407591
0.361285
0.570092
0.567449
0.561744
0.552126
0.537404
0.516233
0.487483
0.45084
0.407591
0.361284
0.570095
0.567452
0.561748
0.55213
0.537408
0.516237
0.487487
0.450843
0.407594
0.361288
0.570102
0.567459
0.561755
0.552138
0.537416
0.516245
0.487494
0.450851
0.407601
0.361294
0.570113
0.567471
0.561767
0.55215
0.537428
0.516257
0.487506
0.450862
0.407611
0.361303
0.570128
0.567487
0.561784
0.552167
0.537445
0.516273
0.487522
0.450876
0.407625
0.361316
0.570146
0.567508
0.561806
0.552189
0.537466
0.516294
0.487542
0.450895
0.407642
0.361331
0.346699
0.344933
0.341159
0.334893
0.325494
0.312314
0.294967
0.273739
0.25013
0.227319
0.346689
0.344924
0.34115
0.334884
0.325485
0.312306
0.29496
0.273732
0.250123
0.227312
0.346683
0.344917
0.341144
0.334878
0.325479
0.312301
0.294955
0.273728
0.250119
0.227308
0.346679
0.344914
0.34114
0.334875
0.325476
0.312298
0.294952
0.273725
0.250117
0.227306
0.346678
0.344913
0.34114
0.334874
0.325476
0.312298
0.294952
0.273725
0.250117
0.227306
0.34668
0.344915
0.341142
0.334877
0.325479
0.3123
0.294955
0.273728
0.250119
0.227308
0.346686
0.344921
0.341148
0.334882
0.325484
0.312306
0.29496
0.273733
0.250124
0.227313
0.346693
0.344929
0.341156
0.334891
0.325492
0.312314
0.294968
0.27374
0.250131
0.227319
0.346704
0.34494
0.341167
0.334902
0.325504
0.312325
0.294978
0.27375
0.25014
0.227328
0.346716
0.344954
0.341182
0.334917
0.325519
0.312339
0.294992
0.273763
0.250152
0.227339
0.206396
0.205262
0.202862
0.198936
0.193165
0.185282
0.175269
0.16368
0.15223
0.145181
0.20639
0.205256
0.202856
0.198931
0.193159
0.185277
0.175264
0.163675
0.152225
0.145177
0.206386
0.205252
0.202853
0.198927
0.193156
0.185273
0.175261
0.163672
0.152223
0.145174
0.206383
0.20525
0.20285
0.198925
0.193154
0.185272
0.175259
0.163671
0.152221
0.145173
0.206383
0.20525
0.20285
0.198925
0.193154
0.185272
0.175259
0.163671
0.152221
0.145173
0.206385
0.205251
0.202852
0.198926
0.193156
0.185273
0.175261
0.163673
0.152223
0.145175
0.206388
0.205255
0.202855
0.19893
0.193159
0.185277
0.175264
0.163676
0.152226
0.145178
0.206393
0.20526
0.202861
0.198936
0.193165
0.185283
0.17527
0.163681
0.152231
0.145182
0.2064
0.205268
0.202869
0.198943
0.193173
0.18529
0.175277
0.163688
0.152237
0.145189
0.206408
0.205277
0.202878
0.198953
0.193182
0.185299
0.175286
0.163696
0.152246
0.145196
4.38332
2.77276
1.95173
1.6568
1.8071
2.4411
3.71534
5.94864
9.74132
16.2837
4.38326
2.77272
1.95168
1.65676
1.80704
2.44103
3.71524
5.9485
9.74113
16.2835
4.38323
2.77269
1.95166
1.65673
1.807
2.44098
3.71517
5.9484
9.74099
16.2833
4.38321
2.77267
1.95164
1.65671
1.80698
2.44095
3.71512
5.94834
9.7409
16.2831
4.3832
2.77267
1.95163
1.6567
1.80697
2.44093
3.7151
5.94831
9.74086
16.2831
4.38321
2.77267
1.95164
1.6567
1.80697
2.44093
3.7151
5.94831
9.74087
16.2831
4.38324
2.7727
1.95166
1.65672
1.80698
2.44095
3.71512
5.94834
9.74091
16.2832
4.38329
2.77273
1.95168
1.65674
1.80701
2.44097
3.71516
5.94839
9.74099
16.2833
4.38335
2.77277
1.95172
1.65677
1.80704
2.44101
3.7152
5.94846
9.74109
16.2834
4.38342
2.77282
1.95176
1.6568
1.80707
2.44105
3.71526
5.94854
9.7412
16.2836
3.40129
2.34876
1.73578
1.51327
1.6641
2.23401
3.34626
5.21802
8.16905
12.5494
3.40124
2.34872
1.73574
1.51323
1.66405
2.23395
3.34617
5.21789
8.16889
12.5492
3.40121
2.34869
1.73572
1.5132
1.66401
2.2339
3.34611
5.21781
8.16877
12.549
3.40119
2.34867
1.7357
1.51319
1.66399
2.23387
3.34607
5.21775
8.16869
12.5489
3.40119
2.34867
1.7357
1.51318
1.66398
2.23386
3.34605
5.21772
8.16866
12.5489
3.4012
2.34868
1.7357
1.51318
1.66398
2.23386
3.34605
5.21773
8.16866
12.5489
3.40122
2.3487
1.73572
1.5132
1.66399
2.23387
3.34607
5.21775
8.1687
12.5489
3.40126
2.34873
1.73574
1.51322
1.66402
2.2339
3.3461
5.2178
8.16877
12.549
3.40132
2.34877
1.73578
1.51325
1.66405
2.23394
3.34616
5.21788
8.16888
12.5492
3.40139
2.34883
1.73582
1.51329
1.66409
2.23399
3.34622
5.21797
8.16901
12.5494
2.4486
1.81547
1.41683
1.27944
1.42259
1.89073
2.76624
4.16767
6.21988
8.95222
2.44856
1.81544
1.4168
1.2794
1.42255
1.89068
2.76616
4.16757
6.21974
8.95205
2.44854
1.81542
1.41677
1.27937
1.42252
1.89064
2.76611
4.16749
6.21964
8.95193
2.44852
1.81541
1.41676
1.27936
1.4225
1.89061
2.76607
4.16745
6.21958
8.95185
2.44852
1.8154
1.41676
1.27935
1.42249
1.8906
2.76606
4.16742
6.21955
8.95181
2.44853
1.81541
1.41676
1.27936
1.42249
1.8906
2.76606
4.16743
6.21956
8.95182
2.44855
1.81543
1.41678
1.27937
1.4225
1.89061
2.76607
4.16745
6.21959
8.95187
2.44859
1.81545
1.4168
1.27939
1.42253
1.89064
2.76611
4.1675
6.21966
8.95196
2.44863
1.81549
1.41683
1.27942
1.42256
1.89068
2.76616
4.16756
6.21975
8.95208
2.44869
1.81554
1.41687
1.27946
1.4226
1.89073
2.76622
4.16765
6.21987
8.95225
1.69835
1.32704
1.08692
1.01555
1.14099
1.49892
2.13876
3.1164
4.46665
6.14471
1.69832
1.32702
1.08689
1.01552
1.14096
1.49888
2.1387
3.11632
4.46654
6.14458
1.6983
1.327
1.08687
1.0155
1.14093
1.49884
2.13865
3.11626
4.46647
6.14449
1.69829
1.32699
1.08686
1.01549
1.14091
1.49882
2.13862
3.11622
4.46642
6.14443
1.69829
1.32699
1.08686
1.01549
1.14091
1.49881
2.13861
3.11621
4.4664
6.1444
1.6983
1.32699
1.08686
1.01549
1.14091
1.49881
2.13861
3.11621
4.46641
6.14441
1.69831
1.32701
1.08688
1.0155
1.14092
1.49883
2.13863
3.11623
4.46644
6.14445
1.69834
1.32703
1.0869
1.01552
1.14094
1.49885
2.13866
3.11627
4.46649
6.14452
1.69838
1.32706
1.08692
1.01555
1.14097
1.49888
2.1387
3.11633
4.46657
6.14462
1.69842
1.3271
1.08696
1.01558
1.14101
1.49893
2.13876
3.11641
4.46667
6.14476
1.14733
0.932777
0.795516
0.765673
0.867514
1.12619
1.56921
2.21985
3.08007
4.10422
1.14731
0.932756
0.795495
0.76565
0.867485
1.12615
1.56916
2.21979
3.07999
4.10413
1.1473
0.932742
0.795481
0.765634
0.867465
1.12612
1.56913
2.21974
3.07994
4.10406
1.14729
0.932734
0.795472
0.765624
0.867452
1.12611
1.56911
2.21971
3.0799
4.10402
1.14729
0.932733
0.79547
0.76562
0.867447
1.1261
1.5691
2.2197
3.07989
4.104
1.14729
0.932738
0.795474
0.765623
0.86745
1.1261
1.5691
2.2197
3.07989
4.10401
1.14731
0.932749
0.795484
0.765632
0.867459
1.12611
1.56911
2.21972
3.07992
4.10404
1.14733
0.932767
0.7955
0.765648
0.867475
1.12613
1.56914
2.21976
3.07996
4.1041
1.14736
0.932792
0.795522
0.765669
0.867499
1.12616
1.56918
2.2198
3.08002
4.10418
1.14739
0.932824
0.795551
0.765698
0.86753
1.1262
1.56922
2.21987
3.0801
4.10428
0.758274
0.636351
0.561387
0.553992
0.631648
0.810575
1.10526
1.5239
2.05956
2.67975
0.758257
0.636335
0.561371
0.553974
0.631626
0.810547
1.10522
1.52386
2.05951
2.67969
0.758246
0.636325
0.56136
0.553961
0.631611
0.810528
1.1052
1.52383
2.05947
2.67964
0.75824
0.636319
0.561354
0.553954
0.631601
0.810515
1.10518
1.52381
2.05944
2.67961
0.758239
0.636318
0.561352
0.553951
0.631598
0.81051
1.10518
1.5238
2.05943
2.6796
0.758244
0.636322
0.561355
0.553954
0.6316
0.810512
1.10518
1.5238
2.05943
2.6796
0.758254
0.636331
0.561363
0.553961
0.631607
0.810521
1.10519
1.52381
2.05945
2.67963
0.75827
0.636345
0.561376
0.553974
0.631621
0.810537
1.10521
1.52384
2.05949
2.67967
0.758292
0.636364
0.561393
0.553991
0.63164
0.81056
1.10524
1.52388
2.05954
2.67973
0.758319
0.636388
0.561416
0.554014
0.631664
0.810589
1.10528
1.52393
2.0596
2.67981
0.492457
0.425008
0.386252
0.389421
0.446071
0.566068
0.756608
1.01946
1.34677
1.71759
0.492445
0.424996
0.38624
0.389408
0.446055
0.566047
0.756583
1.01943
1.34674
1.71754
0.492437
0.424989
0.386231
0.389398
0.446043
0.566033
0.756564
1.01941
1.34671
1.71751
0.492433
0.424984
0.386227
0.389393
0.446037
0.566024
0.756553
1.01939
1.34669
1.71749
0.492433
0.424984
0.386226
0.389391
0.446034
0.56602
0.756548
1.01939
1.34668
1.71748
0.492436
0.424987
0.386228
0.389393
0.446036
0.566022
0.75655
1.01939
1.34669
1.71749
0.492444
0.424994
0.386234
0.389399
0.446042
0.566029
0.756559
1.0194
1.3467
1.7175
0.492456
0.425004
0.386244
0.389409
0.446053
0.566042
0.756575
1.01942
1.34673
1.71754
0.492472
0.425018
0.386257
0.389422
0.446067
0.566059
0.756597
1.01945
1.34676
1.71758
0.492492
0.425037
0.386275
0.38944
0.446086
0.566082
0.756626
1.01949
1.34681
1.71764
0.31756
0.282393
0.264266
0.271772
0.312441
0.392129
0.514072
0.67723
0.874319
1.09111
0.317551
0.282385
0.264257
0.271762
0.312429
0.392113
0.514053
0.677207
0.874291
1.09108
0.317546
0.282379
0.264251
0.271755
0.312421
0.392103
0.51404
0.677191
0.874271
1.09105
0.317543
0.282376
0.264248
0.271751
0.312416
0.392096
0.514032
0.677181
0.874259
1.09104
0.317543
0.282376
0.264247
0.27175
0.312414
0.392094
0.514029
0.677177
0.874255
1.09103
0.317545
0.282378
0.264249
0.271752
0.312416
0.392096
0.514031
0.677179
0.874258
1.09104
0.317551
0.282383
0.264254
0.271756
0.31242
0.392101
0.514038
0.677188
0.874269
1.09105
0.317559
0.282391
0.264261
0.271764
0.312429
0.392111
0.51405
0.677203
0.874288
1.09107
0.317571
0.282402
0.264272
0.271774
0.31244
0.392125
0.514066
0.677224
0.874314
1.09111
0.317585
0.282415
0.264284
0.271787
0.312455
0.392142
0.514088
0.677252
0.874348
1.09115
0.209531
0.194256
0.187835
0.197
0.227215
0.282134
0.362874
0.466803
0.586104
0.707287
0.209524
0.19425
0.187828
0.196992
0.227206
0.282123
0.36286
0.466786
0.586084
0.707265
0.20952
0.194246
0.187824
0.196987
0.227199
0.282115
0.36285
0.466774
0.58607
0.707249
0.209518
0.194244
0.187821
0.196984
0.227195
0.28211
0.362845
0.466767
0.586061
0.707239
0.209518
0.194244
0.187821
0.196983
0.227194
0.282109
0.362843
0.466764
0.586059
0.707236
0.20952
0.194245
0.187822
0.196985
0.227196
0.28211
0.362844
0.466767
0.586061
0.70724
0.209524
0.194249
0.187826
0.196988
0.2272
0.282115
0.36285
0.466773
0.58607
0.70725
0.209531
0.194255
0.187832
0.196994
0.227206
0.282122
0.362859
0.466785
0.586084
0.707267
0.209539
0.194263
0.18784
0.197002
0.227215
0.282133
0.362872
0.466801
0.586104
0.70729
0.20955
0.194273
0.18785
0.197013
0.227227
0.282147
0.362889
0.466822
0.586129
0.707321
0.154098
0.151392
0.15099
0.16084
0.185972
0.229159
0.290528
0.366348
0.446777
0.511315
0.154093
0.151388
0.150985
0.160834
0.185965
0.229151
0.290519
0.366337
0.446764
0.5113
0.15409
0.151385
0.150981
0.16083
0.18596
0.229145
0.290511
0.366328
0.446753
0.511289
0.154089
0.151383
0.150979
0.160828
0.185957
0.229141
0.290506
0.366322
0.446747
0.511282
0.154089
0.151383
0.150979
0.160827
0.185956
0.22914
0.290505
0.36632
0.446745
0.511279
0.154091
0.151385
0.15098
0.160828
0.185957
0.229141
0.290506
0.366322
0.446747
0.511282
0.154094
0.151388
0.150984
0.160832
0.185961
0.229145
0.290511
0.366328
0.446754
0.511291
0.154099
0.151393
0.150989
0.160837
0.185967
0.229152
0.290519
0.366338
0.446766
0.511304
0.154106
0.1514
0.150995
0.160844
0.185974
0.229161
0.29053
0.366352
0.446782
0.511323
0.154114
0.151408
0.151003
0.160853
0.185984
0.229173
0.290544
0.366369
0.446803
0.511346
28.2472
33.1051
35.5143
36.8514
37.632
38.0954
38.3698
38.5289
38.6156
38.6537
28.2468
33.1047
35.5138
36.8509
37.6315
38.0949
38.3693
38.5284
38.6151
38.6534
28.2465
33.1044
35.5135
36.8506
37.6312
38.0946
38.369
38.528
38.6148
38.6531
28.2463
33.1042
35.5133
36.8504
37.631
38.0944
38.3688
38.5279
38.6146
38.6529
28.2463
33.1041
35.5132
36.8503
37.6309
38.0943
38.3687
38.5278
38.6146
38.6529
28.2463
33.1041
35.5133
36.8504
37.631
38.0944
38.3688
38.5279
38.6147
38.653
28.2464
33.1042
35.5134
36.8505
37.6311
38.0945
38.369
38.5281
38.6149
38.6532
28.2466
33.1045
35.5136
36.8508
37.6314
38.0948
38.3693
38.5284
38.6152
38.6535
28.2468
33.1048
35.514
36.8511
37.6318
38.0952
38.3697
38.5288
38.6156
38.6539
28.2471
33.1051
35.5144
36.8516
37.6322
38.0957
38.3701
38.5293
38.6161
38.6544
18.2281
21.9543
24.1892
25.518
26.3111
26.7846
27.0649
27.2271
27.3153
27.354
18.2279
21.954
24.1888
25.5176
26.3108
26.7842
27.0645
27.2267
27.3149
27.3538
18.2277
21.9538
24.1886
25.5174
26.3105
26.7839
27.0642
27.2264
27.3147
27.3536
18.2275
21.9537
24.1884
25.5172
26.3103
26.7838
27.0641
27.2263
27.3145
27.3534
18.2275
21.9536
24.1883
25.5171
26.3103
26.7837
27.064
27.2262
27.3145
27.3534
18.2275
21.9536
24.1884
25.5172
26.3103
26.7838
27.0641
27.2263
27.3146
27.3535
18.2276
21.9537
24.1885
25.5173
26.3105
26.7839
27.0642
27.2265
27.3147
27.3536
18.2277
21.9539
24.1887
25.5175
26.3107
26.7842
27.0645
27.2267
27.315
27.3539
18.2279
21.9541
24.189
25.5178
26.311
26.7845
27.0648
27.2271
27.3153
27.3543
18.2282
21.9544
24.1893
25.5182
26.3114
26.7849
27.0653
27.2275
27.3158
27.3547
12.0455
14.5012
16.1959
17.2961
17.9883
18.4147
18.672
18.8227
18.9052
18.9416
12.0453
14.501
16.1957
17.2958
17.988
18.4144
18.6717
18.8224
18.9049
18.9414
12.0452
14.5008
16.1955
17.2956
17.9878
18.4142
18.6715
18.8222
18.9048
18.9413
12.0451
14.5007
16.1954
17.2955
17.9877
18.4141
18.6714
18.8221
18.9047
18.9412
12.045
14.5007
16.1953
17.2955
17.9876
18.414
18.6714
18.8221
18.9046
18.9412
12.045
14.5007
16.1954
17.2955
17.9876
18.4141
18.6714
18.8221
18.9047
18.9412
12.0451
14.5008
16.1955
17.2956
17.9878
18.4142
18.6715
18.8222
18.9048
18.9414
12.0452
14.5009
16.1956
17.2958
17.9879
18.4144
18.6717
18.8224
18.905
18.9416
12.0454
14.5011
16.1958
17.296
17.9882
18.4146
18.672
18.8227
18.9053
18.9419
12.0456
14.5014
16.1961
17.2963
17.9885
18.415
18.6724
18.8231
18.9057
18.9422
7.94426
9.49851
10.673
11.4929
12.037
12.3854
12.6014
12.7304
12.8019
12.8337
7.94411
9.49834
10.6728
11.4927
12.0368
12.3852
12.6012
12.7302
12.8017
12.8336
7.944
9.49822
10.6727
11.4925
12.0367
12.385
12.6011
12.73
12.8016
12.8335
7.94393
9.49814
10.6726
11.4924
12.0366
12.3849
12.601
12.7299
12.8015
12.8334
7.9439
9.49811
10.6726
11.4924
12.0366
12.3849
12.601
12.7299
12.8015
12.8334
7.94391
9.49812
10.6726
11.4924
12.0366
12.3849
12.601
12.73
12.8015
12.8334
7.94396
9.49818
10.6727
11.4925
12.0367
12.385
12.6011
12.7301
12.8016
12.8335
7.94405
9.49829
10.6728
11.4926
12.0368
12.3852
12.6013
12.7302
12.8018
12.8337
7.94418
9.49845
10.673
11.4928
12.037
12.3854
12.6015
12.7304
12.802
12.8339
7.94435
9.49865
10.6732
11.4931
12.0373
12.3857
12.6018
12.7307
12.8023
12.8342
5.17793
6.14481
6.91949
7.49106
7.88852
8.15261
8.3212
8.42404
8.48199
8.508
5.17782
6.14469
6.91936
7.49092
7.88837
8.15246
8.32105
8.42388
8.48185
8.50789
5.17774
6.1446
6.91926
7.49081
7.88827
8.15235
8.32094
8.42378
8.48175
8.50781
5.17769
6.14454
6.9192
7.49075
7.8882
8.15228
8.32088
8.42372
8.4817
8.50776
5.17767
6.14452
6.91918
7.49073
7.88818
8.15227
8.32086
8.42371
8.48169
8.50775
5.17768
6.14453
6.91919
7.49075
7.88821
8.15229
8.32089
8.42374
8.48173
8.50779
5.17772
6.14458
6.91925
7.49081
7.88827
8.15237
8.32097
8.42382
8.48181
8.50788
5.17779
6.14466
6.91934
7.49092
7.88839
8.15248
8.32109
8.42395
8.48194
8.50801
5.17789
6.14478
6.91948
7.49107
7.88854
8.15265
8.32126
8.42413
8.48212
8.50819
5.17802
6.14494
6.91965
7.49126
7.88875
8.15287
8.32149
8.42435
8.48235
8.50842
3.32307
3.91607
4.41011
4.79019
5.0649
5.25363
5.37749
5.45473
5.49897
5.51903
3.32299
3.91598
4.41002
4.79008
5.06479
5.25352
5.37738
5.45462
5.49887
5.51895
3.32294
3.91592
4.40995
4.79001
5.06472
5.25344
5.37731
5.45455
5.49881
5.5189
3.3229
3.91588
4.40991
4.78997
5.06467
5.2534
5.37726
5.45451
5.49877
5.51886
3.32289
3.91587
4.40989
4.78995
5.06466
5.25338
5.37725
5.4545
5.49876
5.51886
3.3229
3.91588
4.40991
4.78997
5.06468
5.25341
5.37728
5.45453
5.49879
5.51889
3.32293
3.91592
4.40995
4.79002
5.06473
5.25346
5.37734
5.45459
5.49885
5.51895
3.32298
3.91598
4.41002
4.79009
5.06481
5.25355
5.37743
5.45468
5.49895
5.51905
3.32305
3.91606
4.41012
4.7902
5.06493
5.25367
5.37756
5.45481
5.49909
5.51919
3.32315
3.91618
4.41025
4.79035
5.06508
5.25383
5.37772
5.45498
5.49926
5.51936
2.09913
2.45608
2.76198