/*--------------------------------*- C++ -*----------------------------------*\
  =========                 |
  \\      /  F ield         | OpenFOAM: The Open Source CFD Toolbox
   \\    /   O peration     | Website:  https://openfoam.org
    \\  /    A nd           | Version:  6
     \\/     M anipulation  |
\*---------------------------------------------------------------------------*/
FoamFile
{
    version     2.0;
    format      ascii;
    class       volVectorField;
    location    "0.05";
    object      U;
}
// * * * * * * * * * * * * * * * * * * * * * * * * * * * * * * * * * * * * * //

dimensions      [0 1 -1 0 0 0 0];

internalField   nonuniform List<vector> 
56000
(
(-3.21648e-07 1.14697e-06 0.0523358)
(1.9018e-06 1.80666e-06 0.115804)
(8.32994e-06 9.3992e-07 0.160582)
(1.85923e-05 8.70304e-07 0.194324)
(3.09795e-05 6.03743e-07 0.220342)
(4.45711e-05 2.76521e-07 0.240382)
(5.77252e-05 1.57756e-07 0.255491)
(6.89186e-05 7.40005e-08 0.266338)
(7.70548e-05 4.40946e-09 0.27335)
(8.12585e-05 -3.1444e-08 0.276787)
(8.1021e-05 -5.61633e-08 0.276766)
(7.63086e-05 -1.01814e-07 0.273286)
(6.75913e-05 -1.90875e-07 0.266222)
(5.57788e-05 -3.02839e-07 0.255314)
(4.2092e-05 -4.56423e-07 0.240136)
(2.82408e-05 -8.17867e-07 0.220028)
(1.60358e-05 -1.10234e-06 0.193954)
(6.45409e-06 -1.16544e-06 0.16019)
(9.89867e-07 -1.95434e-06 0.115452)
(-4.35878e-07 -1.18109e-06 0.0521384)
(7.34594e-07 5.38281e-06 0.115814)
(9.5612e-06 8.51186e-06 0.283718)
(2.9979e-05 8.05469e-06 0.410418)
(5.92279e-05 6.63385e-06 0.50836)
(9.37248e-05 4.80439e-06 0.584693)
(0.000130545 3.14677e-06 0.643792)
(0.000165784 1.8936e-06 0.688476)
(0.00019573 9.30792e-07 0.720608)
(0.000217529 2.07745e-07 0.741407)
(0.000228955 -3.5878e-07 0.751613)
(0.000228713 -9.06709e-07 0.751571)
(0.000216679 -1.57715e-06 0.741275)
(0.00019397 -2.49953e-06 0.720366)
(0.000162826 -3.73545e-06 0.688099)
(0.000126356 -5.29342e-06 0.643261)
(8.87047e-05 -7.21377e-06 0.584007)
(5.42198e-05 -9.1496e-06 0.507551)
(2.6052e-05 -1.03756e-05 0.409571)
(7.46501e-06 -1.01799e-05 0.282985)
(4.09776e-07 -5.96719e-06 0.115442)
(1.34319e-06 9.1995e-06 0.160617)
(1.78322e-05 1.58849e-05 0.410466)
(5.16174e-05 1.59276e-05 0.606675)
(9.83448e-05 1.36247e-05 0.7617)
(0.000152106 1.03026e-05 0.884005)
(0.000208831 7.05875e-06 0.97937)
(0.000262727 4.37721e-06 1.05178)
(0.000308369 2.22452e-06 1.10399)
(0.000341627 5.21334e-07 1.13785)
(0.000359232 -9.0599e-07 1.15448)
(0.000359252 -2.31743e-06 1.15443)
(0.000341463 -3.98399e-06 1.13769)
(0.000307448 -6.14144e-06 1.10369)
(0.000260424 -8.90624e-06 1.0513)
(0.000204832 -1.22535e-05 0.978681)
(0.000146712 -1.60484e-05 0.883102)
(9.25287e-05 -1.95644e-05 0.76063)
(4.67846e-05 -2.14099e-05 0.605557)
(1.51122e-05 -1.99563e-05 0.409511)
(9.02664e-07 -1.08201e-05 0.160149)
(2.01398e-06 1.17575e-05 0.194399)
(2.52358e-05 2.11772e-05 0.508488)
(7.08275e-05 2.22895e-05 0.761795)
(0.000132639 1.95227e-05 0.965478)
(0.000203074 1.51891e-05 1.12801)
(0.000276706 1.0724e-05 1.25568)
(0.000346241 6.78055e-06 1.35309)
(0.000404993 3.50138e-06 1.42354)
(0.000447821 8.18028e-07 1.46932)
(0.000470639 -1.51703e-06 1.49184)
(0.000471028 -3.85583e-06 1.49179)
(0.000448661 -6.56333e-06 1.46915)
(0.000405444 -9.94945e-06 1.42322)
(0.000345319 -1.41656e-05 1.35256)
(0.000273768 -1.91113e-05 1.2549)
(0.000198223 -2.43828e-05 1.12698)
(0.000126854 -2.89656e-05 0.964241)
(6.57229e-05 -3.09925e-05 0.760497)
(2.22368e-05 -2.77188e-05 0.507381)
(1.5154e-06 -1.44748e-05 0.193862)
(2.47555e-06 1.2601e-05 0.220465)
(3.12361e-05 2.3562e-05 0.584921)
(8.6669e-05 2.55405e-05 0.884223)
(0.000161136 2.2901e-05 1.12814)
(0.000245508 1.82325e-05 1.32465)
(0.000333133 1.31292e-05 1.48005)
(0.000415553 8.42233e-06 1.59916)
(0.000485088 4.39544e-06 1.68558)
(0.000535776 1.00329e-06 1.74185)
(0.000562899 -2.02643e-06 1.76957)
(0.000563659 -5.08552e-06 1.76952)
(0.000537641 -8.58245e-06 1.74168)
(0.000486971 -1.28521e-05 1.68525)
(0.000416142 -1.80396e-05 1.5986)
(0.000331465 -2.3972e-05 1.47921)
(0.000241479 -3.00373e-05 1.32352)
(0.000155685 -3.49614e-05 1.12678)
(8.15485e-05 -3.66267e-05 0.882786)
(2.81074e-05 -3.1921e-05 0.583692)
(1.93922e-06 -1.6122e-05 0.219868)
(2.76635e-06 1.20602e-05 0.240555)
(3.58494e-05 2.31654e-05 0.644124)
(9.9097e-05 2.56842e-05 0.979716)
(0.000183708 2.34551e-05 1.25595)
(0.000279281 1.89733e-05 1.48019)
(0.000378151 1.38486e-05 1.65851)
(0.000470923 8.97963e-06 1.79576)
(0.000549105 4.71503e-06 1.89561)
(0.000606086 1.03838e-06 1.96075)
(0.000636659 -2.30659e-06 1.99288)
(0.000637738 -5.70253e-06 1.99283)
(0.000608829 -9.5515e-06 1.96058)
(0.000552223 -1.41712e-05 1.89527)
(0.000472826 -1.96752e-05 1.79517)
(0.000377608 -2.58392e-05 1.65763)
(0.000276004 -3.19581e-05 1.47898)
(0.000178595 -3.66615e-05 1.25448)
(9.4008e-05 -3.77866e-05 0.978161)
(3.2635e-05 -3.22863e-05 0.642789)
(2.1998e-06 -1.59165e-05 0.239904)
(2.96492e-06 1.04215e-05 0.255711)
(3.92217e-05 2.04158e-05 0.688904)
(0.00010836 2.30105e-05 1.05225)
(0.000200712 2.12924e-05 1.35348)
(0.000304909 1.74235e-05 1.59942)
(0.00041246 1.28474e-05 1.79588)
(0.000513227 8.39798e-06 1.94757)
(0.000598082 4.42465e-06 2.05821)
(0.000659912 9.37594e-07 2.13048)
(0.000693142 -2.27704e-06 2.16617)
(0.000694463 -5.55331e-06 2.16612)
(0.000663325 -9.24437e-06 2.13032)
(0.000602138 -1.36204e-05 2.05786)
(0.000516122 -1.8756e-05 1.94697)
(0.000412755 -2.44092e-05 1.79495)
(0.000302177 -2.9892e-05 1.59815)
(0.000195827 -3.39269e-05 1.35192)
(0.000103268 -3.45551e-05 1.05059)
(3.5925e-05 -2.91014e-05 0.687474)
(2.37181e-06 -1.40934e-05 0.255012)
(3.08796e-06 7.96746e-06 0.266598)
(4.15347e-05 1.58323e-05 0.721117)
(0.000114845 1.80494e-05 1.10456)
(0.000212749 1.68616e-05 1.42403)
(0.000323178 1.39152e-05 1.68594)
(0.000437026 1.03369e-05 1.89583)
(0.000543598 6.79534e-06 2.0583)
(0.000633299 3.58611e-06 2.177)
(0.000698648 7.3348e-07 2.25465)
(0.000733801 -1.92061e-06 2.29301)
(0.000735289 -4.63291e-06 2.29296)
(0.00070252 -7.67589e-06 2.25448)
(0.000637992 -1.12526e-05 2.17665)
(0.000547156 -1.54049e-05 2.05768)
(0.000437864 -1.99166e-05 1.89487)
(0.000320777 -2.42143e-05 1.68461)
(0.000207971 -2.72684e-05 1.4224)
(0.000109709 -2.75354e-05 1.10281)
(3.81567e-05 -2.2956e-05 0.71961)
(2.47218e-06 -1.09751e-05 0.265859)
(3.15512e-06 4.97959e-06 0.273643)
(4.29676e-05 9.98646e-06 0.741981)
(0.000118931 1.14686e-05 1.13849)
(0.000220401 1.07811e-05 1.46988)
(0.000334858 8.94644e-06 1.74228)
(0.000452788 6.67731e-06 1.96103)
(0.00056313 4.40476e-06 2.13064)
(0.00065598 2.32584e-06 2.25471)
(0.000723615 4.62836e-07 2.33593)
(0.000760013 -1.28068e-06 2.37608)
(0.000761603 -3.06555e-06 2.37603)
(0.000727763 -5.06272e-06 2.33575)
(0.000661054 -7.39731e-06 2.25434)
(0.000567075 -1.00889e-05 2.13)
(0.000453931 -1.29887e-05 1.96004)
(0.000332624 -1.57179e-05 1.74091)
(0.000215651 -1.76103e-05 1.46819)
(0.000113737 -1.7683e-05 1.13668)
(3.95222e-05 -1.46465e-05 0.740418)
(2.52256e-06 -6.94456e-06 0.272876)
(3.1845e-06 1.69216e-06 0.277105)
(4.36508e-05 3.40879e-06 0.752237)
(0.000120899 3.92879e-06 1.15518)
(0.000224108 3.70458e-06 1.49246)
(0.000340538 3.08235e-06 1.77005)
(0.000460472 2.30568e-06 1.99321)
(0.000572667 1.52333e-06 2.16637)
(0.000667067 8.04365e-07 2.29311)
(0.000735825 1.57533e-07 2.37612)
(0.000772835 -4.49526e-07 2.41716)
(0.000774471 -1.07151e-06 2.41711)
(0.000740102 -1.76658e-06 2.37595)
(0.000672315 -2.57692e-06 2.29275)
(0.000576788 -3.50802e-06 2.16572)
(0.000461747 -4.50707e-06 1.9922)
(0.000338368 -5.44174e-06 1.76866)
(0.000219357 -6.08176e-06 1.49074)
(0.000115667 -6.09006e-06 1.15334)
(4.01672e-05 -5.02824e-06 0.750645)
(2.543e-06 -2.3745e-06 0.276323)
(3.1845e-06 -1.69225e-06 0.277105)
(4.36508e-05 -3.40906e-06 0.752237)
(0.000120899 -3.92924e-06 1.15518)
(0.000224108 -3.70521e-06 1.49246)
(0.000340538 -3.08312e-06 1.77005)
(0.000460472 -2.30653e-06 1.99321)
(0.000572668 -1.5242e-06 2.16637)
(0.000667067 -8.05177e-07 2.29311)
(0.000735825 -1.58227e-07 2.37612)
(0.000772835 4.48994e-07 2.41716)
(0.000774472 1.07116e-06 2.41711)
(0.000740102 1.76642e-06 2.37595)
(0.000672315 2.57693e-06 2.29275)
(0.000576788 3.50818e-06 2.16572)
(0.000461748 4.50731e-06 1.9922)
(0.000338368 5.442e-06 1.76866)
(0.000219357 6.08198e-06 1.49074)
(0.000115667 6.09019e-06 1.15334)
(4.01672e-05 5.02826e-06 0.750645)
(2.54301e-06 2.37451e-06 0.276323)
(3.15511e-06 -4.97969e-06 0.273643)
(4.29676e-05 -9.98673e-06 0.741981)
(0.000118931 -1.14691e-05 1.13849)
(0.000220401 -1.07818e-05 1.46988)
(0.000334858 -8.94722e-06 1.74228)
(0.000452789 -6.67816e-06 1.96103)
(0.000563131 -4.40561e-06 2.13064)
(0.000655981 -2.32662e-06 2.25471)
(0.000723615 -4.63493e-07 2.33593)
(0.000760014 1.28019e-06 2.37608)
(0.000761604 3.06524e-06 2.37603)
(0.000727764 5.06259e-06 2.33575)
(0.000661054 7.39735e-06 2.25434)
(0.000567076 1.0089e-05 2.13)
(0.000453932 1.2989e-05 1.96004)
(0.000332624 1.57182e-05 1.74091)
(0.000215651 1.76105e-05 1.4682)
(0.000113737 1.76832e-05 1.13668)
(3.95223e-05 1.46465e-05 0.740418)
(2.52257e-06 6.94459e-06 0.272876)
(3.08796e-06 -7.9676e-06 0.266598)
(4.15349e-05 -1.58327e-05 0.721117)
(0.000114846 -1.80499e-05 1.10456)
(0.00021275 -1.68623e-05 1.42403)
(0.000323179 -1.3916e-05 1.68594)
(0.000437027 -1.03377e-05 1.89583)
(0.000543599 -6.79613e-06 2.0583)
(0.000633301 -3.58682e-06 2.177)
(0.000698649 -7.34063e-07 2.25465)
(0.000733803 1.92018e-06 2.29301)
(0.000735291 4.63266e-06 2.29296)
(0.000702521 7.67581e-06 2.25448)
(0.000637993 1.12526e-05 2.17665)
(0.000547157 1.54051e-05 2.05768)
(0.000437865 1.99169e-05 1.89487)
(0.000320778 2.42146e-05 1.68461)
(0.000207972 2.72687e-05 1.4224)
(0.000109709 2.75356e-05 1.10281)
(3.81568e-05 2.29561e-05 0.71961)
(2.4722e-06 1.09752e-05 0.26586)
(2.96495e-06 -1.04217e-05 0.255711)
(3.9222e-05 -2.04163e-05 0.688904)
(0.000108361 -2.30112e-05 1.05225)
(0.000200713 -2.12931e-05 1.35348)
(0.00030491 -1.74242e-05 1.59942)
(0.000412462 -1.28481e-05 1.79588)
(0.000513229 -8.39865e-06 1.94757)
(0.000598084 -4.42523e-06 2.05821)
(0.000659914 -9.38049e-07 2.13049)
(0.000693144 2.27673e-06 2.16617)
(0.000694465 5.55315e-06 2.16612)
(0.000663327 9.24436e-06 2.13032)
(0.00060214 1.36205e-05 2.05786)
(0.000516123 1.87562e-05 1.94697)
(0.000412756 2.44095e-05 1.79495)
(0.000302178 2.98924e-05 1.59815)
(0.000195828 3.39273e-05 1.35192)
(0.000103269 3.45555e-05 1.05059)
(3.59252e-05 2.91017e-05 0.687475)
(2.37183e-06 1.40935e-05 0.255012)
(2.76643e-06 -1.20607e-05 0.240555)
(3.585e-05 -2.31662e-05 0.644124)
(9.90979e-05 -2.5685e-05 0.979716)
(0.000183709 -2.34558e-05 1.25595)
(0.000279283 -1.89739e-05 1.48019)
(0.000378152 -1.38492e-05 1.65851)
(0.000470925 -8.98011e-06 1.79576)
(0.000549107 -4.71543e-06 1.89561)
(0.000606088 -1.03867e-06 1.96075)
(0.000636662 2.30643e-06 1.99288)
(0.00063774 5.70249e-06 1.99283)
(0.000608832 9.55157e-06 1.96058)
(0.000552225 1.41714e-05 1.89527)
(0.000472828 1.96755e-05 1.79517)
(0.00037761 2.58395e-05 1.65763)
(0.000276006 3.19586e-05 1.47898)
(0.000178596 3.66621e-05 1.25448)
(9.40088e-05 3.77872e-05 0.978161)
(3.26352e-05 3.22867e-05 0.642789)
(2.19982e-06 1.59167e-05 0.239905)
(2.4757e-06 -1.2602e-05 0.220465)
(3.1237e-05 -2.35632e-05 0.584921)
(8.66703e-05 -2.55416e-05 0.884223)
(0.000161137 -2.29018e-05 1.12814)
(0.00024551 -1.8233e-05 1.32465)
(0.000333135 -1.31296e-05 1.48005)
(0.000415555 -8.42267e-06 1.59916)
(0.00048509 -4.39569e-06 1.68558)
(0.000535779 -1.00344e-06 1.74185)
(0.000562901 2.02638e-06 1.76957)
(0.000563662 5.08555e-06 1.76952)
(0.000537644 8.58253e-06 1.74168)
(0.000486974 1.28522e-05 1.68525)
(0.000416145 1.80397e-05 1.5986)
(0.000331468 2.39723e-05 1.47921)
(0.000241481 3.00378e-05 1.32352)
(0.000155686 3.49621e-05 1.12678)
(8.15493e-05 3.66274e-05 0.882786)
(2.81077e-05 3.19216e-05 0.583692)
(1.93922e-06 1.61223e-05 0.219868)
(2.01423e-06 -1.17596e-05 0.194399)
(2.52374e-05 -2.11791e-05 0.508488)
(7.08292e-05 -2.2291e-05 0.761795)
(0.00013264 -1.95237e-05 0.965478)
(0.000203075 -1.51897e-05 1.12801)
(0.000276708 -1.07244e-05 1.25568)
(0.000346243 -6.78085e-06 1.35309)
(0.000404996 -3.50161e-06 1.42354)
(0.000447823 -8.18179e-07 1.46932)
(0.000470641 1.51695e-06 1.49184)
(0.000471031 3.85579e-06 1.49179)
(0.000448664 6.5633e-06 1.46915)
(0.000405447 9.9494e-06 1.42322)
(0.000345322 1.41656e-05 1.35256)
(0.00027377 1.91114e-05 1.2549)
(0.000198225 2.43831e-05 1.12698)
(0.000126855 2.89661e-05 0.964241)
(6.57235e-05 3.09931e-05 0.760497)
(2.2237e-05 2.77193e-05 0.507381)
(1.51538e-06 1.4475e-05 0.193862)
(1.34371e-06 -9.20433e-06 0.160617)
(1.78352e-05 -1.58885e-05 0.410466)
(5.16198e-05 -1.59298e-05 0.606675)
(9.83467e-05 -1.3626e-05 0.7617)
(0.000152107 -1.03033e-05 0.884005)
(0.000208832 -7.0593e-06 0.97937)
(0.000262729 -4.37765e-06 1.05178)
(0.000308371 -2.22489e-06 1.10399)
(0.00034163 -5.21658e-07 1.13785)
(0.000359234 9.05703e-07 1.15448)
(0.000359255 2.31715e-06 1.15443)
(0.000341465 3.9837e-06 1.13769)
(0.00030745 6.14112e-06 1.10369)
(0.000260426 8.90591e-06 1.0513)
(0.000204834 1.22533e-05 0.978681)
(0.000146713 1.60483e-05 0.883103)
(9.25293e-05 1.95644e-05 0.76063)
(4.67849e-05 2.14101e-05 0.605557)
(1.51122e-05 1.99564e-05 0.409511)
(9.02627e-07 1.08202e-05 0.160149)
(7.38509e-07 -5.39806e-06 0.115814)
(9.56849e-06 -8.51923e-06 0.283718)
(2.99826e-05 -8.05746e-06 0.410418)
(5.92299e-05 -6.63517e-06 0.50836)
(9.37262e-05 -4.80509e-06 0.584693)
(0.000130546 -3.14718e-06 0.643792)
(0.000165786 -1.89388e-06 0.688476)
(0.000195732 -9.31014e-07 0.720608)
(0.000217531 -2.07941e-07 0.741407)
(0.000228957 3.58587e-07 0.751613)
(0.000228715 9.06507e-07 0.751571)
(0.000216681 1.57694e-06 0.741275)
(0.000193971 2.49931e-06 0.720366)
(0.000162828 3.73524e-06 0.688099)
(0.000126357 5.29325e-06 0.643261)
(8.87054e-05 7.21365e-06 0.584007)
(5.422e-05 9.14956e-06 0.507551)
(2.60519e-05 1.03756e-05 0.409571)
(7.46499e-06 1.01798e-05 0.282985)
(4.09866e-07 5.96725e-06 0.115442)
(-3.10543e-07 -1.15813e-06 0.0523358)
(1.91702e-06 -1.8106e-06 0.115804)
(8.33471e-06 -9.4027e-07 0.160582)
(1.85942e-05 -8.70395e-07 0.194324)
(3.09805e-05 -6.03772e-07 0.220342)
(4.45718e-05 -2.76536e-07 0.240382)
(5.77259e-05 -1.57765e-07 0.255491)
(6.89194e-05 -7.40037e-08 0.266338)
(7.70556e-05 -4.41335e-09 0.27335)
(8.12594e-05 3.14281e-08 0.276787)
(8.10218e-05 5.61283e-08 0.276766)
(7.63095e-05 1.01764e-07 0.273286)
(6.75921e-05 1.9082e-07 0.266222)
(5.57794e-05 3.02783e-07 0.255314)
(4.20924e-05 4.56366e-07 0.240136)
(2.8241e-05 8.17811e-07 0.220028)
(1.60358e-05 1.10228e-06 0.193954)
(6.454e-06 1.16537e-06 0.16019)
(9.89892e-07 1.95432e-06 0.115452)
(-4.35771e-07 1.18112e-06 0.0521384)
(-1.342e-06 2.61607e-06 0.0523303)
(2.74171e-07 3.89709e-06 0.11579)
(9.74076e-06 2.90069e-06 0.160563)
(2.74998e-05 2.48582e-06 0.194301)
(5.11541e-05 1.83897e-06 0.220317)
(7.82004e-05 1.16599e-06 0.240358)
(0.000105064 7.56737e-07 0.25547)
(0.000128283 4.33478e-07 0.266322)
(0.000145069 1.60556e-07 0.273341)
(0.000153303 -6.12389e-08 0.276785)
(0.000151825 -2.74436e-07 0.276772)
(0.000140648 -5.30735e-07 0.273299)
(0.000121025 -8.70535e-07 0.266241)
(9.53402e-05 -1.2869e-06 0.255338)
(6.68357e-05 -1.80238e-06 0.240163)
(3.95109e-05 -2.56707e-06 0.220055)
(1.7324e-05 -3.2424e-06 0.193979)
(2.69422e-06 -3.56996e-06 0.160209)
(-2.97658e-06 -4.24729e-06 0.115465)
(-1.69643e-06 -2.55659e-06 0.0521432)
(-2.1563e-07 1.3378e-05 0.115801)
(1.26661e-05 2.28732e-05 0.283684)
(4.8269e-05 2.34048e-05 0.410369)
(0.000104073 2.05154e-05 0.5083)
(0.000174033 1.62194e-05 0.584629)
(0.000251066 1.18453e-05 0.643729)
(0.000326305 7.95839e-06 0.68842)
(0.000391042 4.5404e-06 0.720565)
(0.000438028 1.50976e-06 0.741381)
(0.000461755 -1.31093e-06 0.751606)
(0.000459156 -4.17813e-06 0.751586)
(0.000430123 -7.34755e-06 0.741309)
(0.000377682 -1.10318e-05 0.720417)
(0.000307765 -1.53087e-05 0.688164)
(0.000228584 -2.0085e-05 0.643332)
(0.000150122 -2.51035e-05 0.584078)
(8.23107e-05 -2.94096e-05 0.507615)
(3.23846e-05 -3.12065e-05 0.409622)
(4.69243e-06 -2.80663e-05 0.283018)
(-1.33411e-06 -1.48457e-05 0.115454)
(9.39794e-07 2.4516e-05 0.160599)
(2.9177e-05 4.47762e-05 0.410417)
(9.32636e-05 4.80277e-05 0.606602)
(0.000187495 4.35827e-05 0.76161)
(0.000301416 3.55751e-05 0.883908)
(0.00042449 2.669e-05 0.979274)
(0.000543433 1.82101e-05 1.0517)
(0.000645328 1.04073e-05 1.10393)
(0.000719442 3.21784e-06 1.13781)
(0.000757534 -3.67198e-06 1.15447)
(0.000754939 -1.07261e-05 1.15445)
(0.000711338 -1.84099e-05 1.13774)
(0.000631041 -2.70726e-05 1.10377)
(0.000522651 -3.67777e-05 1.0514)
(0.000398139 -4.71703e-05 0.978787)
(0.000272251 -5.73593e-05 0.883208)
(0.000159972 -6.52412e-05 0.760726)
(7.24501e-05 -6.72022e-05 0.605632)
(1.8312e-05 -5.83202e-05 0.409559)
(-6.38379e-07 -2.9465e-05 0.160166)
(2.28572e-06 3.296e-05 0.194378)
(4.57919e-05 6.24302e-05 0.508428)
(0.000137361 6.92957e-05 0.761704)
(0.000267582 6.43111e-05 0.965365)
(0.000422092 5.36119e-05 1.12789)
(0.000586833 4.09423e-05 1.25556)
(0.000744801 2.82085e-05 1.35298)
(0.0008797 1.61003e-05 1.42346)
(0.000977933 4.65778e-06 1.46926)
(0.00102903 -6.50637e-06 1.49182)
(0.001027 -1.79881e-05 1.49181)
(0.000971282 -3.03803e-05 1.46921)
(0.000867118 -4.40866e-05 1.42331)
(0.000725184 -5.90836e-05 1.35268)
(0.000560467 -7.46634e-05 1.25503)
(0.000391532 -8.9181e-05 1.12711)
(0.000237674 -9.95081e-05 0.964359)
(0.000114071 -0.000100547 0.760589)
(3.33215e-05 -8.49931e-05 0.507439)
(4.464e-07 -4.18247e-05 0.193881)
(3.35759e-06 3.69986e-05 0.220441)
(6.05419e-05 7.21661e-05 0.584853)
(0.000176723 8.19756e-05 0.884118)
(0.000339086 7.75109e-05 1.12801)
(0.000529565 6.56695e-05 1.32451)
(0.000730878 5.07779e-05 1.47991)
(0.000922894 3.52324e-05 1.59903)
(0.00108649 2.00616e-05 1.68548)
(0.00120569 5.43133e-06 1.74179)
(0.00126819 -9.03059e-06 1.76955)
(0.00126691 -2.39492e-05 1.76954)
(0.00120106 -3.99443e-05 1.74175)
(0.00107656 -5.73864e-05 1.68536)
(0.00090575 -7.61117e-05 1.59874)
(0.000706086 -9.50987e-05 1.47936)
(0.000499321 -0.000112121 1.32367)
(0.000308393 -0.000123282 1.12691)
(0.000152183 -0.00012261 0.882889)
(4.71302e-05 -0.000101744 0.583756)
(1.34555e-06 -4.89273e-05 0.219889)
(4.15123e-06 3.67401e-05 0.24053)
(7.27515e-05 7.32282e-05 0.644051)
(0.000209712 8.46513e-05 0.979601)
(0.000399327 8.11909e-05 1.2558)
(0.0006203 6.96035e-05 1.48003)
(0.000852553 5.43065e-05 1.65835)
(0.00107331 3.7873e-05 1.79561)
(0.00126108 2.14979e-05 1.8955)
(0.00139793 5.45308e-06 1.96068)
(0.00147005 -1.05621e-05 1.99285)
(0.00146949 -2.71188e-05 1.99285)
(0.00139523 -4.47815e-05 1.96066)
(0.00125377 -6.38352e-05 1.89539)
(0.00105872 -8.39838e-05 1.79532)
(0.000829594 -0.000104014 1.65779)
(0.000590811 -0.000121434 1.47914)
(0.000368388 -0.000132067 1.25462)
(0.000184411 -0.000129745 0.978271)
(5.8688e-05 -0.000106131 0.642855)
(2.00693e-06 -5.01417e-05 0.239925)
(4.73506e-06 3.26811e-05 0.255685)
(8.22684e-05 6.61832e-05 0.688826)
(0.000235773 7.74977e-05 1.05213)
(0.000447252 7.51138e-05 1.35332)
(0.00069279 6.49568e-05 1.59925)
(0.000949992 5.10222e-05 1.79571)
(0.00119391 3.57129e-05 1.94742)
(0.00140115 2.02056e-05 2.05809)
(0.00155218 4.82591e-06 2.13041)
(0.00163203 -1.0636e-05 2.16614)
(0.00163205 -2.66455e-05 2.16615)
(0.00155104 -4.36599e-05 2.13039)
(0.00139593 -6.18653e-05 2.05798)
(0.00118137 -8.08925e-05 1.94713)
(0.000928504 -9.95116e-05 1.79512)
(0.000663905 -0.000115312 1.59832)
(0.000416113 -0.000124378 1.35207)
(0.000209859 -0.000121075 1.0507)
(6.76768e-05 -9.79798e-05 0.687542)
(2.48054e-06 -4.56756e-05 0.255032)
(5.13207e-06 2.55516e-05 0.266571)
(8.91776e-05 5.23368e-05 0.721037)
(0.000254944 6.18409e-05 1.10443)
(0.000482754 6.03911e-05 1.42387)
(0.000746727 5.25539e-05 1.68577)
(0.00102269 4.14786e-05 1.89565)
(0.00128403 2.91049e-05 2.05814)
(0.0015059 1.64187e-05 2.17687)
(0.00166758 3.72652e-06 2.25456)
(0.00175323 -9.09865e-06 2.29298)
(0.00175365 -2.23921e-05 2.29299)
(0.00166754 -3.64815e-05 2.25456)
(0.00150213 -5.14683e-05 2.17677)
(0.00127288 -6.69978e-05 2.05784)
(0.00100214 -8.20156e-05 1.89504)
(0.000718142 -9.4522e-05 1.68479)
(0.000451338 -0.000101344 1.42255)
(0.000228481 -9.79978e-05 1.10293)
(7.41448e-05 -7.86973e-05 0.719678)
(2.78729e-06 -3.63322e-05 0.265879)
(5.37339e-06 1.62139e-05 0.273616)
(9.36523e-05 3.34539e-05 0.7419)
(0.000267489 3.97589e-05 1.13836)
(0.000506118 3.90162e-05 1.46972)
(0.00078235 3.40909e-05 1.7421)
(0.00107081 2.69889e-05 1.96085)
(0.00134377 1.89659e-05 2.13047)
(0.0015754 1.06754e-05 2.25457)
(0.00174418 2.33408e-06 2.33584)
(0.00183368 -6.12228e-06 2.37604)
(0.00183435 -1.48933e-05 2.37605)
(0.00174481 -2.41728e-05 2.33584)
(0.00157251 -3.40055e-05 2.25447)
(0.00133342 -4.41372e-05 2.13016)
(0.00105076 -5.38588e-05 1.96022)
(0.00075384 -6.18524e-05 1.74109)
(0.000474412 -6.60575e-05 1.46835)
(0.000240588 -6.36002e-05 1.1368)
(7.82903e-05 -5.08207e-05 0.740486)
(2.96336e-06 -2.33151e-05 0.272895)
(5.48711e-06 5.55169e-06 0.277078)
(9.5847e-05 1.14955e-05 0.752155)
(0.000273681 1.37006e-05 1.15505)
(0.00051769 1.34767e-05 1.4923)
(0.000800036 1.17985e-05 1.76987)
(0.00109474 9.35424e-06 1.99302)
(0.0013735 6.57789e-06 2.1662)
(0.00161001 3.69791e-06 2.29298)
(0.00178234 7.92359e-07 2.37603)
(0.00187375 -2.15796e-06 2.41713)
(0.00187454 -5.21907e-06 2.41714)
(0.00178328 -8.45475e-06 2.37603)
(0.00160752 -1.18768e-05 2.29288)
(0.00136351 -1.53933e-05 2.16589)
(0.00107489 -1.87545e-05 1.99238)
(0.000771514 -2.15007e-05 1.76884)
(0.000485799 -2.29185e-05 1.4909)
(0.000246534 -2.2019e-05 1.15346)
(8.03073e-05 -1.75518e-05 0.750712)
(3.04267e-06 -8.02746e-06 0.276342)
(5.48711e-06 -5.55212e-06 0.277078)
(9.58471e-05 -1.14967e-05 0.752155)
(0.000273681 -1.37026e-05 1.15505)
(0.00051769 -1.34791e-05 1.4923)
(0.000800036 -1.18013e-05 1.76987)
(0.00109474 -9.35708e-06 1.99302)
(0.0013735 -6.5805e-06 2.1662)
(0.00161001 -3.70005e-06 2.29298)
(0.00178234 -7.93808e-07 2.37603)
(0.00187376 2.15734e-06 2.41713)
(0.00187454 5.21934e-06 2.41714)
(0.00178328 8.45589e-06 2.37603)
(0.00160752 1.18788e-05 2.29288)
(0.00136351 1.53958e-05 2.16589)
(0.00107489 1.87573e-05 1.99238)
(0.000771514 2.15036e-05 1.76884)
(0.000485799 2.29211e-05 1.4909)
(0.000246534 2.2021e-05 1.15346)
(8.03073e-05 1.7553e-05 0.750712)
(3.04268e-06 8.02791e-06 0.276342)
(5.3734e-06 -1.62144e-05 0.273616)
(9.36525e-05 -3.34552e-05 0.7419)
(0.00026749 -3.97609e-05 1.13836)
(0.000506118 -3.90187e-05 1.46972)
(0.000782351 -3.40937e-05 1.7421)
(0.00107081 -2.69918e-05 1.96085)
(0.00134377 -1.89685e-05 2.13047)
(0.0015754 -1.06775e-05 2.25457)
(0.00174418 -2.33552e-06 2.33584)
(0.00183368 6.12166e-06 2.37605)
(0.00183435 1.48936e-05 2.37605)
(0.00174481 2.41739e-05 2.33584)
(0.00157251 3.40073e-05 2.25447)
(0.00133343 4.41396e-05 2.13016)
(0.00105077 5.38616e-05 1.96022)
(0.000753841 6.18553e-05 1.74109)
(0.000474413 6.60601e-05 1.46835)
(0.000240589 6.36022e-05 1.1368)
(7.82905e-05 5.08219e-05 0.740486)
(2.96337e-06 2.33156e-05 0.272895)
(5.13211e-06 -2.55521e-05 0.266571)
(8.91779e-05 -5.23381e-05 0.721037)
(0.000254945 -6.1843e-05 1.10443)
(0.000482755 -6.03936e-05 1.42387)
(0.000746729 -5.25567e-05 1.68577)
(0.00102269 -4.14814e-05 1.89565)
(0.00128403 -2.91074e-05 2.05814)
(0.0015059 -1.64207e-05 2.17687)
(0.00166758 -3.72793e-06 2.25456)
(0.00175324 9.09803e-06 2.29298)
(0.00175365 2.23924e-05 2.29299)
(0.00166755 3.64825e-05 2.25456)
(0.00150214 5.14701e-05 2.17677)
(0.00127288 6.70001e-05 2.05784)
(0.00100215 8.20183e-05 1.89504)
(0.000718144 9.45247e-05 1.68479)
(0.000451339 0.000101346 1.42255)
(0.000228481 9.79999e-05 1.10293)
(7.41451e-05 7.86985e-05 0.719678)
(2.78731e-06 3.63327e-05 0.265879)
(4.73515e-06 -3.26817e-05 0.255685)
(8.22689e-05 -6.61847e-05 0.688827)
(0.000235774 -7.74998e-05 1.05213)
(0.000447254 -7.51163e-05 1.35332)
(0.000692793 -6.49595e-05 1.59925)
(0.000949996 -5.10248e-05 1.79571)
(0.00119392 -3.57153e-05 1.94742)
(0.00140115 -2.02076e-05 2.05809)
(0.00155218 -4.82723e-06 2.13041)
(0.00163204 1.06354e-05 2.16614)
(0.00163205 2.66457e-05 2.16615)
(0.00155105 4.36609e-05 2.13039)
(0.00139593 6.1867e-05 2.05798)
(0.00118137 8.08947e-05 1.94713)
(0.000928508 9.95142e-05 1.79512)
(0.000663908 0.000115315 1.59832)
(0.000416115 0.000124381 1.35207)
(0.00020986 0.000121077 1.0507)
(6.76772e-05 9.79812e-05 0.687542)
(2.48056e-06 4.56762e-05 0.255032)
(4.15138e-06 -3.67409e-05 0.24053)
(7.27522e-05 -7.32299e-05 0.644051)
(0.000209713 -8.46536e-05 0.979602)
(0.000399329 -8.11933e-05 1.2558)
(0.000620303 -6.9606e-05 1.48003)
(0.000852557 -5.4309e-05 1.65835)
(0.00107331 -3.78752e-05 1.79561)
(0.00126109 -2.14996e-05 1.8955)
(0.00139793 -5.45429e-06 1.96068)
(0.00147006 1.05615e-05 1.99285)
(0.00146949 2.71189e-05 1.99285)
(0.00139524 4.47823e-05 1.96066)
(0.00125377 6.38366e-05 1.89539)
(0.00105872 8.39857e-05 1.79532)
(0.000829599 0.000104017 1.65779)
(0.000590814 0.000121437 1.47914)
(0.000368391 0.000132069 1.25462)
(0.000184412 0.000129747 0.978271)
(5.86884e-05 0.000106133 0.642855)
(2.00695e-06 5.01424e-05 0.239925)
(3.3578e-06 -3.69997e-05 0.220441)
(6.0543e-05 -7.2168e-05 0.584853)
(0.000176724 -8.19778e-05 0.884118)
(0.000339088 -7.75132e-05 1.12801)
(0.000529569 -6.56717e-05 1.32451)
(0.000730882 -5.078e-05 1.47991)
(0.000922899 -3.52342e-05 1.59903)
(0.0010865 -2.0063e-05 1.68548)
(0.0012057 -5.43231e-06 1.74179)
(0.0012682 9.03015e-06 1.76955)
(0.00126692 2.39494e-05 1.76954)
(0.00120107 3.9945e-05 1.74175)
(0.00107657 5.73875e-05 1.68536)
(0.000905756 7.61133e-05 1.59874)
(0.00070609 9.51005e-05 1.47936)
(0.000499324 0.000112123 1.32367)
(0.000308395 0.000123284 1.12691)
(0.000152184 0.000122612 0.882889)
(4.71306e-05 0.000101745 0.583756)
(1.34556e-06 4.89279e-05 0.219889)
(2.28609e-06 -3.29617e-05 0.194378)
(4.57933e-05 -6.24324e-05 0.508429)
(0.000137363 -6.92979e-05 0.761704)
(0.000267585 -6.43129e-05 0.965365)
(0.000422095 -5.36135e-05 1.12789)
(0.000586837 -4.09437e-05 1.25556)
(0.000744806 -2.82096e-05 1.35298)
(0.000879706 -1.61012e-05 1.42346)
(0.000977939 -4.65831e-06 1.46926)
(0.00102904 6.50624e-06 1.49182)
(0.001027 1.79884e-05 1.49181)
(0.000971288 3.03809e-05 1.46921)
(0.000867124 4.40876e-05 1.42331)
(0.000725189 5.90848e-05 1.35268)
(0.000560471 7.4665e-05 1.25503)
(0.000391536 8.91828e-05 1.12711)
(0.000237676 9.95101e-05 0.964359)
(0.000114072 0.000100549 0.760589)
(3.33218e-05 8.49944e-05 0.507439)
(4.46406e-07 4.18253e-05 0.193881)
(9.40653e-07 -2.45189e-05 0.160599)
(2.91793e-05 -4.47789e-05 0.410417)
(9.32662e-05 -4.80295e-05 0.606602)
(0.000187498 -4.35838e-05 0.76161)
(0.000301419 -3.55757e-05 0.883908)
(0.000424494 -2.66904e-05 0.979275)
(0.000543438 -1.82103e-05 1.0517)
(0.000645334 -1.04073e-05 1.10393)
(0.000719447 -3.21766e-06 1.13781)
(0.00075754 3.6724e-06 1.15447)
(0.000754945 1.07267e-05 1.15445)
(0.000711344 1.84108e-05 1.13774)
(0.000631046 2.70736e-05 1.10377)
(0.000522656 3.67789e-05 1.0514)
(0.000398143 4.71717e-05 0.978787)
(0.000272254 5.73608e-05 0.883209)
(0.000159974 6.52429e-05 0.760726)
(7.24508e-05 6.72037e-05 0.605632)
(1.83121e-05 5.83214e-05 0.409559)
(-6.38417e-07 2.94656e-05 0.160166)
(-2.12964e-07 -1.33831e-05 0.115801)
(1.267e-05 -2.28764e-05 0.283684)
(4.82722e-05 -2.34065e-05 0.410369)
(0.000104075 -2.05161e-05 0.5083)
(0.000174035 -1.62196e-05 0.584629)
(0.000251069 -1.18453e-05 0.643729)
(0.000326308 -7.95825e-06 0.68842)
(0.000391045 -4.54015e-06 0.720565)
(0.000438032 -1.50941e-06 0.741381)
(0.000461759 1.31137e-06 0.751607)
(0.000459161 4.17864e-06 0.751586)
(0.000430128 7.34815e-06 0.741309)
(0.000377686 1.10324e-05 0.720418)
(0.000307769 1.53095e-05 0.688164)
(0.000228586 2.00858e-05 0.643332)
(0.000150123 2.51044e-05 0.584078)
(8.23115e-05 2.94105e-05 0.507615)
(3.23848e-05 3.12074e-05 0.409622)
(4.69227e-06 2.80669e-05 0.283018)
(-1.33432e-06 1.4846e-05 0.115454)
(-1.33809e-06 -2.61973e-06 0.0523303)
(2.79764e-07 -3.89941e-06 0.11579)
(9.7439e-06 -2.9013e-06 0.160563)
(2.75015e-05 -2.48594e-06 0.194301)
(5.11553e-05 -1.83894e-06 0.220317)
(7.82015e-05 -1.16592e-06 0.240358)
(0.000105065 -7.5665e-07 0.25547)
(0.000128284 -4.33378e-07 0.266322)
(0.000145071 -1.60449e-07 0.273341)
(0.000153305 6.13421e-08 0.276785)
(0.000151827 2.74527e-07 0.276772)
(0.00014065 5.30812e-07 0.273299)
(0.000121026 8.70604e-07 0.266241)
(9.53415e-05 1.28696e-06 0.255338)
(6.68366e-05 1.80244e-06 0.240163)
(3.95115e-05 2.56712e-06 0.220055)
(1.73242e-05 3.24244e-06 0.193979)
(2.69419e-06 3.56999e-06 0.160209)
(-2.97678e-06 4.2473e-06 0.115465)
(-1.69655e-06 2.55664e-06 0.0521432)
(-2.39692e-06 4.28923e-06 0.0523212)
(-7.34955e-07 6.23517e-06 0.115768)
(1.31829e-05 5.053e-06 0.160529)
(4.0479e-05 4.23548e-06 0.194261)
(7.78371e-05 3.16097e-06 0.220273)
(0.000120941 2.10701e-06 0.240315)
(0.000164058 1.38228e-06 0.255432)
(0.00020157 8.01791e-07 0.266293)
(0.000228799 3.12111e-07 0.273324)
(0.000242198 -1.0762e-07 0.276781)
(0.000239816 -5.22745e-07 0.276783)
(0.000221625 -1.00765e-06 0.273324)
(0.000189652 -1.62397e-06 0.266278)
(0.000147853 -2.38171e-06 0.255384)
(0.000101705 -3.31028e-06 0.240213)
(5.78286e-05 -4.5449e-06 0.220104)
(2.27415e-05 -5.68999e-06 0.194022)
(7.28597e-07 -6.3599e-06 0.160243)
(-6.57503e-06 -6.97061e-06 0.115487)
(-3.07133e-06 -4.2449e-06 0.0521507)
(-1.02528e-06 2.23044e-05 0.115779)
(1.8114e-05 3.86374e-05 0.283626)
(7.30644e-05 4.00353e-05 0.410281)
(0.000161111 3.54005e-05 0.508192)
(0.000273162 2.83493e-05 0.584511)
(0.000397418 2.10074e-05 0.643614)
(0.00051949 1.4282e-05 0.688318)
(0.000625129 8.24202e-06 0.720486)
(0.000702175 2.75852e-06 0.741333)
(0.000741368 -2.46019e-06 0.751596)
(0.000737491 -7.81117e-06 0.751614)
(0.000690209 -1.36874e-05 0.741375)
(0.000604415 -2.04059e-05 0.720515)
(0.000489953 -2.80766e-05 0.688285)
(0.000360652 -3.65072e-05 0.643466)
(0.000233139 -4.51205e-05 0.58421)
(0.000123946 -5.22846e-05 0.507733)
(4.54504e-05 -5.49807e-05 0.409713)
(4.00267e-06 -4.8774e-05 0.283076)
(-3.06664e-06 -2.53468e-05 0.115473)
(8.28756e-07 4.13477e-05 0.160569)
(4.45239e-05 7.61516e-05 0.410332)
(0.0001456 8.25567e-05 0.606471)
(0.000296243 7.55467e-05 0.761447)
(0.000480556 6.23381e-05 0.88373)
(0.000680727 4.73221e-05 0.979099)
(0.000875169 3.26174e-05 1.05154)
(0.00104267 1.8796e-05 1.10381)