/*--------------------------------*- C++ -*----------------------------------*\
  =========                 |
  \\      /  F ield         | OpenFOAM: The Open Source CFD Toolbox
   \\    /   O peration     | Website:  https://openfoam.org
    \\  /    A nd           | Version:  7
     \\/     M anipulation  |
\*---------------------------------------------------------------------------*/
FoamFile
{
    version     2.0;
    format      ascii;
    class       volScalarField;
    location    "359";
    object      p;
}
// * * * * * * * * * * * * * * * * * * * * * * * * * * * * * * * * * * * * * //

dimensions      [0 2 -2 0 0 0 0];

internalField   nonuniform List<scalar> 
3000
(
0.0165793
0.0142927
0.0137336
0.0134545
0.0132824
0.0132331
0.0133111
0.0135105
0.0140077
0.0162128
0.0143262
0.0120381
0.0114803
0.0112015
0.0110295
0.0109804
0.0110585
0.0112578
0.0117539
0.0139606
0.0137941
0.0115073
0.0109494
0.0106707
0.0104988
0.0104497
0.0105279
0.0107271
0.0112233
0.0134289
0.0135516
0.011265
0.0107073
0.0104287
0.0102569
0.0102078
0.010286
0.0104851
0.0109813
0.0131867
0.0134246
0.011138
0.0105803
0.0103018
0.01013
0.010081
0.0101591
0.0103582
0.0108544
0.0130598
0.0134247
0.0111381
0.0105803
0.0103018
0.0101301
0.010081
0.0101592
0.0103583
0.0108544
0.0130599
0.0135517
0.0112651
0.0107073
0.0104288
0.010257
0.0102079
0.010286
0.0104852
0.0109814
0.0131867
0.0137942
0.0115074
0.0109495
0.0106708
0.0104989
0.0104498
0.010528
0.0107273
0.0112235
0.013429
0.0143263
0.0120382
0.0114805
0.0112016
0.0110297
0.0109805
0.0110587
0.011258
0.011754
0.0139607
0.0165795
0.0142929
0.0137338
0.0134547
0.0132826
0.0132333
0.0133113
0.0135107
0.0140078
0.0162129
0.0136464
0.0121818
0.0121693
0.0118898
0.0117119
0.0116591
0.0117351
0.0119266
0.011882
0.0132496
0.0122203
0.0107552
0.0107461
0.0104662
0.0102884
0.0102358
0.010312
0.0105043
0.0104565
0.0118249
0.0122322
0.0107705
0.0107605
0.0104807
0.0103029
0.0102503
0.0103266
0.0105188
0.010472
0.0118372
0.0119925
0.0105303
0.0105203
0.0102409
0.0100632
0.0100106
0.0100869
0.0102789
0.010232
0.0115978
0.011863
0.0104007
0.0103908
0.0101114
0.00993373
0.00988121
0.00995752
0.0101494
0.0101026
0.0114685
0.011863
0.0104007
0.0103908
0.0101114
0.00993376
0.00988123
0.00995755
0.0101495
0.0101026
0.0114685
0.0119925
0.0105303
0.0105204
0.0102409
0.0100633
0.0100107
0.010087
0.010279
0.010232
0.0115978
0.0122323
0.0107706
0.0107606
0.0104808
0.0103031
0.0102505
0.0103268
0.0105189
0.0104721
0.0118373
0.0122204
0.0107553
0.0107462
0.0104663
0.0102885
0.0102359
0.0103121
0.0105043
0.0104565
0.0118249
0.0136466
0.012182
0.0121694
0.0118899
0.0117121
0.0116593
0.0117352
0.0119268
0.011882
0.0132496
0.0112204
0.01034
0.0106524
0.0103812
0.0102517
0.0101906
0.0102018
0.0103676
0.00999554
0.0107511
0.0103864
0.0095093
0.00982741
0.00955479
0.00942579
0.00936507
0.0093763
0.00954393
0.00916674
0.00991965
0.010723
0.00985156
0.0101677
0.00989555
0.00976649
0.00970577
0.0097171
0.00988438
0.00950908
0.0102567
0.0104979
0.00962492
0.00994152
0.0096697
0.00954075
0.00948012
0.0094915
0.00965853
0.00928288
0.0100321
0.0104238
0.00955108
0.0098676
0.00959586
0.00946691
0.0094063
0.00941774
0.00958478
0.00920922
0.00995829
0.0104238
0.0095511
0.00986762
0.00959588
0.00946692
0.00940632
0.00941776
0.0095848
0.00920923
0.0099583
0.0104979
0.00962496
0.00994155
0.00966975
0.0095408
0.00948017
0.00949154
0.00965858
0.00928289
0.0100321
0.0107231
0.00985166
0.0101678
0.00989565
0.00976661
0.00970589
0.00971722
0.00988451
0.00950915
0.0102568
0.0103865
0.00950937
0.00982747
0.00955485
0.00942586
0.00936513
0.00937635
0.00954398
0.00916672
0.00991961
0.0112205
0.0103402
0.0106525
0.0103813
0.0102518
0.0101908
0.0102019
0.0103677
0.00999556
0.0107511
0.0100059
0.00934048
0.00967187
0.00937528
0.0093033
0.00922886
0.00915663
0.00931971
0.00891687
0.00941737
0.00939646
0.00873729
0.00907537
0.00877646
0.0087059
0.00863192
0.00855918
0.00872526
0.00831674
0.00881197
0.00975451
0.00910191
0.00943702
0.00913904
0.00906836
0.0089944
0.00892184
0.00908715
0.00868147
0.00917077
0.00951384
0.00885871
0.00919475
0.00889713
0.00882656
0.00875274
0.0086803
0.00884546
0.008439
0.00893097
0.00950798
0.00885396
0.00918985
0.0088923
0.0088217
0.00874791
0.00867557
0.00884078
0.0084345
0.00892557
0.00950798
0.00885397
0.00918985
0.0088923
0.0088217
0.00874792
0.00867557
0.00884078
0.00843449
0.00892555
0.00951384
0.00885871
0.00919474
0.00889712
0.00882654
0.00875272
0.00868026
0.00884543
0.00843891
0.00893089
0.00975454
0.00910196
0.00943706
0.00913909
0.0090684
0.00899444
0.00892186
0.00908717
0.00868141
0.00917073
0.00939644
0.00873728
0.00907534
0.00877644
0.00870586
0.00863187
0.00855908
0.00872516
0.00831654
0.00881177
0.0100059
0.00934055
0.0096719
0.00937532
0.00930331
0.00922884
0.00915655
0.00931961
0.00891664
0.00941709
0.0092083
0.00863557
0.0089069
0.00857895
0.00853711
0.00844364
0.00830489
0.00845964
0.00809602
0.00844559
0.00870261
0.00813848
0.00841652
0.0080855
0.00804612
0.00795333
0.00781349
0.00797237
0.00760367
0.00794639
0.00900494
0.00844734
0.00872147
0.00839187
0.00835219
0.00825944
0.00812
0.00827772
0.00791272
0.00824993
0.00874575
0.00818476
0.00846033
0.00813095
0.00809145
0.0079989
0.00785964
0.00801747
0.00765133
0.00799212
0.00878463
0.00822567
0.0085009
0.00817163
0.00813212
0.00803963
0.00790048
0.00805838
0.00769261
0.00803179
0.00878462
0.00822567
0.00850089
0.00817162
0.00813211
0.00803962
0.00790046
0.00805836
0.00769257
0.00803176
0.00874569
0.00818471
0.00846025
0.00813088
0.00809136
0.0079988
0.0078595
0.00801734
0.0076511
0.00799194
0.00900491
0.00844731
0.00872142
0.00839182
0.00835212
0.00825936
0.00811986
0.00827759
0.00791245
0.00824972
0.00870249
0.00813836
0.00841637
0.00808534
0.00804592
0.0079531
0.00781317
0.00797205
0.00760319
0.00794593
0.00920822
0.0086355
0.00890677
0.00857882
0.00853691
0.00844338
0.00830449
0.00845922
0.00809537
0.00844486
0.00835033
0.00786837
0.00810668
0.0077675
0.00773287
0.00761425
0.00741992
0.00753215
0.00716925
0.00733986
0.00794808
0.00747748
0.0077224
0.00737976
0.00734855
0.00723089
0.00703524
0.00715258
0.00678568
0.00694811
0.00822314
0.00775888
0.00799924
0.00765846
0.00762669
0.00750912
0.00731418
0.00743008
0.00706749
0.0072252
0.00796828
0.00750015
0.00774241
0.00740165
0.0073702
0.00725292
0.00705821
0.00717463
0.00681063
0.00697262
0.00803289
0.00756756
0.00780921
0.00746864
0.00743722
0.00732003
0.00712547
0.00724195
0.00687863
0.00703857
0.00803288
0.00756755
0.0078092
0.00746863
0.00743721
0.00732002
0.00712544
0.00724194
0.00687857
0.00703858
0.00796818
0.00750005
0.00774228
0.00740152
0.00737003
0.00725274
0.00705798
0.00717441
0.00681027
0.0069724
0.00822304
0.00775879
0.00799911
0.00765833
0.00762652
0.00750893
0.0073139
0.0074298
0.00706699
0.00722485
0.00794787
0.00747727
0.00772215
0.00737948
0.0073482
0.0072305
0.00703471
0.00715204
0.00678488
0.0069474
0.00835014
0.00786817
0.00810642
0.0077672
0.00773247
0.00761374
0.00741921
0.00753136
0.00716813
0.00733854
0.00745849
0.00705764
0.00727512
0.00693663
0.00689582
0.0067457
0.00649609
0.00653608
0.00614639
0.00609728
0.00715145
0.00676496
0.00698885
0.00664694
0.00661038
0.00646163
0.00621085
0.00625696
0.0058651
0.00580756
0.00741245
0.007032
0.00725094
0.0069113
0.00687394
0.00672534
0.00647565
0.00652015
0.00613299
0.00607202
0.00717631
0.0067919
0.00701317
0.00667334
0.0066365
0.00648831
0.00623891
0.00628447
0.00589581
0.00583966
0.0072569
0.00687591
0.00709628
0.0067568
0.00672002
0.00657198
0.0063228
0.00636843
0.00598079
0.0059225
0.00725689
0.0068759
0.00709626
0.00675678
0.00671999
0.00657196
0.00632276
0.00636843
0.00598071
0.00592259
0.00717616
0.00679175
0.00701298
0.00667315
0.00663626
0.00648805
0.00623857
0.00628418
0.00589534
0.00583946
0.00741229
0.00703185
0.00725074
0.00691108
0.00687366
0.00672502
0.00647517
0.00651974
0.00613224
0.00607144
0.00715117
0.00676466
0.0069885
0.00664655
0.0066099
0.00646106
0.00621008
0.00625622
0.00586397
0.00580649
0.0074582
0.00705733
0.00727472
0.00693618
0.0068952
0.00674493
0.00649498
0.00653487
0.00614465
0.00609496
0.00664087
0.00629327
0.00648014
0.00614103
0.00608337
0.00589614
0.00558925
0.0055365
0.00510625
0.00477616
0.00640194
0.00607134
0.00626417
0.00592193
0.00586929
0.00568395
0.00537657
0.00533138
0.00490257
0.0045668
0.00663955
0.00631442
0.00650204
0.00616241
0.00610874
0.00592365
0.00561773
0.00557096
0.00514695
0.00480953
0.00642242
0.00609352
0.00628382
0.00594384
0.00589094
0.00570644
0.00540091
0.00535587
0.00493069
0.00459948
0.00651103
0.00618597
0.00637513
0.00603567
0.00598285
0.00579857
0.00549338
0.00544847
0.00502447
0.00469134
0.00651101
0.00618595
0.0063751
0.00603564
0.00598281
0.00579852
0.00549331
0.00544845
0.00502441
0.00469156
0.00642223
0.00609331
0.00628358
0.00594358
0.00589061
0.00570605
0.00540039
0.00535548
0.00492998
0.00459925
0.00663934
0.0063142
0.00650176
0.0061621
0.00610832
0.00592314
0.00561695
0.00557029
0.00514561
0.00480835
0.0064016
0.00607097
0.00626372
0.00592143
0.00586864
0.00568316
0.00537544
0.00533031
0.00490077
0.00456467
0.00664049
0.00629285
0.0064796
0.0061404
0.0060825
0.00589501
0.00558756
0.00553463
0.00510341
0.00477194
0.00590964
0.00559273
0.00574258
0.00540042
0.00531853
0.00509121
0.0047264
0.00456021
0.00407372
0.00333712
0.0057159
0.00541815
0.00557328
0.00522848
0.00515221
0.00492745
0.00456347
0.00440737
0.00392907
0.00319668
0.00592323
0.0056301
0.0057799
0.00543793
0.00536043
0.00513601
0.00477379
0.00461614
0.00414184
0.00340804
0.00572276
0.00542624
0.00557898
0.00523654
0.00516008
0.00493646
0.00457486
0.00441997
0.00394616
0.00322392
0.00581246
0.00552003
0.00567138
0.00532964
0.00525326
0.00502994
0.00466882
0.00451409
0.00404124
0.00331572
0.00581243
0.00552
0.00567134
0.00532959
0.00525318
0.00502984
0.00466866
0.00451407
0.00404111
0.00331589
0.00572252
0.00542597
0.00557865
0.00523616
0.00515959
0.00493586
0.00457399
0.00441941
0.00394505
0.00322319
0.00592295
0.0056298
0.0057795
0.00543746
0.00535976
0.00513515
0.00477244
0.00461498
0.00413966
0.00340516
0.00571548
0.00541767
0.0055727
0.0052278
0.00515128
0.00492629
0.00456172
0.00440573
0.00392616
0.00319197
0.00590915
0.00559216
0.00574186
0.00539954
0.00531729
0.0050896
0.00472391
0.00455733
0.0040695
0.00332965
0.00523387
0.00493705
0.00505329
0.00471045
0.00460322
0.00433843
0.00392068
0.00362055
0.00303611
0.00164698
0.00507294
0.00479709
0.00491787
0.00457302
0.00447187
0.00421045
0.00379544
0.00350905
0.00294948
0.00158804
0.00525169
0.00497955
0.00509501
0.00475309
0.00465049
0.00438941
0.00397614
0.00368763
0.0031264
0.00175075
0.00506803
0.00479302
0.00491158
0.00456912
0.00446788
0.00420788
0.0037957
0.00351183
0.00295705
0.00161941
0.00515454
0.00488367
0.00500065
0.00465906
0.00455784
0.0042982
0.00388656
0.00360262
0.00304587
0.00169281
0.0051545
0.00488363
0.00500058
0.00465898
0.00455772
0.00429804
0.00388626
0.00360253
0.0030452
0.00169254
0.00506774
0.00479268
0.00491116
0.00456862
0.0044672
0.00420704
0.00379439
0.00351089
0.00295474
0.00161624
0.00525134
0.00497914
0.00509448
0.00475244
0.00464954
0.00438816
0.00397399
0.00368577
0.00312263
0.00174287
0.00507245
0.00479649
0.00491715
0.00457214
0.00447064
0.00420891
0.00379286
0.00350668
0.00294456
0.00157547
0.00523328
0.00493634
0.00505238
0.00470933
0.00460162
0.00433636
0.00391728
0.00361666
0.00303001
0.00163379
0.00459819
0.00431769
0.00440757
0.00406973
0.00394293
0.00365193
0.00320184
0.00277151
0.00217588
0.000166136
0.00446297
0.00420498
0.00429869
0.00395953
0.0038391
0.00355228
0.0031074
0.0026938
0.00214095
0.000224824
0.00461742
0.00436225
0.00445075
0.00411452
0.00399239
0.00370564
0.00326158
0.0028434
0.00227858
0.000297418
0.00445123
0.00419384
0.00428551
0.00394875
0.00382827
0.00354305
0.00310128
0.00269196
0.00214446
0.000267188
0.00453238
0.00427904
0.00436898
0.00403321
0.00391267
0.00362775
0.00318606
0.00277526
0.00222086
0.000289759
0.00453234
0.00427899
0.0043689
0.0040331
0.00391248
0.00362748
0.00318548
0.00277479
0.00221889
0.000286347
0.0044509
0.00419343
0.00428501
0.00394811
0.00382738
0.00354193
0.00309917
0.0026902
0.0021395
0.000256134
0.00461701
0.00436174
0.00445008
0.00411367
0.00399111
0.00370394
0.00325829
0.00284039
0.00227198
0.00027996
0.0044624
0.00420428
0.00429783
0.00395846
0.00383757
0.00355035
0.00310377
0.0026901
0.00213285
0.000199001
0.00459751
0.00431684
0.0044065
0.00406841
0.003941
0.00364956
0.00319779
0.00276645
0.00216948
0.000146559
0.00400429
0.00373893
0.00380936
0.00348354
0.00334887
0.00305379
0.0026299
0.00215861
0.00187034
0.00110175
0.00388889
0.00364732
0.0037209
0.00339446
0.00326625
0.00297569
0.00255904
0.00210387
0.00184794
0.00113579
0.00402206
0.00378244
0.00385098
0.00352732
0.00339705
0.00310594
0.00268827
0.00222479
0.00195498
0.00119913
0.00387274
0.00363161
0.00370333
0.00337919
0.00325091
0.00296193
0.00254785
0.00209746
0.00184126
0.00112001
0.0039473
0.00371001
0.0037799
0.00345684
0.00332834
0.00303945
0.00262466
0.00217113
0.00191142
0.0011628
0.00394725
0.00370995
0.00377981
0.0034567
0.00332809
0.00303914
0.00262371
0.00217033
0.0019088
0.00114575
0.00387237
0.00363114
0.00370277
0.00337847
0.00324987
0.00296078
0.00254503
0.00209497
0.00183741
0.00108584
0.00402161
0.00378185
0.00385023
0.00352634
0.00339554
0.00310429
0.00268416
0.00222065
0.0019539
0.00116572
0.00388828
0.00364655
0.00371998
0.00339329
0.00326454
0.00297393
0.00255475
0.00209932
0.0018473
0.00110255
0.00400355
0.003738
0.00380824
0.00348215
0.00334687
0.00305176
0.00262615
0.00215422
0.0018703
0.0010911
0.00345509
0.00320496
0.00326181
0.002955
0.00282618
0.00254606
0.0021993
0.00174417
0.00144136
0.000918453
0.00335416
0.00312885
0.00318817
0.00288137
0.00275889
0.00248294
0.00214389
0.00170211
0.00141985
0.000930503
0.00346794
0.00324371
0.00329819
0.00299392
0.00286897
0.00259171
0.00225009
0.00179828
0.00150229
0.00098286
0.00333393
0.00310894
0.00316654
0.00286192
0.00273931
0.00246478
0.00212723
0.00168945
0.00141074
0.000910089
0.00340116
0.00317972
0.00323544
0.00293193
0.00280887
0.00253431
0.00219562
0.00175366
0.0014743
0.000954381
0.00340112
0.00317966
0.00323535
0.00293179
0.0028086
0.00253416
0.00219463
0.00175243
0.00147819
0.000953333
0.00333356
0.00310845
0.00316598
0.00286123
0.00273826
0.00246424
0.00212491
0.00168623
0.00142193
0.000912075
0.00346747
0.0032431
0.00329745
0.00299298
0.00286746
0.00259098
0.00224732
0.00179344
0.00151926
0.000993635
0.00335355
0.00312807
0.00318728
0.00288028
0.00275724
0.00248212
0.00214099
0.00169656
0.00143611
0.000940722
0.00345434
0.00320401
0.00326073
0.00295377
0.0028244
0.00254497
0.00219747
0.00174099
0.00145062
0.00092192
0.00294848
0.00271412
0.00276196
0.0024787
0.00236496
0.00210036
0.00182056
0.00139581
0.00100411
0.000497592
0.00285732
0.00264856
0.00269818
0.00241545
0.00230789
0.00204684
0.00177469
0.00136232
0.00099101
0.000536294
0.00295344
0.0027449
0.00278988
0.00250939
0.00239902
0.00213626
0.00186074
0.00143885
0.00105619
0.000580804
0.00283308
0.00262451
0.00267252
0.00239187
0.00228412
0.00202468
0.00175369
0.00134545
0.000985658
0.000535693
0.00289273
0.00268737
0.00273347
0.00245393
0.00234551
0.00208593
0.00181385
0.00140016
0.00103884
0.000569303
0.00289269
0.00268732
0.00273339
0.00245383
0.00234521
0.00208596
0.00181387
0.0013988
0.00104408
0.000578827
0.00283272
0.00262404
0.00267201
0.00239133
0.00228307
0.00202474
0.0017543
0.00134175
0.000996983
0.00055764
0.00295298
0.0027443
0.00278921
0.00250868
0.00239753
0.00213636
0.00186243
0.00143335
0.00106928
0.000609458
0.00285674
0.00264781
0.00269738
0.00241463
0.00230624
0.00204681
0.00177608
0.00135567
0.00100439
0.000563833
0.00294777
0.00271322
0.00276101
0.00247777
0.00236338
0.00210007
0.00182165
0.0013924
0.00101358
0.000501724
0.0024821
0.00226239
0.00230391
0.0020456
0.00195197
0.00170219
0.0014721
0.00110743
0.000744062
0.000351319
0.00239546
0.00220174
0.00224433
0.00198702
0.00189944
0.00165285
0.00143082
0.00107898
0.000735467
0.000418326
0.0024753
0.00228097
0.00231915
0.00206375
0.00197318
0.00172484
0.00149935
0.00113877
0.000785656
0.00046064
0.00236705
0.00217337
0.00221444
0.00195911
0.00187138
0.0016268
0.0014066
0.00105856
0.00072952
0.000434491
0.00241927
0.00222843
0.00226759
0.00201334
0.00192469
0.00167967
0.00145851
0.00110364
0.000770479
0.000458615
0.00241924
0.00222838
0.00226751
0.0020133
0.00192434
0.0016795
0.00145926
0.00110207
0.000770285
0.000463242
0.0023667
0.00217293
0.00221396
0.00195877
0.0018703
0.00162622
0.0014089
0.00105393
0.000724983
0.000440509
0.00247486
0.00228039
0.00231851
0.00206334
0.00197171
0.00172395
0.00150337
0.00113232
0.000775314
0.000463327
0.00239491
0.00220104
0.00224358
0.00198648
0.00189777
0.00165178
0.00143469
0.00107161
0.000728256
0.000426277
0.00248144
0.00226157
0.00230303
0.00204495
0.0019505
0.00170126
0.00147467
0.00110279
0.000746797
0.000356704
0.00204834
0.0018415
0.00187936
0.00164686
0.00157807
0.00135152
0.00117036
0.000880298
0.000589945
0.000334611
0.00196122
0.00178017
0.00181836
0.00158724
0.0015244
0.00130087
0.00112833
0.000851647
0.000574521
0.000407347
0.00202666
0.00184413
0.00187814
0.00164863
0.00158266
0.00135743
0.00118149
0.000896461
0.000608383
0.000443938
0.00192937
0.00174817
0.00178488
0.00155565
0.00149264
0.00127133
0.00110133
0.000827492
0.000560858
0.000426875
0.00197467
0.00179589
0.00183069
0.00160247
0.00153832
0.00131602
0.00114492
0.000863872
0.000591613
0.000445953
0.00197464
0.00179584
0.00183057
0.00160242
0.00153798
0.00131523
0.00114515
0.000862382
0.00058784
0.000443783
0.00192904
0.00174775
0.00178433
0.00155535
0.0014916
0.00126886
0.00110167
0.000822948
0.000547215
0.000415223
0.00202625
0.00184359
0.00187739
0.00164828
0.0015813
0.00135376
0.00118257
0.000890439
0.000585157
0.000421155
0.0019607
0.00177951
0.00181748
0.00158677
0.0015228
0.00129699
0.00112995
0.000844795
0.000554
0.00039462
0.00204774
0.00184076
0.00187844
0.0016463
0.00157667
0.00134879
0.00117204
0.000875337
0.000588072
0.000344039
0.00166729
0.00145531
0.00149234
0.00128822
0.00124836
0.00105443
0.000923197
0.000700579
0.00046125
0.000311388
0.00156187
0.00137237
0.00140927
0.00120692
0.00117286
0.000981715
0.000859268
0.000651164
0.000416465
0.000359276
0.00161439
0.00142279
0.0014557
0.00125461
0.00121724
0.00102424
0.000898194
0.000682375
0.000433826
0.000383064
0.00152735
0.00133772
0.00137306
0.00117242
0.00113804
0.000948764
0.000828925
0.000623227
0.000391968
0.000368858
0.00156631
0.0013787
0.00141211
0.00121233
0.00117669
0.000985927
0.000864789
0.000652468
0.000415226
0.000384176
0.00156628
0.00137865
0.00141193
0.00121221
0.00117645
0.000984799
0.000864242
0.000651664
0.000412396
0.000379531
0.00152703
0.00133733
0.00137238
0.0011719
0.00113724
0.000945202
0.000826679
0.000620512
0.000382149
0.000352144
0.00161399
0.00142229
0.00145477
0.00125394
0.00121625
0.00101886
0.000895029
0.000678814
0.000416074
0.000353275
0.00156137
0.00137176
0.0014082
0.00120614
0.00117164
0.000975914
0.000856844
0.000646601
0.000396969
0.00033666
0.00166675
0.00145468
0.00149133
0.00128752
0.00124736
0.00105048
0.00092337
0.000697244
0.000456976
0.000317973
0.00126301
0.00106073
0.0011059
0.000932642
0.000923219
0.000765382
0.000680697
0.000519274
0.000313037
0.000225577
0.00114925
0.000965778
0.0010101
0.000839027
0.00083497
0.00067938
0.000602729
0.000457189
0.000248689
0.000257516
0.00119651
0.00101016
0.00105096
0.000880733
0.000873177
0.000715473
0.000634703
0.000482631
0.000257809
0.000269948
0.00112043
0.000936773
0.000979643
0.000809972
0.000805389
0.000651045
0.000576398
0.000433637
0.000221819
0.000256455
0.00115386
0.000971676
0.00101262
0.000843635
0.000837742
0.000681706
0.000605622
0.000456835
0.000238709
0.000268699
0.00115384
0.000971636
0.00101243
0.000843432
0.000837692
0.00068093
0.000604931
0.000456357
0.000237602
0.000265537
0.00112014
0.000936455
0.000978969
0.000809223
0.000805107
0.000648405
0.00057352
0.00043199
0.000218052
0.000245807
0.00119617
0.00100977
0.00105004
0.000879706
0.000872946
0.000711227
0.000629972
0.000480733
0.00024975
0.00025042
0.00114881
0.00096528
0.00100901
0.00083787
0.000834554
0.000674231
0.000598193
0.000454299
0.000234931
0.000239554
0.00126254
0.00106024
0.00110492
0.000931749
0.000923001
0.00076179
0.000680154
0.0005171
0.000306885
0.00022524
0.00110635
0.00075151
0.000829821
0.000703608
0.000720905
0.000608789
0.000567825
0.000468253
0.000309692
0.000203673
0.000849708
0.000470197
0.000558477
0.000434633
0.000457478
0.000347645
0.000314
0.00023441
7.20703e-05
0.000105198
0.000909921
0.000537559
0.000620009
0.000496265
0.000515348
0.000403239
0.000364835
0.000279541
0.000101158
0.000126735
0.000850008
0.000480499
0.000564284
0.000441122
0.000462849
0.000353389
0.000320205
0.000242837
7.43152e-05
0.000124268
0.000876358
0.000508341
0.000590184
0.000467494
0.000487983
0.000376921
0.000342375
0.000259947
8.50239e-05
0.000133854
0.000876333
0.000508337
0.000590081
0.000467316
0.000488124
0.000376761
0.000342126
0.000259518
8.45528e-05
0.000136894
0.000849793
0.000480339
0.000563885
0.00044046
0.000463113
0.000352599
0.000318667
0.000241592
7.33469e-05
0.000131837
0.000909651
0.000537383
0.000619458
0.000495285
0.000515859
0.00040171
0.000361682
0.000278492
9.92268e-05
0.000134836
0.000849303
0.000469861
0.000557674
0.000433386
0.000457759
0.000344852
0.000310045
0.000232709
6.42532e-05
0.000113708
0.00110605
0.000751376
0.000829292
0.000702903
0.000721596
0.000606941
0.000567769
0.000467495
0.000304842
0.000211027
-0.000128166
4.57034e-05
9.19348e-05
-9.87964e-06
1.56114e-05
-4.56609e-05
-5.429e-05
-8.87996e-05
-0.000156125
2.47186e-05
2.8448e-05
0.00026027
0.000297007
0.000191591
0.000218499
0.000157012
0.000149328
0.00012466
3.49841e-05
0.000189925
6.46238e-05
0.000286699
0.000323697
0.000219284
0.000243913
0.000181247
0.000170102
0.000142571
4.11414e-05
0.000195428
1.19649e-05
0.000231637
0.000270434
0.000166762
0.000193525
0.000132667
0.000125234
0.000104055
7.98662e-06
0.000183218
2.83717e-05
0.000247534
0.000285251
0.000181972
0.000207816
0.000145814
0.000137455
0.000113527
1.20923e-05
0.000191806
2.83959e-05
0.000247531
0.000285238
0.000181884
0.000207949
0.000145926
0.000137602
0.000113537
1.0931e-05
0.000195463
1.19359e-05
0.000231548
0.000270336
0.000166397
0.000193794
0.000132858
0.000125155
0.000104063
5.50179e-06
0.000194459
6.4687e-05
0.000286675
0.000323659
0.000218802
0.000244537
0.000181644
0.000169472
0.000143339
3.91516e-05
0.000213529
2.84946e-05
0.000260217
0.000296886
0.000190971
0.000219159
0.00015673
0.000147893
0.000126001
3.04761e-05
0.000211504
-0.000128302
4.53514e-05
9.14879e-05
-1.07076e-05
1.59398e-05
-4.67683e-05
-5.47537e-05
-8.83615e-05
-0.000161892
3.95368e-05
-0.00105882
-0.000133121
-0.000101814
-3.35988e-05
-1.39894e-05
-3.12548e-06
6.71551e-07
1.84076e-06
1.97847e-06
1.86937e-06
-0.000955459
-3.90113e-05
-7.91702e-05
-1.89834e-05
-7.2619e-06
6.73054e-07
2.54576e-06
2.72391e-06
2.41947e-06
2.24056e-06
-0.000917309
3.7698e-05
-4.8327e-05
1.66448e-06
4.7262e-06
7.65085e-06
6.21874e-06
4.53759e-06
3.39806e-06
3.01068e-06
-0.000816384
7.28808e-05
-2.17776e-05
1.82715e-05
1.59834e-05
1.45687e-05
1.01162e-05
6.52261e-06
4.48632e-06
3.84531e-06
-0.000807578
8.83767e-05
-8.03899e-06
2.54912e-05
2.12555e-05
1.79309e-05
1.21143e-05
7.55068e-06
5.03893e-06
4.2575e-06
-0.000796138
9.54954e-05
-6.40046e-06
2.43661e-05
1.97454e-05
1.67775e-05
1.13707e-05
7.10877e-06
4.7435e-06
4.00187e-06
-0.000788606
9.79805e-05
-1.74838e-05
1.5256e-05
1.19835e-05
1.15807e-05
8.20776e-06
5.36419e-06
3.68867e-06
3.14632e-06
-0.000887785
8.09889e-05
-4.2693e-05
-1.51013e-06
1.4839e-07
4.21113e-06
3.95658e-06
3.07196e-06
2.32446e-06
2.04469e-06
-0.000947312
1.53866e-06
-7.44663e-05
-2.02e-05
-1.04734e-05
-2.04628e-06
5.44096e-07
1.28374e-06
1.28276e-06
1.1869e-06
-0.00106355
-0.000121171
-9.8798e-05
-3.38254e-05
-1.60537e-05
-5.20863e-06
-1.04056e-06
5.1157e-07
8.74541e-07
8.23479e-07
-0.00033192
-0.000159094
-8.43151e-05
-3.61583e-05
-1.51705e-05
-4.30696e-06
-7.20327e-08
1.40541e-06
1.65075e-06
1.47944e-06
-0.000296927
-0.000121169
-7.46936e-05
-2.67177e-05
-1.04495e-05
-1.59358e-06
1.17674e-06
1.91712e-06
1.88864e-06
1.75939e-06
-0.000289173
-9.12966e-05
-5.7922e-05
-1.17041e-05
-1.36893e-06
3.83098e-06
3.99247e-06
3.26667e-06
2.58541e-06
2.37438e-06
-0.000253959
-6.9561e-05
-4.10174e-05
1.68712e-06
7.7679e-06
9.55021e-06
7.12215e-06
4.83827e-06
3.45612e-06
3.05939e-06
-0.000245442
-6.3062e-05
-3.36941e-05
7.76938e-06
1.21348e-05
1.23842e-05
8.71382e-06
5.60006e-06
3.90635e-06
3.38906e-06
-0.000245661
-6.13369e-05
-3.57631e-05
6.59403e-06
1.07928e-05
1.13674e-05
8.06091e-06
5.15794e-06
3.63606e-06
3.15135e-06
-0.00025517
-6.40062e-05
-4.76545e-05
-1.62505e-06
4.2098e-06
6.92855e-06
5.41062e-06
3.66784e-06
2.75313e-06
2.40434e-06
-0.000292474
-8.10998e-05
-6.79483e-05
-1.55661e-05
-5.54459e-06
7.28566e-07
1.82302e-06
1.79458e-06
1.70491e-06
1.46003e-06
-0.000300871
-0.000110682
-8.20363e-05
-2.9079e-05
-1.37925e-05
-4.32412e-06
-8.34148e-07
5.82595e-07
9.61079e-07
7.55343e-07
-0.000327927
-0.000157587
-8.39424e-05
-3.69778e-05
-1.71737e-05
-6.20207e-06
-1.59292e-06
2.29376e-07
6.49047e-07
4.96919e-07
-0.000190092
-9.19053e-05
-7.39792e-05
-3.67988e-05
-1.83418e-05
-7.14385e-06
-2.06466e-06
9.33988e-08
6.84596e-07
5.90958e-07
-0.000203688
-7.09225e-05
-6.77954e-05
-2.94585e-05
-1.4307e-05
-4.69826e-06
-8.78754e-07
6.19263e-07
9.1162e-07
7.94277e-07
-0.000213096
-5.90462e-05
-5.81673e-05
-1.92294e-05
-7.74177e-06
-5.61353e-07
1.29922e-06
1.67495e-06
1.46366e-06
1.25121e-06
-0.000201656
-4.73749e-05
-4.70133e-05
-9.87882e-06
-1.08465e-06
3.81157e-06
3.74819e-06
2.89204e-06
2.13461e-06
1.76304e-06
-0.000192585
-4.13451e-05
-4.18345e-05
-5.59706e-06
2.03915e-06
5.9349e-06
4.96074e-06
3.47536e-06
2.45111e-06
1.9909e-06
-0.000193063
-3.97522e-05
-4.28649e-05
-6.5409e-06
1.03518e-06
5.11422e-06
4.42664e-06
3.11072e-06
2.2026e-06
1.77518e-06
-0.000203934
-4.29516e-05
-5.02933e-05
-1.26428e-05
-3.74535e-06
1.74031e-06
2.3946e-06
1.90253e-06
1.46008e-06
1.16784e-06
-0.000218652
-5.18306e-05
-6.22406e-05
-2.26121e-05
-1.07721e-05
-2.98037e-06
-4.30924e-07
3.38008e-07
5.68903e-07
4.14164e-07
-0.000204561
-5.77716e-05
-6.89919e-05
-3.16737e-05
-1.66913e-05
-6.84472e-06
-2.5377e-06
-6.31432e-07
7.79876e-09
-1.27031e-07
-0.000177422
-8.15013e-05
-7.18771e-05
-3.75003e-05
-1.98146e-05
-8.72553e-06
-3.39673e-06
-9.65542e-07
-2.22806e-07
-3.11556e-07
-0.000278205
-7.30908e-05
-7.04204e-05
-3.6492e-05
-2.03509e-05
-9.38645e-06
-3.90891e-06
-1.29931e-06
-4.55229e-07
-4.7672e-07
-0.00030552
-5.99558e-05
-6.51164e-05
-3.01404e-05
-1.65389e-05
-6.87273e-06
-2.53762e-06
-5.87259e-07
-1.27249e-07
-2.82182e-07
-0.00032293
-5.51776e-05
-6.02994e-05
-2.36187e-05
-1.21687e-05
-3.7837e-06
-7.40659e-07
3.90735e-07
4.01211e-07
9.97114e-08
-0.000313245
-4.91595e-05
-5.37183e-05
-1.76599e-05
-7.87634e-06
-7.78765e-07
1.04214e-06
1.35817e-06
9.57703e-07
4.97199e-07
-0.000310871
-4.50286e-05
-5.06458e-05
-1.47987e-05
-5.90238e-06
6.11473e-07
1.843e-06
1.75578e-06
1.19698e-06
6.54104e-07
-0.000309456
-4.417e-05
-5.11735e-05
-1.53151e-05
-6.55035e-06
3.52463e-08
1.40822e-06
1.42616e-06
9.87288e-07
4.6154e-07
-0.000312805
-4.69716e-05
-5.51913e-05
-1.92233e-05
-9.61039e-06
-2.27861e-06
-6.75727e-08
4.69167e-07
3.66712e-07
-3.6235e-08
-0.000329287
-5.13537e-05
-6.14019e-05
-2.56044e-05
-1.41861e-05
-5.63153e-06
-2.17431e-06
-8.08291e-07
-4.54798e-07
-6.58019e-07
-0.000311114
-4.94397e-05
-6.4204e-05
-3.13816e-05
-1.81173e-05
-8.50856e-06
-3.88862e-06
-1.68687e-06
-1.01544e-06
-1.1212e-06
-0.000273658
-6.3092e-05
-6.80548e-05
-3.6546e-05
-2.13171e-05
-1.06613e-05
-5.08975e-06
-2.28439e-06
-1.30193e-06
-1.30476e-06
-0.000301268
-7.05229e-05
-6.73358e-05
-3.57819e-05
-2.14014e-05
-1.09663e-05
-5.40531e-06
-2.54754e-06
-1.53947e-06
-1.50489e-06
-0.000322028
-5.99009e-05
-6.22476e-05
-3.00046e-05
-1.78933e-05
-8.48812e-06
-3.91751e-06
-1.68376e-06
-1.1135e-06
-1.29807e-06
-0.000336619
-5.62335e-05
-5.97992e-05
-2.54918e-05
-1.49459e-05
-6.22413e-06
-2.47823e-06
-7.94435e-07
-6.05428e-07
-9.66661e-07
-0.00032521
-5.18939e-05
-5.6028e-05
-2.16088e-05
-1.22045e-05
-4.20856e-06
-1.22928e-06
-5.17642e-08
-1.60283e-07
-6.60343e-07
-0.000327086
-4.80958e-05
-5.42646e-05
-1.9587e-05
-1.09362e-05
-3.29943e-06
-7.16291e-07
2.15989e-07
9.35331e-09
-5.57174e-07
-0.000326227
-4.61927e-05
-5.44462e-05
-1.96595e-05
-1.12957e-05
-3.66359e-06
-1.03969e-06
-6.41347e-08
-1.56686e-07
-7.23027e-07
-0.000328048
-4.72802e-05
-5.62815e-05
-2.18797e-05
-1.31362e-05
-5.17654e-06
-2.07409e-06
-8.13709e-07
-6.45138e-07
-1.12331e-06
-0.000350718
-4.99575e-05
-5.89341e-05
-2.57163e-05
-1.59717e-05
-7.48129e-06
-3.60669e-06
-1.81672e-06
-1.33531e-06
-1.63354e-06
-0.000336081
-4.79621e-05
-5.9837e-05
-2.96815e-05
-1.86381e-05
-9.65819e-06
-5.03346e-06
-2.64074e-06
-1.90819e-06
-2.04829e-06
-0.000300313
-5.99646e-05
-6.49861e-05
-3.52207e-05
-2.1926e-05
-1.19342e-05
-6.41906e-06
-3.44647e-06
-2.32173e-06
-2.25627e-06
-0.000265397
-6.16491e-05
-6.21675e-05
-3.36919e-05
-2.1383e-05
-1.18475e-05
-6.50909e-06
-3.5895e-06
-2.48198e-06
-2.39285e-06
-0.000278634
-5.11413e-05
-5.74338e-05
-2.86586e-05
-1.83115e-05
-9.56639e-06
-5.03266e-06
-2.65276e-06
-1.99644e-06
-2.19001e-06
-0.000287824
-4.6064e-05
-5.59553e-05
-2.52033e-05
-1.60855e-05
-7.78384e-06
-3.84097e-06
-1.85922e-06
-1.52763e-06
-1.91434e-06
-0.000276465
-4.19305e-05
-5.38458e-05
-2.2659e-05
-1.42973e-05
-6.39525e-06
-2.93055e-06
-1.27852e-06
-1.18317e-06
-1.68925e-06
-0.000279505
-3.82221e-05
-5.29844e-05
-2.12711e-05
-1.34737e-05
-5.78644e-06
-2.58295e-06
-1.08092e-06
-1.07672e-06
-1.62913e-06
-0.000282373
-3.59699e-05
-5.32323e-05
-2.12397e-05
-1.36757e-05
-6.02991e-06
-2.8296e-06
-1.30043e-06
-1.21793e-06
-1.7687e-06
-0.000290066
-3.65569e-05
-5.41532e-05
-2.26056e-05
-1.47951e-05
-7.04711e-06
-3.58845e-06
-1.88208e-06
-1.59489e-06
-2.08188e-06
-0.000317742
-3.87781e-05
-5.48696e-05
-2.48529e-05
-1.65411e-05
-8.63756e-06
-4.73893e-06
-2.69078e-06
-2.14705e-06
-2.48782e-06
-0.000305278
-3.81497e-05
-5.47204e-05