/*--------------------------------*- C++ -*----------------------------------*\
  =========                 |
  \\      /  F ield         | OpenFOAM: The Open Source CFD Toolbox
   \\    /   O peration     | Website:  https://openfoam.org
    \\  /    A nd           | Version:  7
     \\/     M anipulation  |
\*---------------------------------------------------------------------------*/
FoamFile
{
    version     2.0;
    format      ascii;
    class       surfaceScalarField;
    location    "359";
    object      phi;
}
// * * * * * * * * * * * * * * * * * * * * * * * * * * * * * * * * * * * * * //

dimensions      [0 3 -1 0 0 0 0];

internalField   nonuniform List<scalar> 
8300
(
1.58991e-07
1.5694e-07
9.96841e-05
1.85489e-08
1.57045e-07
9.99834e-05
1.35853e-08
1.57084e-07
9.98479e-05
8.65637e-09
1.5707e-07
9.98479e-05
2.48112e-09
1.57069e-07
9.98491e-05
-3.91701e-09
1.57062e-07
9.98493e-05
-9.59466e-09
1.57048e-07
9.98486e-05
-1.58394e-08
1.57047e-07
9.98492e-05
-1.53974e-07
1.56998e-07
9.99811e-05
1.56875e-07
9.96892e-05
1.59098e-07
1.73582e-08
9.99805e-05
1.8484e-08
1.72947e-08
0.00010028
1.3586e-08
1.72823e-08
0.000100145
8.65308e-09
1.72762e-08
0.000100145
2.47442e-09
1.72709e-08
0.000100146
-3.92554e-09
1.72694e-08
0.000100146
-9.60456e-09
1.72716e-08
0.000100145
-1.57828e-08
1.72752e-08
0.000100146
-1.54094e-07
1.72853e-08
0.000100278
1.73446e-08
9.99854e-05
1.59139e-07
1.17538e-08
9.98465e-05
1.84715e-08
1.17571e-08
0.000100146
1.3575e-08
1.17466e-08
0.00010001
8.65237e-09
1.17389e-08
0.00010001
2.47323e-09
1.17335e-08
0.000100012
-3.92769e-09
1.17316e-08
0.000100012
-9.59691e-09
1.17335e-08
0.000100011
-1.57729e-08
1.17385e-08
0.000100012
-1.54138e-07
1.17469e-08
0.000100144
1.17409e-08
9.98515e-05
1.59131e-07
6.38784e-09
9.98462e-05
1.84658e-08
6.38859e-09
0.000100146
1.35673e-08
6.38885e-09
0.00010001
8.64848e-09
6.38558e-09
0.00010001
2.47157e-09
6.38311e-09
0.000100012
-3.92698e-09
6.38201e-09
0.000100012
-9.59191e-09
6.38235e-09
0.000100011
-1.5769e-08
6.38383e-09
0.000100012
-1.54133e-07
6.3824e-09
0.000100144
6.37989e-09
9.98512e-05
1.59136e-07
-1.33798e-12
9.98473e-05
1.84614e-08
-1.52902e-12
0.000100147
1.35626e-08
-1.59827e-12
0.000100011
8.64605e-09
-1.71245e-12
0.000100011
2.47048e-09
-1.83529e-12
0.000100013
-3.92663e-09
-1.94443e-12
0.000100013
-9.58895e-09
-2.02431e-12
0.000100012
-1.57656e-08
-2.02624e-12
0.000100013
-1.54141e-07
-1.81447e-12
0.000100145
-1.56774e-12
9.98522e-05
1.59136e-07
-6.39049e-09
9.98473e-05
1.84614e-08
-6.39161e-09
0.000100147
1.35625e-08
-6.39201e-09
0.000100011
8.64593e-09
-6.38896e-09
0.000100011
2.47036e-09
-6.38673e-09
0.000100013
-3.92672e-09
-6.38583e-09
0.000100013
-9.58897e-09
-6.38633e-09
0.000100012
-1.57655e-08
-6.3878e-09
0.000100013
-1.5414e-07
-6.38597e-09
0.000100145
-6.38296e-09
9.98522e-05
1.5913e-07
-1.17561e-08
9.98462e-05
1.84656e-08
-1.17597e-08
0.000100146
1.35669e-08
-1.17494e-08
0.00010001
8.64811e-09
-1.17418e-08
0.00010001
2.47124e-09
-1.17366e-08
0.000100012
-3.92723e-09
-1.17348e-08
0.000100012
-9.59193e-09
-1.17368e-08
0.000100011
-1.57685e-08
-1.17418e-08
0.000100012
-1.54132e-07
-1.17498e-08
0.000100144
-1.17433e-08
9.98512e-05
1.59138e-07
-1.73594e-08
9.98465e-05
1.84713e-08
-1.7296e-08
0.000100146
1.35745e-08
-1.72837e-08
0.00010001
8.65182e-09
-1.72775e-08
0.00010001
2.47275e-09
-1.72723e-08
0.000100012
-3.92804e-09
-1.72707e-08
0.000100012
-9.59688e-09
-1.72729e-08
0.000100011
-1.57721e-08
-1.72763e-08
0.000100012
-1.54136e-07
-1.7286e-08
0.000100144
-1.73448e-08
9.98515e-05
1.59097e-07
-1.56942e-07
9.99805e-05
1.84837e-08
-1.57048e-07
0.00010028
1.35855e-08
-1.57086e-07
0.000100145
8.65254e-09
-1.57073e-07
0.000100145
2.47402e-09
-1.57072e-07
0.000100146
-3.92575e-09
-1.57065e-07
0.000100146
-9.60427e-09
-1.5705e-07
0.000100145
-1.57816e-08
-1.57048e-07
0.000100146
-1.54091e-07
-1.56999e-07
0.000100278
-1.56876e-07
9.99854e-05
1.5899e-07
9.96841e-05
1.85487e-08
9.99834e-05
1.35847e-08
9.98479e-05
8.65584e-09
9.98479e-05
2.4808e-09
9.98491e-05
-3.91703e-09
9.98493e-05
-9.59406e-09
9.98486e-05
-1.5838e-08
9.98492e-05
-1.53971e-07
9.99811e-05
9.96892e-05
2.29389e-07
2.24637e-07
9.923e-05
7.53685e-08
2.24875e-07
9.99125e-05
4.99468e-08
2.24674e-07
9.96486e-05
2.62281e-08
2.24727e-07
9.96468e-05
7.4382e-09
2.24733e-07
9.96432e-05
-1.1982e-08
2.24716e-07
9.9644e-05
-3.75892e-08
2.24675e-07
9.96496e-05
-6.61679e-08
2.24589e-07
9.96532e-05
-2.17677e-07
2.24755e-07
9.99079e-05
2.24483e-07
9.9247e-05
2.29626e-07
7.13544e-08
9.99041e-05
7.54399e-08
7.14287e-08
0.000100588
4.99844e-08
7.13892e-08
0.000100323
2.62217e-08
7.13524e-08
0.000100322
7.41994e-09
7.13392e-08
0.000100318
-1.20092e-08
7.13325e-08
0.000100319
-3.76541e-08
7.13333e-08
0.000100324
-6.6262e-08
7.13593e-08
0.000100328
-2.17952e-07
7.13899e-08
0.000100583
7.13025e-08
9.99207e-05
2.29434e-07
4.43015e-08
9.96441e-05
7.54013e-08
4.43458e-08
0.000100327
4.99872e-08
4.43491e-08
0.000100063
2.62269e-08
4.43234e-08
0.000100061
7.41866e-09
4.43111e-08
0.000100058
-1.2019e-08
4.43055e-08
0.000100058
-3.7664e-08
4.43071e-08
0.000100064
-6.623e-08
4.43232e-08
0.000100067
-2.1777e-07
4.43131e-08
0.000100323
4.426e-08
9.96607e-05
2.29498e-07
1.94174e-08
9.96416e-05
7.53664e-08
1.94225e-08
0.000100325
4.9962e-08
1.94294e-08
0.000100061
2.62146e-08
1.94191e-08
0.000100059
7.41312e-09
1.94135e-08
0.000100055
-1.20166e-08
1.94108e-08
0.000100056
-3.76472e-08
1.94109e-08
0.000100062
-6.62019e-08
1.94162e-08
0.000100065
-2.1784e-07
1.94061e-08
0.00010032
1.93961e-08
9.96583e-05
2.29519e-07
-7.34725e-14
9.96372e-05
7.53567e-08
-1.65765e-13
0.000100321
4.99522e-08
-1.132e-13
0.000100056
2.62089e-08
-6.21338e-14
0.000100054
7.41023e-09
5.93532e-14
0.000100051
-1.20166e-08
2.67076e-13
0.000100052
-3.76426e-08
5.31613e-13
0.000100057
-6.6196e-08
8.81955e-13
0.000100061
-2.17865e-07
1.42048e-12
0.000100316
3.12306e-12
9.96538e-05
2.29519e-07
-1.94176e-08
9.96372e-05
7.53567e-08
-1.94229e-08
0.000100321
4.99523e-08
-1.94297e-08
0.000100056
2.62091e-08
-1.94193e-08
0.000100054
7.41044e-09
-1.94134e-08
0.000100051
-1.20163e-08
-1.94103e-08
0.000100052
-3.76422e-08
-1.94098e-08
0.000100057
-6.61955e-08
-1.94144e-08
0.000100061
-2.17863e-07
-1.94033e-08
0.000100316
-1.93902e-08
9.96538e-05
2.29498e-07
-4.43021e-08
9.96416e-05
7.53664e-08
-4.43465e-08
0.000100325
4.99621e-08
-4.43497e-08
0.000100061
2.62149e-08
-4.43239e-08
0.000100059
7.41374e-09
-4.43113e-08
0.000100055
-1.20158e-08
-4.43053e-08
0.000100056
-3.76462e-08
-4.43064e-08
0.000100062
-6.62003e-08
-4.43218e-08
0.000100065
-2.17836e-07
-4.43109e-08
0.00010032
-4.4255e-08
9.96583e-05
2.29434e-07
-7.13546e-08
9.96441e-05
7.54014e-08
-7.14288e-08
0.000100327
4.99874e-08
-7.13892e-08
0.000100063
2.62275e-08
-7.13522e-08
0.000100061
7.41967e-09
-7.13386e-08
0.000100058
-1.20176e-08
-7.13314e-08
0.000100058
-3.76622e-08
-7.13316e-08
0.000100064
-6.62275e-08
-7.13569e-08
0.000100067
-2.17763e-07
-7.13867e-08
0.000100323
-7.12973e-08
9.96608e-05
2.29626e-07
-2.24638e-07
9.99041e-05
7.54402e-08
-2.24876e-07
0.000100588
4.99849e-08
-2.24674e-07
0.000100323
2.62227e-08
-2.24726e-07
0.000100322
7.42148e-09
-2.24731e-07
0.000100318
-1.20071e-08
-2.24713e-07
0.000100319
-3.76516e-08
-2.2467e-07
0.000100324
-6.62587e-08
-2.24582e-07
0.000100328
-2.17943e-07
-2.24748e-07
0.000100583
-2.24474e-07
9.99207e-05
2.29389e-07
9.923e-05
7.53693e-08
9.99125e-05
4.99481e-08
9.96486e-05
2.62302e-08
9.96469e-05
7.44112e-09
9.96432e-05
-1.19784e-08
9.96441e-05
-3.75852e-08
9.96496e-05
-6.61633e-08
9.96532e-05
-2.17666e-07
9.99079e-05
9.9247e-05
2.61796e-07
2.53956e-07
9.87143e-05
9.98364e-08
2.5445e-07
9.982e-05
7.07506e-08
2.53739e-07
9.9424e-05
3.97267e-08
2.53911e-07
9.9424e-05
1.30171e-08
2.53881e-07
9.9416e-05
-1.47776e-08
2.53847e-07
9.9418e-05
-4.90228e-08
2.53807e-07
9.943e-05
-8.34662e-08
2.53575e-07
9.94341e-05
-2.41924e-07
2.54203e-07
9.98122e-05
2.53663e-07
9.87514e-05
2.62273e-07
9.28114e-08
9.9803e-05
1.00183e-07
9.31653e-08
0.000100911
7.08478e-08
9.30205e-08
0.000100513
3.97456e-08
9.29493e-08
0.000100514
1.29809e-08
9.2936e-08
0.000100506
-1.48649e-08
9.29226e-08
0.000100508
-4.91788e-08
9.29114e-08
0.00010052
-8.38577e-08
9.29606e-08
0.000100523
-2.42493e-07
9.30838e-08
0.000100903
9.27108e-08
9.98391e-05
2.61584e-07
6.09312e-08
9.94144e-05
1.00042e-07
6.1043e-08
0.000100521
7.0853e-08
6.1047e-08
0.000100124
3.9745e-08
6.10005e-08
0.000100124
1.2981e-08
6.09859e-08
0.000100116
-1.48681e-08
6.0976e-08
0.000100118
-4.91924e-08
6.09702e-08
0.00010013
-8.37271e-08
6.09971e-08
0.000100134
-2.41826e-07
6.09795e-08
0.000100513
6.08505e-08
9.94508e-05
2.61776e-07
2.78597e-08
9.94129e-05
9.99742e-08
2.79025e-08
0.00010052
7.08076e-08
2.79027e-08
0.000100123
3.97204e-08
2.78825e-08
0.000100123
1.29691e-08
2.78754e-08
0.000100115
-1.48645e-08
2.78703e-08
0.000100117
-4.91643e-08
2.7867e-08
0.000100129
-8.36739e-08
2.78774e-08
0.000100133
-2.42028e-07
2.78708e-08
0.000100512
2.78186e-08
9.94493e-05
2.61775e-07
-8.71984e-13
9.94032e-05
9.99681e-08
-1.16087e-12
0.00010051
7.07984e-08
-9.1227e-13
0.000100113
3.97134e-08
-8.21854e-13
0.000100113
1.29643e-08
-5.44953e-13
0.000100105
-1.48673e-08
-6.93969e-14
0.000100107
-4.91645e-08
5.79327e-13
0.000100119
-8.36748e-08
1.374e-12
0.000100123
-2.42036e-07
2.79496e-12
0.000100502
5.46531e-12
9.94396e-05
2.61775e-07
-2.78613e-08
9.94032e-05
9.99682e-08
-2.79046e-08
0.00010051
7.07985e-08
-2.79043e-08
0.000100113
3.97137e-08
-2.78839e-08
0.000100113
1.29648e-08
-2.78762e-08
0.000100105
-1.48665e-08
-2.78701e-08
0.000100107
-4.91636e-08
-2.78655e-08
0.000100119
-8.36735e-08
-2.78743e-08
0.000100123
-2.42033e-07
-2.7865e-08
0.000100502
-2.78074e-08
9.94396e-05
2.61775e-07
-6.0933e-08
9.94129e-05
9.99744e-08
-6.10452e-08
0.00010052
7.0808e-08
-6.10488e-08
0.000100123
3.97213e-08
-6.1002e-08
0.000100123
1.29705e-08
-6.09869e-08
0.000100115
-1.48624e-08
-6.09759e-08
0.000100117
-4.91616e-08
-6.09689e-08
0.000100129
-8.36703e-08
-6.09942e-08
0.000100133
-2.42021e-07
-6.09742e-08
0.000100512
-6.08408e-08
9.94493e-05
2.61584e-07
-9.28122e-08
9.94144e-05
1.00042e-07
-9.31661e-08
0.000100521
7.08537e-08
-9.30209e-08
0.000100124
3.97465e-08
-9.29492e-08
0.000100124
1.29832e-08
-9.29352e-08
0.000100116
-1.48646e-08
-9.29207e-08
0.000100118
-4.91882e-08
-9.29082e-08
0.00010013
-8.37213e-08
-9.29559e-08
0.000100134
-2.41815e-07
-9.30775e-08
0.000100513
-9.27011e-08
9.94508e-05
2.62273e-07
-2.53958e-07
9.9803e-05
1.00183e-07
-2.54452e-07
0.000100911
7.0849e-08
-2.53739e-07
0.000100514
3.97479e-08
-2.5391e-07
0.000100514
1.29843e-08
-2.53879e-07
0.000100506
-1.486e-08
-2.53843e-07
0.000100508
-4.91728e-08
-2.538e-07
0.00010052
-8.38503e-08
-2.53566e-07
0.000100523
-2.42479e-07
-2.54192e-07
0.000100903
-2.53648e-07
9.98392e-05
2.61796e-07
9.87143e-05
9.98379e-08
9.98201e-05
7.0753e-08
9.9424e-05
3.97308e-08
9.9424e-05
1.30228e-08
9.9416e-05
-1.47698e-08
9.9418e-05
-4.90143e-08
9.943e-05
-8.34564e-08
9.94341e-05
-2.41906e-07
9.98122e-05
9.87515e-05
2.83387e-07
2.71976e-07
9.81589e-05
1.14544e-07
2.72818e-07
9.97161e-05
8.26663e-08
2.71538e-07
9.91843e-05
4.97639e-08
2.71872e-07
9.9185e-05
1.96924e-08
2.71741e-07
9.91743e-05
-1.19896e-08
2.71681e-07
9.9178e-05
-4.96459e-08
2.7169e-07
9.9196e-05
-8.93057e-08
2.71256e-07
9.92025e-05
-2.53139e-07
2.72369e-07
9.97036e-05
2.71465e-07
9.82268e-05
2.84182e-07
1.04007e-07
9.96868e-05
1.15198e-07
1.04682e-07
0.000101248
8.28319e-08
1.04374e-07
0.000100713
4.98382e-08
1.04263e-07
0.000100715
1.96201e-08
1.0425e-07
0.000100704
-1.22028e-08
1.04226e-07
0.000100707
-4.99371e-08
1.04196e-07
0.000100725
-9.00565e-08
1.04266e-07
0.00010073
-2.54135e-07
1.04529e-07
0.000101235
1.03829e-07
9.97526e-05
2.82948e-07
6.8002e-08
9.91674e-05
1.14901e-07
6.82007e-08
0.000100726
8.28135e-08
6.81764e-08
0.000100192
4.98057e-08
6.81046e-08
0.000100193
1.96229e-08
6.80876e-08
0.000100183
-1.21702e-08
6.80708e-08
0.000100186
-4.99247e-08
6.80533e-08
0.000100204
-8.97731e-08
6.80894e-08
0.00010021
-2.52937e-07
6.80885e-08
0.000100712
6.78598e-08
9.92338e-05
2.83314e-07
3.19445e-08
9.91657e-05
1.14795e-07
3.20692e-08
0.000100725
8.27434e-08
3.20341e-08
0.000100191
4.97634e-08
3.20004e-08
0.000100192
1.96008e-08
3.19919e-08
0.000100181
-1.21672e-08
3.19828e-08
0.000100185
-4.98871e-08
3.19736e-08
0.000100203
-8.9696e-08
3.19898e-08
0.000100209
-2.53319e-07
3.20122e-08
0.000100711
3.18719e-08
9.92319e-05
2.8323e-07
-1.18845e-12
9.91519e-05
1.14795e-07
-1.7304e-12
0.000100711
8.27358e-08
-1.09073e-12
0.000100177
4.97554e-08
-9.74726e-13
0.000100178
1.95938e-08
-4.48232e-13
0.000100168
-1.21741e-08
3.75357e-13
0.000100171
-4.98948e-08
1.54837e-12
0.000100189
-8.97073e-08
2.68235e-12
0.000100195
-2.53255e-07
5.23649e-12
0.000100698
8.73648e-12
9.92182e-05
2.8323e-07
-3.19466e-08
9.91519e-05
1.14795e-07
-3.20722e-08
0.000100711
8.27361e-08
-3.20359e-08
0.000100177
4.97559e-08
-3.20018e-08
0.000100178
1.95946e-08
-3.19922e-08
0.000100168
-1.21729e-08
-3.19813e-08
0.000100171
-4.98932e-08
-3.19697e-08
0.000100189
-8.97054e-08
-3.19835e-08
0.000100195
-2.53251e-07
-3.20008e-08
0.000100698
-3.18539e-08
9.92182e-05
2.83314e-07
-6.80043e-08
9.91657e-05
1.14796e-07
-6.82038e-08
0.000100725
8.27444e-08
-6.81783e-08
0.000100191
4.97651e-08
-6.81061e-08
0.000100192
1.96033e-08
-6.8088e-08
0.000100181
-1.21635e-08
-6.80694e-08
0.000100185
-4.98824e-08
-6.80494e-08
0.000100203
-8.96903e-08
-6.80832e-08
0.000100209
-2.53309e-07
-6.80779e-08
0.000100711
-6.78437e-08
9.9232e-05
2.82947e-07
-1.04008e-07
9.91674e-05
1.14901e-07
-1.04683e-07
0.000100726
8.28148e-08
-1.04375e-07
0.000100192
4.98082e-08
-1.04263e-07
0.000100193
1.96267e-08
-1.04248e-07
0.000100183
-1.21645e-08
-1.04223e-07
0.000100186
-4.99174e-08
-1.0419e-07
0.000100204
-8.97644e-08
-1.04259e-07
0.00010021
-2.52921e-07
-1.04519e-07
0.000100712
-1.03813e-07
9.92339e-05
2.84182e-07
-2.71979e-07
9.96868e-05
1.15199e-07
-2.7282e-07
0.000101249
8.28346e-08
-2.71539e-07
0.000100713
4.98425e-08
-2.71871e-07
0.000100715
1.96262e-08
-2.71737e-07
0.000100704
-1.21941e-08
-2.71674e-07
0.000100707
-4.99268e-08
-2.71679e-07
0.000100725
-9.0045e-08
-2.71242e-07
0.00010073
-2.54114e-07
-2.72352e-07
0.000101235
-2.71442e-07
9.97527e-05
2.83388e-07
9.81589e-05
1.14546e-07
9.97161e-05
8.26705e-08
9.91843e-05
4.97707e-08
9.9185e-05
1.9702e-08
9.91743e-05
-1.19769e-08
9.9178e-05
-4.96317e-08
9.9196e-05
-8.92908e-08
9.92025e-05
-2.53113e-07
9.97037e-05
9.82269e-05
3.01472e-07
2.8586e-07
9.75716e-05
1.2799e-07
2.87097e-07
9.96024e-05
9.35333e-08
2.85254e-07
9.89335e-05
5.99016e-08
2.85773e-07
9.89328e-05
2.79818e-08
2.85483e-07
9.89207e-05
-6.13001e-09
2.85385e-07
9.89267e-05
-4.62565e-08
2.85472e-07
9.89506e-05
-9.12634e-08
2.84791e-07
9.89627e-05
-2.57395e-07
2.86336e-07
9.95834e-05
2.85005e-07
9.76844e-05
3.0261e-07
1.13239e-07
9.95568e-05
1.28934e-07
1.14231e-07
0.000101595
9.37523e-08
1.13756e-07
0.00010092
6.00367e-08
1.13605e-07
0.00010092
2.78387e-08
1.13583e-07
0.000100908
-6.54322e-09
1.13543e-07
0.000100913
-4.67371e-08
1.13493e-07
0.000100937
-9.24175e-08
1.13572e-07
0.000100947
-2.58951e-07
1.13964e-07
0.000101574
1.1293e-07
9.96658e-05
3.00847e-07
7.30449e-08
9.89068e-05
1.28481e-07
7.33348e-08
0.000100939
9.37077e-08
7.3275e-08
0.000100268
5.99609e-08
7.31756e-08
0.000100268
2.7848e-08
7.31521e-08
0.000100255
-6.45741e-09
7.31243e-08
0.000100261
-4.66894e-08
7.30913e-08
0.000100285
-9.19793e-08
7.31298e-08
0.000100296
-2.57239e-07
7.31443e-08
0.000100918
7.28038e-08
9.90167e-05
3.01416e-07
3.48253e-08
9.89024e-05
1.28339e-07
3.50641e-08
0.000100936
9.36102e-08
3.49782e-08
0.000100264
5.98947e-08
3.49275e-08
0.000100264
2.78103e-08
3.49158e-08
0.000100252
-6.45921e-09
3.49002e-08
0.000100257
-4.66497e-08
3.48827e-08
0.000100281
-9.18897e-08
3.49035e-08
0.000100292
-2.57836e-07
3.4965e-08
0.000100916
3.47014e-08
9.90122e-05
3.012e-07
-7.12638e-13
9.88856e-05
1.28339e-07
-1.40843e-12
0.000100919
9.36025e-08
-2.29661e-13
0.000100247
5.98845e-08
-4.65322e-14
0.000100247
2.78001e-08
9.59531e-13
0.000100235
-6.4713e-09
2.31482e-12
0.00010024
-4.66659e-08
4.51224e-12
0.000100264
-9.19085e-08
6.04917e-12
0.000100275
-2.57659e-07
1.04393e-11
0.000100898
1.45498e-11
9.89952e-05
3.012e-07
-3.48263e-08
9.88856e-05
1.2834e-07
-3.50663e-08
0.000100919
9.36031e-08
-3.4978e-08
0.000100247
5.98855e-08
-3.49268e-08
0.000100247
2.78015e-08
-3.4913e-08
0.000100235
-6.46925e-09
-3.48945e-08
0.00010024
-4.66634e-08
-3.48724e-08
0.000100264
-9.19056e-08
-3.489e-08
0.000100275
-2.57654e-07
-3.49429e-08
0.000100898
-3.46708e-08
9.89952e-05
3.01417e-07
-7.30465e-08
9.89025e-05
1.28341e-07
-7.33373e-08
0.000100936
9.36122e-08
-7.32753e-08
0.000100264
5.98978e-08
-7.31753e-08
0.000100264
2.78148e-08
-7.31496e-08
0.000100252
-6.45265e-09
-7.31188e-08
0.000100257
-4.6642e-08
-7.30812e-08
0.000100281
-9.18808e-08
-7.31162e-08
0.000100292
-2.57822e-07
-7.31236e-08
0.000100916
-7.27754e-08
9.90123e-05
3.00847e-07
-1.13239e-07
9.89068e-05
1.28482e-07
-1.14232e-07
0.000100939
9.37103e-08
-1.13755e-07
0.000100268
5.99652e-08
-1.13603e-07
0.000100268
2.78545e-08
-1.13579e-07
0.000100255
-6.44751e-09
-1.13536e-07
0.000100261
-4.66777e-08
-1.13482e-07
0.000100285
-9.19661e-08
-1.13557e-07
0.000100296
-2.57217e-07
-1.13946e-07
0.000100918
-1.12907e-07
9.90168e-05
3.02612e-07
-2.85862e-07
9.95568e-05
1.28937e-07
-2.87099e-07
0.000101595
9.37572e-08
-2.85254e-07
0.00010092
6.00442e-08
-2.8577e-07
0.00010092
2.78492e-08
-2.85476e-07
0.000100908
-6.52853e-09
-2.85373e-07
0.000100913
-4.67205e-08
-2.85454e-07
0.000100937
-9.24012e-08
-2.84768e-07
0.000100947
-2.58923e-07
-2.86308e-07
0.000101574
-2.84965e-07
9.96659e-05
3.01475e-07
9.75716e-05
1.27994e-07
9.96025e-05
9.35407e-08
9.89335e-05
5.99131e-08
9.89329e-05
2.79976e-08
9.89208e-05
-6.10881e-09
9.89268e-05
-4.62346e-08
9.89507e-05
-9.12417e-08
9.89628e-05
-2.57355e-07
9.95835e-05
9.76846e-05
3.15652e-07
2.95064e-07
9.69608e-05
1.40129e-07
2.96723e-07
9.94812e-05
1.04888e-07
2.94292e-07
9.86744e-05
7.151e-08
2.94992e-07
9.86712e-05
3.84615e-08
2.94501e-07
9.86593e-05
2.61108e-09
2.94347e-07
9.86682e-05
-3.91619e-08
2.94514e-07
9.86979e-05
-8.80477e-08
2.93555e-07
9.8718e-05
-2.52308e-07
2.95478e-07
9.94522e-05
2.93654e-07
9.71384e-05
3.17125e-07
1.20283e-07
9.94144e-05
1.41347e-07
1.21599e-07
0.000101946
1.05137e-07
1.20952e-07
0.000101129
7.16817e-08
1.20766e-07
0.000101128
3.81894e-08
1.20723e-07
0.000101115
1.90348e-09
1.20659e-07
0.000101123
-3.99339e-08
1.20585e-07
0.000101153
-8.97072e-08
1.20648e-07
0.00010117
-2.5462e-07
1.21149e-07
0.000101913
1.19755e-07
9.9585e-05
3.14825e-07
7.73127e-08
9.86349e-05
1.40742e-07
7.77022e-08
0.000101157
1.05072e-07
7.76048e-08
0.000100347
7.15652e-08
7.7477e-08
0.000100344
3.82116e-08
7.74416e-08
0.000100332
2.05237e-09
7.73969e-08
0.00010034
-3.98445e-08
7.73421e-08
0.00010037
-8.91125e-08
7.73695e-08
0.000100388
-2.52386e-07
7.7389e-08
0.000101125
7.69074e-08
9.88072e-05
3.15598e-07
3.74552e-08
9.86267e-05
1.4057e-07
3.7828e-08
0.000101151
1.04945e-07
3.76866e-08
0.00010034
7.1469e-08
3.76163e-08
0.000100338
3.81515e-08
3.7599e-08
0.000100325
2.03724e-09
3.75736e-08
0.000100333
-3.98168e-08
3.75443e-08
0.000100363
-8.90293e-08
3.75649e-08
0.000100381
-2.53211e-07
3.76621e-08
0.00010112
3.72459e-08
9.87987e-05
3.15219e-07
9.83626e-13
9.86078e-05
1.40562e-07
2.65461e-13
0.000101131
1.04935e-07
2.17147e-12
0.00010032
7.14548e-08
2.61681e-12
0.000100318
3.81362e-08
4.53338e-12
0.000100305
2.01754e-09
6.84181e-12
0.000100314
-3.98434e-08
1.09627e-11
0.000100343
-8.90535e-08
1.31403e-11
0.000100362
-2.52907e-07
2.04387e-11
0.0001011
2.55656e-11
9.87795e-05
3.15219e-07
-3.74528e-08
9.86078e-05
1.40563e-07
-3.78268e-08
0.000101131
1.04936e-07
-3.76817e-08
0.00010032
7.14564e-08
-3.76103e-08
0.000100318
3.81385e-08
-3.7589e-08
0.000100305
2.02096e-09
-3.75587e-08
0.000100314
-3.98396e-08
-3.75211e-08
0.000100343
-8.90495e-08
-3.75367e-08
0.000100362
-2.529e-07
-3.76193e-08
0.0001011
-3.71925e-08
9.87796e-05
3.156e-07
-7.73114e-08
9.86267e-05
1.40572e-07
-7.77017e-08
0.000101151
1.04949e-07
-7.76009e-08
0.00010034
7.14746e-08
-7.74718e-08
0.000100338
3.81596e-08
-7.74323e-08
0.000100325
2.04845e-09
-7.73825e-08
0.000100333
-3.98038e-08
-7.73195e-08
0.000100363
-8.90159e-08
-7.73417e-08
0.000100381
-2.53191e-07
-7.73495e-08
0.00010112
-7.68567e-08
9.87988e-05
3.14827e-07
-1.20281e-07
9.86349e-05
1.40745e-07
-1.21597e-07
0.000101157
1.05077e-07
-1.20948e-07
0.000100347
7.15732e-08
-1.2076e-07
0.000100344
3.82236e-08
-1.20713e-07
0.000100332
2.06931e-09
-1.20645e-07
0.00010034
-3.98248e-08
-1.20563e-07
0.00010037
-8.90924e-08
-1.20623e-07
0.000100388
-2.52353e-07
-1.21117e-07
0.000101126
-1.19711e-07
9.88073e-05
3.1713e-07
-2.95064e-07
9.94145e-05
1.41352e-07
-2.96722e-07
0.000101946
1.05146e-07
-2.94287e-07
0.000101129
7.16946e-08
-2.94984e-07
0.000101128
3.82076e-08
-2.94486e-07
0.000101115
1.92797e-09
-2.94325e-07
0.000101123
-3.99084e-08
-2.94483e-07
0.000101153
-8.9682e-08
-2.93517e-07
0.00010117
-2.54575e-07
-2.95429e-07
0.000101913
-2.93587e-07
9.95852e-05
3.15657e-07
9.69609e-05
1.40137e-07
9.94813e-05
1.04901e-07
9.86745e-05
7.15294e-08
9.86713e-05
3.84887e-08
9.86594e-05
2.64528e-09
9.86683e-05
-3.91261e-08
9.8698e-05
-8.80114e-08
9.87182e-05
-2.52245e-07
9.94523e-05
9.71388e-05
3.2643e-07
2.99978e-07
9.63344e-05
1.50747e-07
3.02082e-07
9.93548e-05
1.16381e-07
2.99037e-07
9.84098e-05
8.45906e-08
2.99893e-07
9.84031e-05
5.17594e-08
2.99166e-07
9.83929e-05
1.55607e-08
2.98932e-07
9.84055e-05
-2.65098e-08
2.99156e-07
9.84408e-05
-7.77824e-08
2.97884e-07
9.84714e-05
-2.35286e-07
3.00085e-07
9.93096e-05
2.9764e-07
9.66055e-05
3.28221e-07
1.24758e-07
9.92614e-05
1.52214e-07
1.26405e-07
0.000102298
1.16633e-07
1.25572e-07
0.000101338
8.47494e-08
1.25349e-07
0.000101334
5.12659e-08
1.25269e-07
0.000101322
1.44169e-08
1.2517e-07
0.000101334
-2.7757e-08
1.25062e-07
0.000101369
-8.01401e-08
1.2508e-07
0.000101395
-2.38742e-07
1.25666e-07
0.000102246
1.23856e-07
9.95201e-05
3.25377e-07
8.01931e-08
9.83541e-05
1.51453e-07
8.07007e-08
0.000101376
1.16546e-07
8.05541e-08
0.000100427
8.45968e-08
8.03941e-08
0.000100421
5.13107e-08
8.03394e-08
0.00010041
1.46433e-08
8.02682e-08
0.000100422
-2.76052e-08
8.01813e-08
0.000100457
-7.93738e-08
8.01797e-08
0.000100485
-2.35971e-07
8.01892e-08
0.000101328
7.95175e-08
9.86155e-05
3.26334e-07
3.94215e-08
9.83411e-05
1.51249e-07
3.99448e-08
0.000101367
1.16386e-07
3.97421e-08
0.000100415
8.44627e-08
3.96489e-08
0.00010041
5.12187e-08
3.96225e-08
0.000100399
1.46009e-08
3.9583e-08
0.000100411
-2.76093e-08
3.95366e-08
0.000100446
-7.9324e-08
3.95475e-08
0.000100473
-2.3704e-07
3.96724e-08
0.000101318
3.90717e-08
9.86021e-05
3.2577e-07
3.87026e-12
9.83214e-05
1.51226e-07
3.24868e-12
0.000101346
1.16371e-07
6.11811e-12
0.000100395
8.44417e-08
7.0434e-12
0.00010039
5.11943e-08
1.04483e-11
0.000100378
1.45695e-08
1.42894e-11
0.00010039
-2.76517e-08
2.14524e-11
0.000100425
-7.93558e-08
2.4277e-11
0.000100453
-2.36611e-07
3.74046e-11
0.000101297
4.09834e-11
9.8582e-05
3.2577e-07
-3.94133e-08
9.83214e-05
1.51227e-07
-3.99377e-08
0.000101346
1.16372e-07
-3.97293e-08
0.000100395
8.44442e-08
-3.9634e-08
0.00010039
5.11982e-08
-3.96006e-08
0.000100378
1.45749e-08
-3.95532e-08
0.00010039
-2.76463e-08
-3.9492e-08
0.000100425
-7.93492e-08
-3.94951e-08
0.000100453
-2.36604e-07
-3.95978e-08
0.000101297
-3.89808e-08
9.8582e-05
3.26338e-07
-8.01868e-08
9.83412e-05
1.51253e-07
-8.0695e-08
0.000101367
1.16393e-07
-8.05432e-08
0.000100415
8.44724e-08
-8.03808e-08
0.00010041
5.12326e-08
-8.03191e-08
0.000100399
1.462e-08
-8.02395e-08
0.000100411
-2.7589e-08
-8.01383e-08
0.000100446
-7.9305e-08
-8.01281e-08
0.000100473
-2.37008e-07
-8.01192e-08
0.000101318
-7.94244e-08
9.86022e-05
3.2538e-07
-1.24752e-07
9.83541e-05
1.51458e-07
-1.264e-07
0.000101376
1.16555e-07
-1.25562e-07
0.000100427
8.46108e-08
-1.25336e-07
0.000100421
5.13314e-08
-1.2525e-07
0.00010041
1.46727e-08
-1.25144e-07
0.000100422
-2.75735e-08
-1.25025e-07
0.000100457
-7.93452e-08
-1.25036e-07
0.000100485
-2.35913e-07
-1.2561e-07
0.000101328
-1.23783e-07
9.86158e-05
3.28228e-07
-2.99974e-07
9.92615e-05
1.52223e-07
-3.02077e-07
0.000102298
1.16647e-07
-2.99026e-07
0.000101338
8.47707e-08
-2.99877e-07
0.000101335
5.12961e-08
-2.9914e-07
0.000101322
1.44567e-08
-2.98896e-07
0.000101334
-2.77159e-08
-2.99104e-07
0.000101369
-8.01025e-08
-2.9782e-07
0.000101395
-2.3867e-07
-3.00013e-07
0.000102246
-2.97525e-07
9.95203e-05
3.26439e-07
9.63345e-05
1.5076e-07
9.93549e-05
1.16402e-07
9.84098e-05
8.46228e-08
9.84032e-05
5.18035e-08
9.83931e-05
1.56179e-08
9.84056e-05
-2.64509e-08
9.8441e-05
-7.77297e-08
9.84716e-05
-2.35171e-07
9.93098e-05
9.66061e-05
3.35561e-07
3.02292e-07
9.56966e-05
1.6095e-07
3.04864e-07
9.92246e-05
1.28478e-07
3.01207e-07
9.8141e-05
9.94528e-08
3.02182e-07
9.81299e-05
6.84994e-08
3.01191e-07
9.81227e-05
3.38186e-08
3.00847e-07
9.81393e-05
-6.82422e-09
3.01072e-07
9.81803e-05
-5.87907e-08
2.99419e-07
9.82239e-05
-2.02106e-07
3.01654e-07
9.91513e-05
2.98354e-07
9.6105e-05
3.37639e-07
1.27639e-07
9.90984e-05
1.62616e-07
1.29613e-07
0.000102648
1.28689e-07
1.2858e-07
0.000101545
9.9519e-08
1.28312e-07
0.000101538
6.76492e-08
1.28179e-07
0.000101527
3.20321e-08
1.28029e-07
0.000101542
-8.85124e-09
1.27868e-07
0.000101583
-6.22059e-08
1.27803e-07
0.00010162
-2.07385e-07
1.28434e-07
0.000102564
1.26166e-07
9.94849e-05
3.34276e-07
8.19433e-08
9.80655e-05
1.61699e-07
8.25865e-08
0.000101596
1.2858e-07
8.23769e-08
0.000100506
9.9338e-08
8.21778e-08
0.000100497
6.77309e-08
8.20941e-08
0.000100488
3.2356e-08
8.19836e-08
0.000100503
-8.60789e-09
8.18486e-08
0.000100544
-6.12509e-08
8.17884e-08
0.000100583
-2.04078e-07
8.17528e-08
0.000101517
8.07384e-08
9.84569e-05
3.35388e-07
4.0669e-08
9.8047e-05
1.61459e-07
4.13552e-08
0.000101582
1.28379e-07
4.10844e-08
0.00010049
9.91555e-08
4.0964e-08
0.000100481
6.75935e-08
4.09239e-08
0.000100472
3.22677e-08
4.08642e-08
0.000100487
-8.67065e-09
4.07924e-08
0.000100528
-6.12622e-08
4.07797e-08
0.000100567
-2.05413e-07
4.09341e-08
0.000101503
4.01214e-08
9.84373e-05
3.34628e-07
7.97513e-12
9.80275e-05
1.61413e-07
7.59646e-12
0.00010156
1.28354e-07
1.17028e-11
0.000100469
9.91233e-08
1.34326e-11
0.00010046
6.75547e-08
1.91049e-11
0.000100451
3.22171e-08
2.52584e-11
0.000100466
-8.73909e-09
3.69454e-11
0.000100507
-6.13084e-08
4.21072e-11
0.000100546
-2.04887e-07
6.10098e-11
0.000101481
6.89417e-11
9.84172e-05
3.34629e-07
-4.06528e-08
9.80275e-05
1.61414e-07
-4.13395e-08
0.00010156
1.28357e-07
-4.10607e-08
0.000100469
9.91273e-08
-4.09364e-08
0.00010046
6.75608e-08
-4.08848e-08
0.000100451
3.22249e-08
-4.08124e-08
0.000100466
-8.72912e-09
-4.07156e-08
0.000100507
-6.13036e-08
-4.06937e-08
0.000100546
-2.04869e-07
-4.08076e-08
0.000101481
-3.99694e-08
9.84172e-05
3.35394e-07
-8.19301e-08
9.8047e-05
1.61466e-07
-8.25731e-08
0.000101582
1.2839e-07
-8.23563e-08
0.00010049
9.91711e-08
-8.2153e-08
0.000100481
6.76162e-08
-8.2058e-08
0.000100472
3.22982e-08
-8.19343e-08
0.000100487
-8.63935e-09
-8.17753e-08
0.000100528
-6.12349e-08
-8.1704e-08
0.000100567
-2.05352e-07
-8.16346e-08
0.000101503
-8.05779e-08
9.84376e-05
3.34283e-07
-1.27628e-07
9.80655e-05
1.61707e-07
-1.29601e-07
0.000101596
1.28595e-07
-1.28562e-07
0.000100506
9.93611e-08
-1.2829e-07
0.000100497
6.77657e-08
-1.28147e-07
0.000100488
3.24039e-08
-1.27986e-07
0.000100503
-8.55979e-09
-1.27808e-07
0.000100544
-6.11995e-08
-1.27733e-07
0.000100584
-2.03972e-07
-1.28347e-07
0.000101517
-1.26022e-07
9.84574e-05
3.3765e-07
-3.02282e-07
9.90985e-05
1.6263e-07
-3.04853e-07
0.000102648
1.28711e-07
-3.01188e-07
0.000101545
9.95524e-08
-3.02156e-07
0.000101538
6.7697e-08
-3.0115e-07
0.000101527
3.2094e-08
-3.0079e-07
0.000101542
-8.78978e-09
-3.00992e-07
0.000101583
-6.21467e-08
-2.99323e-07
0.00010162
-2.07242e-07
-3.01538e-07
0.000102564
-2.98192e-07
9.94853e-05
3.35575e-07
9.56966e-05
1.6097e-07
9.92246e-05
1.28511e-07
9.81411e-05
9.95027e-08
9.813e-05
6.85699e-08
9.81229e-05
3.39085e-08
9.81395e-05
-6.73391e-09
9.81807e-05
-5.86911e-08
9.82243e-05
-2.01911e-07
9.91515e-05
9.61061e-05
3.4436e-07
3.03338e-07
9.50489e-05
1.71748e-07
3.06395e-07
9.90908e-05
1.4191e-07
3.02149e-07
9.78687e-05
1.16636e-07
3.032e-07
9.7852e-05
8.91762e-08
3.01925e-07
9.78482e-05
5.8106e-08
3.01431e-07
9.78689e-05
2.12767e-08
3.01565e-07
9.79156e-05
-2.8936e-08
2.99386e-07
9.79748e-05
-1.45942e-07
3.01231e-07
9.8967e-05
2.96353e-07
9.56628e-05
3.46682e-07
1.29892e-07
9.89252e-05
1.73544e-07
1.32172e-07
0.000102995
1.42017e-07
1.30939e-07
0.000101748
1.16499e-07
1.30616e-07
0.000101736
8.77872e-08
1.30413e-07
0.000101727
5.53882e-08
1.30192e-07
0.000101746
1.79959e-08
1.29951e-07
0.000101792
-3.40821e-08
1.29756e-07
0.000101842
-1.54789e-07
1.30401e-07
0.000102856
1.27724e-07
9.94988e-05
3.4285e-07
8.32058e-08
9.77693e-05
1.72484e-07
8.39947e-08
0.000101814
1.41895e-07
8.37148e-08
0.000100584
1.16304e-07
8.34677e-08
0.000100569
8.79256e-08
8.33444e-08
0.000100563
5.58327e-08
8.31773e-08
0.000100582
1.83673e-08
8.29644e-08
0.000100628
-3.28949e-08
8.27802e-08
0.000100682
-1.50668e-07
8.256e-08
0.000101683
8.07608e-08
9.83532e-05
3.4408e-07
4.15181e-08
9.77446e-05
1.72201e-07
4.23716e-08
0.000101795
1.41643e-07
4.203e-08
0.000100562
1.1606e-07
4.18772e-08
0.000100548
8.77244e-08
4.18183e-08
0.000100541
5.56688e-08
4.17309e-08
0.000100561
1.81919e-08
4.16243e-08
0.000100607
-3.30873e-08
4.15748e-08
0.00010066
-1.52778e-07
4.17648e-08
0.000101663
4.08911e-08
9.83244e-05
3.43125e-07
1.32202e-11
9.77259e-05
1.72124e-07
1.33435e-11
0.000101774
1.41604e-07
1.90566e-11
0.000100542
1.16012e-07
2.20364e-11
0.000100527
8.76643e-08
3.10677e-11
0.000100521
5.55875e-08
4.05833e-11
0.00010054
1.8083e-08
6.07582e-11
0.000100586
-3.31489e-08
6.6237e-11
0.000100639
-1.52035e-07
1.02664e-10
0.000101642
1.38e-10
9.83059e-05
3.43127e-07
-4.14916e-08
9.77259e-05
1.72126e-07
-4.23447e-08
0.000101774
1.41608e-07
-4.19919e-08
0.000100542
1.16018e-07
-4.18328e-08
0.000100527
8.76735e-08
-4.17559e-08
0.000100521
5.56011e-08
-4.16483e-08
0.00010054
1.80947e-08
-4.15017e-08
0.000100586
-3.31389e-08
-4.14388e-08
0.000100639
-1.51992e-07