/*--------------------------------*- C++ -*----------------------------------*\
  =========                 |
  \\      /  F ield         | OpenFOAM: The Open Source CFD Toolbox
   \\    /   O peration     | Website:  https://openfoam.org
    \\  /    A nd           | Version:  6
     \\/     M anipulation  |
\*---------------------------------------------------------------------------*/
FoamFile
{
    version     2.0;
    format      ascii;
    class       volScalarField;
    location    "200";
    object      p;
}
// * * * * * * * * * * * * * * * * * * * * * * * * * * * * * * * * * * * * * //

dimensions      [0 2 -2 0 0 0 0];

internalField   nonuniform List<scalar> 
7000
(
0.0448931
0.0426566
0.0421372
0.0419112
0.0418034
0.041823
0.0419683
0.0422257
0.0427676
0.0450305
0.0426792
0.0404447
0.0399292
0.039707
0.0396036
0.0396279
0.0397777
0.0400386
0.0405821
0.0428506
0.0421764
0.0399458
0.0394324
0.039213
0.0391131
0.0391412
0.0392947
0.0395587
0.0401047
0.0423755
0.0419714
0.0397447
0.0392342
0.0390189
0.038924
0.0389576
0.0391166
0.0393852
0.039935
0.0422112
0.0418891
0.0396669
0.0391601
0.0389498
0.0388612
0.0389019
0.0390682
0.0393433
0.0398984
0.0421827
0.0419362
0.0397189
0.0392162
0.0390115
0.03893
0.0389789
0.0391535
0.0394363
0.0399979
0.0422918
0.0421079
0.0398955
0.0393968
0.0391977
0.0391233
0.0391804
0.0393636
0.0396542
0.0402227
0.0425266
0.0423878
0.0401794
0.0396841
0.0394897
0.0394216
0.0394859
0.0396767
0.0399744
0.0405491
0.0428623
0.0429481
0.0407417
0.0402493
0.0400588
0.0399956
0.0400657
0.0402626
0.040566
0.0411456
0.0434675
0.0452353
0.0430345
0.0425445
0.0423588
0.0423022
0.0423798
0.0425844
0.0428953
0.0434827
0.0458127
0.0419175
0.040512
0.0405329
0.0403098
0.0401991
0.0402177
0.0403646
0.0406186
0.0406108
0.0420488
0.0405355
0.039134
0.0391613
0.0389424
0.0388375
0.0388622
0.0390154
0.0392751
0.0392672
0.0407129
0.0405742
0.039179
0.039207
0.038991
0.0388893
0.0389177
0.0390745
0.0393371
0.0393316
0.0407786
0.0403743
0.0389831
0.0390142
0.038803
0.0387072
0.0387421
0.0389055
0.0391738
0.0391721
0.0406281
0.0402919
0.0389062
0.0389409
0.0387358
0.0386474
0.0386909
0.0388632
0.0391396
0.0391437
0.0406116
0.0403413
0.0389615
0.0390004
0.0388018
0.0387218
0.038775
0.0389576
0.0392435
0.039255
0.0407363
0.040518
0.0391441
0.0391872
0.038995
0.0389235
0.0389865
0.0391795
0.0394755
0.0394946
0.0409896
0.0407976
0.0394293
0.0394759
0.0392892
0.0392251
0.0392967
0.039499
0.039804
0.0398306
0.0413371
0.0408117
0.0394437
0.0394938
0.0393111
0.0392523
0.0393301
0.039539
0.0398506
0.0398816
0.0414003
0.0422766
0.0409137
0.0409643
0.040788
0.0407367
0.0408231
0.041041
0.0413607
0.0414025
0.0429307
0.0393981
0.038588
0.0389307
0.0387235
0.0386679
0.0386857
0.0387764
0.039017
0.0386806
0.0395234
0.038618
0.0378173
0.0381692
0.037967
0.0379194
0.0379456
0.0380441
0.0382929
0.0379542
0.0388046
0.03898
0.0381884
0.0385401
0.0383412
0.0382973
0.0383274
0.0384299
0.0386816
0.0383454
0.0391965
0.0387988
0.0380119
0.0383673
0.0381748
0.0381384
0.0381771
0.0382885
0.0385479
0.038216
0.0390821
0.0387763
0.037997
0.0383566
0.0381717
0.038145
0.038195
0.0383186
0.0385896
0.0382654
0.0391501
0.0388301
0.0380587
0.0384232
0.0382467
0.038231
0.0382939
0.0384317
0.0387165
0.0384023
0.0393088
0.038956
0.038192
0.0385614
0.0383933
0.0383886
0.0384646
0.0386168
0.0389159
0.0386127
0.0395414
0.0392253
0.0384694
0.0388426
0.0386815
0.0386864
0.0387739
0.0389388
0.0392508
0.0389581
0.0399041
0.0389141
0.0381571
0.0385349
0.0383783
0.0383896
0.0384846
0.038658
0.0389789
0.0386914
0.0396568
0.0397945
0.0390406
0.0394177
0.0392703
0.0392912
0.0393978
0.0395836
0.039915
0.0396438
0.040625
0.0380348
0.0374507
0.0378123
0.0375906
0.0376018
0.0376177
0.0376374
0.0378946
0.0375316
0.0381421
0.0374913
0.0369222
0.0372949
0.0370794
0.0371019
0.0371286
0.0371571
0.0374245
0.0370573
0.0376737
0.0378753
0.0373172
0.0376889
0.037478
0.0375048
0.0375362
0.0375693
0.0378388
0.0374736
0.0380916
0.0376851
0.0371329
0.0375098
0.0373075
0.0373446
0.0373879
0.0374336
0.0377144
0.0373547
0.0379964
0.0377377
0.0371967
0.0375791
0.0373872
0.0374379
0.0374974
0.037561
0.0378594
0.0375118
0.038184
0.0377988
0.0372686
0.0376574
0.0374773
0.0375435
0.0376217
0.0377068
0.0380269
0.0376961
0.038406
0.0378635
0.0373428
0.0377382
0.0375697
0.0376516
0.037749
0.037856
0.0381989
0.0378864
0.0386354
0.0381553
0.037646
0.0380462
0.0378877
0.0379832
0.0380973
0.0382234
0.0385866
0.0382921
0.0390706
0.0378244
0.0373148
0.0377214
0.0375685
0.0376728
0.0377977
0.0379361
0.0383139
0.0380278
0.0388341
0.0384905
0.0379833
0.03839
0.0382502
0.0383671
0.0385081
0.0386653
0.0390578
0.0387933
0.0396251
0.0370349
0.036555
0.0368581
0.0366182
0.0366713
0.0366844
0.0366548
0.0369312
0.0366216
0.0371112
0.0366082
0.0361486
0.036464
0.0362321
0.0363
0.036326
0.0363052
0.0365909
0.0362706
0.0367626
0.036938
0.0364905
0.0368044
0.0365786
0.0366517
0.0366832
0.0366671
0.0369537
0.0366316
0.0371256
0.036738
0.0362986
0.0366198
0.0364056
0.0364932
0.0365414
0.0365433
0.0368465
0.0365307
0.0370613
0.0368446
0.0364208
0.0367494
0.0365499
0.0366569
0.0367288
0.0367578
0.0370888
0.0367923
0.0373753
0.0369153
0.0365064
0.0368438
0.036661
0.0367904
0.0368905
0.0369529
0.0373196
0.037052
0.0377028
0.0369448
0.0365484
0.036895
0.036729
0.0368811
0.03701
0.0371068
0.0375111
0.0372762
0.0379971
0.0372646
0.0368836
0.0372368
0.0370852
0.037257
0.0374107
0.0375373
0.0379745
0.0377709
0.0385432
0.0369934
0.0366143
0.036976
0.0368322
0.0370167
0.0371863
0.0373319
0.037792
0.0376048
0.0384198
0.0375675
0.0371912
0.0375554
0.0374292
0.0376303
0.0378221
0.0379941
0.0384754
0.0383181
0.0391615
0.0359244
0.0355477
0.035821
0.0355854
0.0356608
0.0356712
0.0356115
0.035887
0.0356015
0.0359701
0.0356148
0.0352645
0.0355511
0.0353259
0.0354192
0.0354433
0.0353888
0.0356659
0.0353536
0.0356993
0.035919
0.0355821
0.0358669
0.0356493
0.0357483
0.0357779
0.035727
0.036
0.0356765
0.0360161
0.0357334
0.0354079
0.0357023
0.0355001
0.0356191
0.035672
0.0356461
0.0359421
0.0356257
0.0360192
0.0358762
0.0355716
0.0358758
0.0356942
0.0358405
0.0359279
0.035943
0.0362825
0.0359995
0.0364865
0.0359582
0.0356733
0.0359897
0.0358315
0.0360101
0.0361396
0.0362069
0.0366056
0.0363765
0.0369895
0.035973
0.0357048
0.0360341
0.0358993
0.0361107
0.0362832
0.0364046
0.0368668
0.036698
0.0374404
0.0362995
0.0360512
0.0363896
0.0362754
0.0365148
0.036724
0.0368916
0.0374075
0.0372944
0.0381301
0.0360604
0.0358169
0.0361661
0.0360629
0.0363205
0.0365529
0.0367491
0.0373026
0.0372187
0.0381158
0.0365434
0.0363034
0.036658
0.0365771
0.0368563
0.0371177
0.0373494
0.037931
0.0378805
0.0388109
0.0347278
0.0344458
0.0347031
0.0344865
0.0345743
0.034583
0.0345038
0.0347678
0.0345127
0.0347633
0.0345273
0.0342785
0.0345498
0.034346
0.0344533
0.0344732
0.0343889
0.0346329
0.0343046
0.034467
0.0348187
0.0345845
0.0348536
0.0346584
0.0347713
0.0347954
0.0347102
0.0349392
0.0345737
0.0346975
0.0346624
0.034444
0.0347254
0.0345503
0.03469
0.0347456
0.0346942
0.0349551
0.0345911
0.0347858
0.0348321
0.0346407
0.0349349
0.0347878
0.0349655
0.0350706
0.035081
0.0354127
0.0351055
0.0354667
0.0349258
0.0347603
0.0350708
0.034956
0.0351795
0.0353466
0.0354388
0.0358715
0.0356647
0.0362698
0.0349365
0.034793
0.0351209
0.0350384
0.0353083
0.0355389
0.0357158
0.0362559
0.0361629
0.0370202
0.0352558
0.0351372
0.0354776
0.0354233
0.0357321
0.0360158
0.036263
0.0368899
0.0368968
0.0379282
0.0350357
0.0349255
0.035279
0.0352397
0.0355736
0.0358902
0.0361801
0.0368631
0.0369223
0.038051
0.0354358
0.0353297
0.035692
0.0356798
0.0360409
0.0363936
0.0367268
0.0374414
0.0375418
0.0386756
0.0335493
0.033335
0.0335683
0.0333718
0.0334651
0.0334743
0.033388
0.0336619
0.0334742
0.0336834
0.0334305
0.0332559
0.0335031
0.0333213
0.033433
0.0334452
0.0333307
0.0335329
0.0331725
0.0331017
0.0336985
0.0335393
0.0337838
0.0336107
0.0337266
0.0337389
0.0336134
0.0337746
0.0333145
0.0330844
0.0335714
0.0334334
0.0336927
0.0335454
0.033696
0.0337495
0.0336682
0.0338667
0.0333893
0.0332176
0.0337593
0.0336551
0.0339308
0.0338204
0.0340224
0.0341457
0.0341563
0.0344673
0.0340904
0.0342236
0.0338642
0.0337931
0.0340898
0.0340228
0.0342882
0.0345017
0.0346388
0.0351206
0.034941
0.0355727
0.033878
0.0338357
0.0341551
0.0341312
0.0344608
0.0347662
0.0350343
0.0356967
0.0357468
0.036898
0.0341896
0.0341776
0.0345134
0.0345268
0.0349092
0.0352892
0.0356616
0.0364661
0.0367014
0.0381976
0.0339972
0.0339978
0.0343493
0.0343828
0.0347986
0.035224
0.0356575
0.0365471
0.0368678
0.0385129
0.0343406
0.0343466
0.0347104
0.0347754
0.0352235
0.0356901
0.0361703
0.0370871
0.0374231
0.0389882
0.0323961
0.0322272
0.0324317
0.0322547
0.0323485
0.0323629
0.0322842
0.0325893
0.0325639
0.032929
0.0323346
0.0322113
0.0324283
0.0322659
0.0323723
0.0323718
0.0322218
0.0323608
0.0319521
0.0316229
0.0325701
0.0324624
0.0326753
0.0325208
0.0326276
0.0326185
0.0324371
0.0324878
0.0318321
0.0310144
0.0324684
0.0323879
0.032618
0.0324951
0.0326451
0.0326875
0.0325598
0.0326516
0.0319167
0.0310145
0.0326657
0.0326261
0.0328763
0.0328006
0.0330182
0.0331562
0.0331614
0.033435
0.032888
0.0324836
0.03278
0.0327816
0.0330582
0.0330389
0.0333421
0.0336076
0.0338041
0.0343646
0.034205
0.0348115
0.0328023
0.0328405
0.0331455
0.0331823
0.0335718
0.0339671
0.0343608
0.0352223
0.0355055
0.0372114
0.0331069
0.0331812
0.0335071
0.0335915
0.03405
0.0345468
0.0350909
0.0361727
0.036792
0.0392273
0.0329478
0.0330395
0.0333833
0.0334934
0.0339947
0.0345508
0.0351773
0.0363728
0.0371329
0.0397901
0.0332554
0.0333537
0.0337132
0.033858
0.0343946
0.0349923
0.0356587
0.0368494
0.0375693
0.0398849
0.031231
0.0310968
0.0312777
0.0311236
0.0312186
0.0312469
0.0311936
0.0315864
0.0319685
0.0329523
0.0312116
0.0311281
0.0313184
0.0311768
0.0312732
0.0312572
0.0310651
0.0311572
0.0307849
0.030183
0.0314138
0.0313452
0.0315292
0.0313929
0.0314833
0.0314451
0.0311923
0.0311228
0.0302069
0.02806
0.0313351
0.0312998
0.0315028
0.0314039
0.0315454
0.0315684
0.0313768
0.0313328
0.0301818
0.027379
0.0315339
0.0315468
0.0317731
0.0317317
0.0319578
0.0321064
0.0320994
0.0323172
0.0314852
0.029585
0.0316544
0.0317167
0.0319746
0.0320035
0.0323397
0.0326611
0.0329299
0.0335876
0.0334984
0.0337126
0.0316864
0.0317933
0.032085
0.0321839
0.0326311
0.0331277
0.0336787
0.0348008
0.0355608
0.0382046
0.0319813
0.0321299
0.0324465
0.0326033
0.0331366
0.033764
0.0345186
0.0359672
0.037355
0.0416184
0.0318519
0.0320227
0.032359
0.0325472
0.0331325
0.0338325
0.034689
0.036286
0.0378814
0.0424809
0.0321327
0.0323113
0.0326657
0.0328899
0.0335101
0.0342436
0.0351138
0.0366437
0.0380131
0.0414046
0.0300352
0.029933
0.0300998
0.0299759
0.0300783
0.0301339
0.0301229
0.0305959
0.0314922
0.0336181
0.0300467
0.0299984
0.03017
0.0300534
0.0301403
0.030111
0.0298735
0.0298925
0.0296792
0.0288893
0.0302162
0.0301811
0.0303429
0.030227
0.0302984
0.030228
0.0298848
0.0296445
0.0285919
0.0244609
0.0301574
0.0301611
0.0303423
0.030268
0.0303954
0.0303905
0.0301041
0.0298547
0.0283251
0.0227378
0.0303506
0.0304085
0.030615
0.0306069
0.0308334
0.0309812
0.0309339
0.0310297
0.0298902
0.0259936
0.0304722
0.0305872
0.0308291
0.0309045
0.0312645
0.031631
0.0319555
0.0326563
0.0325648
0.0327738
0.0305113
0.0306787
0.0309587
0.0311172
0.0316128
0.0322024
0.0329104
0.0342624
0.0354123
0.0400781
0.0307918
0.0310057
0.0313134
0.0315391
0.0321365
0.0328861
0.0338568
0.0356502
0.0377231
0.0451685
0.0306847
0.0309252
0.0312532
0.0315151
0.0321723
0.0330055
0.0340874
0.0360407
0.038371
0.0457653
0.0309411
0.0311893
0.031536
0.0318321
0.0325186
0.0333663
0.0344116
0.0361778
0.0380235
0.0427374
0.0288045
0.0287348
0.028897
0.0288107
0.02893
0.0290217
0.0290507
0.0295139
0.0304317
0.0335161
0.0288357
0.0288214
0.0289821
0.0288961
0.0289822
0.0289524
0.0286796
0.0286356
0.0285838
0.0285624
0.0289719
0.0289677
0.0291146
0.029024
0.029086
0.0290036
0.0286129
0.0283571
0.0278392
0.0258492
0.0289277
0.0289665
0.0291318
0.0290853
0.0292048
0.0291892
0.0288689
0.0286571
0.0279289
0.0256627
0.0291075
0.0292046
0.0293944
0.0294193
0.0296451
0.0297963
0.0297599
0.0299666
0.0295512
0.0296253
0.0292239
0.0293837
0.0296101
0.0297272
0.0301013
0.0304976
0.0308892
0.0317447
0.031891
0.0353266
0.029265
0.0294832
0.0297491
0.0299589
0.0304856
0.0311354
0.0319657
0.0335029
0.0345007
0.041126
0.0295261
0.0297941
0.030088
0.0303706
0.0310079
0.0318334
0.0329439
0.0348945
0.0366002
0.0444176
0.029435
0.0297326
0.0300461
0.0303677
0.0310681
0.031979
0.0331802
0.0352031
0.0369877
0.0429751
0.0296664
0.0299708
0.0303021
0.0306531
0.0313728
0.0322731
0.0333754
0.0350889
0.0363065
0.0390575
0.0275406
0.0275087
0.0276775
0.0276402
0.0277942
0.0279375
0.0279897
0.0283475
0.028718
0.0310956
0.02758
0.0276027
0.0277627
0.0277183
0.0278245
0.0278279
0.0275362
0.0273838
0.0271263
0.0261977
0.027681
0.0277093
0.0278512
0.0277976
0.0278759
0.0278326
0.0274541
0.0272155
0.0269129
0.0240146
0.027644
0.0277172
0.0278744
0.0278648
0.0279985
0.028018
0.0277227
0.0276137
0.0271657
0.0240674
0.027802
0.027934
0.0281115
0.0281723
0.0284081
0.0285825
0.02857
0.0289289
0.0284387
0.0277567
0.0279051
0.0281022
0.0283131
0.0284681
0.0288528
0.0292648
0.0296752
0.0306886
0.0303887
0.0329508
0.0279412
0.0282001
0.0284479
0.028699
0.0292408
0.0299107
0.0307734
0.0324677
0.033027
0.0395152
0.028178
0.0284871
0.0287607
0.0290851
0.0297367
0.0305824
0.0317254
0.0337827
0.0352097
0.0433059
0.0280962
0.0284368
0.0287274
0.0290903
0.0298018
0.0307261
0.0319297
0.0339317
0.0354222
0.0407415
0.0283011
0.0286446
0.0289503
0.0293345
0.030052
0.0309415
0.0319963
0.0335971
0.0344561
0.0356683
0.0262343
0.0262483
0.0264339
0.0264554
0.0266593
0.0268732
0.026918
0.0270907
0.0267978
0.0274119
0.0262714
0.0263367
0.0265057
0.0265131
0.0266574
0.0267287
0.0264169
0.0260099
0.0254311
0.0226458
0.0263364
0.0264015
0.0265484
0.0265435
0.0266605
0.0266992
0.0263334
0.0258904
0.0255942
0.0208482
0.0262995
0.0264085
0.0265656
0.0266016
0.0267669
0.0268498
0.0265374
0.0262589
0.0256532
0.0202828
0.0264273
0.0265916
0.0267607
0.0268595
0.0271133
0.0273191
0.0272504
0.0275173
0.0265382
0.0229183
0.026509
0.0267365
0.0269311
0.0271189
0.0275125
0.0279354
0.0282811
0.0293266
0.0286622
0.0292719
0.0265323
0.0268209
0.0270461
0.0273276
0.0278752
0.0285545
0.0293893
0.0312525
0.0319611
0.0389231
0.026739
0.0270751
0.0273212
0.0276716
0.0283226
0.0291767
0.030328
0.0326167
0.0347041
0.0450972
0.026661
0.0270276
0.0272863
0.027672
0.0283751
0.0292979
0.0304948
0.0326285
0.0347296
0.0414464
0.0268347
0.0271996
0.0274695
0.0278669
0.028562
0.0294283
0.0304429
0.0320999
0.0335318
0.0353661
0.0248778
0.0249476
0.0251597
0.0252528
0.0255272
0.0258564
0.025969
0.0260128
0.0254327
0.0240221
0.0249029
0.0250182
0.0252059
0.0252788
0.0254836
0.0256792
0.0254663
0.0248644
0.0242622
0.0202908
0.0249319
0.02504
0.0252024
0.0252614
0.0254413
0.0256211
0.0253931
0.0247615
0.0246947
0.0199319
0.0248881
0.0250358
0.0252008
0.0252933
0.0255089
0.0257048
0.0254622
0.0249893
0.02465
0.0192418
0.0249781
0.0251728
0.0253376
0.0254789
0.0257632
0.0260429
0.0259661
0.0261338
0.0253529
0.0211825
0.0250302
0.0252813
0.0254598
0.0256783
0.0260878
0.026559
0.0268763
0.0279701
0.0276693
0.0284852
0.0250325
0.0253395
0.025539
0.0258429
0.0263972
0.027118
0.0279637
0.0299965
0.0314311
0.0404581
0.0252041
0.0255522
0.0257652
0.0261294
0.0267759
0.0276643
0.0288697
0.0313877
0.0346358
0.0487656
0.0251237
0.0254997
0.0257194
0.0261125
0.0267977
0.0277338
0.0289634
0.0312205
0.0341405
0.043069
0.0252636
0.0256294
0.0258545
0.0262477
0.0269085
0.0277662
0.0287854
0.0305242
0.0327433
0.0362084
0.0234561
0.0235892
0.0238333
0.0240109
0.0243798
0.0248909
0.0252607
0.025453
0.0252475
0.0225118
0.0234618
0.0236317
0.0238432
0.0239949
0.0242849
0.0246719
0.0247894
0.0243159
0.0241017
0.0197408
0.0234567
0.0236115
0.023795
0.0239319
0.0242002
0.0245836
0.0247313
0.024234
0.0244941
0.0208469
0.0234007
0.0235872
0.0237633
0.0239209
0.0242048
0.0245685
0.0246103
0.0242208
0.0243805
0.0211495
0.0234475
0.0236678
0.0238279
0.0240127
0.0243366
0.0247367
0.0248132
0.0250425
0.0248773
0.0230985
0.0234641
0.023729
0.0238874
0.0241291
0.0245513
0.0251009
0.0254758
0.0265951
0.0269006
0.0304134
0.0234388
0.0237496
0.0239163
0.0242265
0.0247705
0.0255343
0.0263956
0.0283676
0.0303275
0.0420841
0.0235707
0.0239126
0.0240827
0.0244388
0.0250532
0.0259511
0.0271584
0.0295659
0.0333149
0.0499743
0.0234844
0.0238477
0.0240168
0.0243916
0.0250246
0.0259331
0.0271123
0.0291632
0.0321096
0.0419774
0.0235862
0.0239277
0.0240966
0.0244596
0.0250531
0.0258666
0.026835
0.0284309
0.0308765
0.0355468
0.0219572
0.022153
0.0224252
0.0226925
0.023171
0.0239053
0.0247194
0.0254645
0.0266792
0.0244297
0.0219373
0.0221589
0.0223896
0.022624
0.0230123
0.0236154
0.0242464
0.0243565
0.0252602
0.0217164
0.0219014
0.0220995
0.0223001
0.0225174
0.0228836
0.0234779
0.0241503
0.0242283
0.0250409
0.0224743
0.0218292
0.0220474
0.0222276
0.0224448
0.0227937
0.0233181
0.0237585
0.0237795
0.0242328
0.0227688
0.0218294
0.0220634
0.0222083
0.0224212
0.0227643
0.0232594
0.0235406
0.0239228
0.023947
0.0246217
0.0218062
0.0220676
0.0221924
0.0224309
0.0228245
0.0233944
0.023797
0.0247529
0.0249874
0.0310709
0.0217485
0.0220409
0.0221578
0.0224376
0.0229092
0.0236193
0.0243741
0.025845
0.0273393
0.0402718
0.0218389
0.0221487
0.0222571
0.0225623
0.0230715
0.0238581
0.024872
0.0266082
0.0294458
0.044777
0.0217443
0.0220672
0.022167
0.0224797
0.0229864
0.0237448
0.0246775
0.026082
0.0279982
0.0364007
0.0218085
0.0220934
0.0221897
0.0224817
0.0229432
0.0236164
0.0243969
0.0255465
0.0276419
0.0326704
0.0203697
0.0206174
0.0209019
0.0212478
0.0218315
0.0227933
0.0241893
0.025823
0.0297534
0.0321959
0.0203216
0.0205817
0.0208157
0.0211208
0.0216043
0.0224164
0.0236697
0.0248259
0.02834
0.0295152
0.0202607
0.0204893
0.0206921
0.0209758
0.0214352
0.0222193
0.0234588
0.0246188
0.0274013
0.0282727
0.0201711
0.0204051
0.0205724
0.0208271
0.0212215
0.021862
0.0226951
0.0235317
0.0250222
0.0256424
0.020125
0.0203527
0.0204636
0.0206727
0.020992
0.0215065
0.0219423
0.0226015
0.0226246
0.0246274
0.0200619
0.0202953
0.0203655
0.0205577
0.0208531
0.0213305
0.0216444
0.0222124
0.0213776
0.0274958
0.0199704
0.0202158
0.0202597
0.0204567
0.0207649
0.0212735
0.0217307
0.0222556
0.0220579
0.0334199
0.020019
0.0202655
0.0202886
0.0204865
0.0207922
0.0213039
0.0218839
0.0224498
0.0231073
0.0337447
0.0199159
0.0201651
0.0201731
0.0203678
0.0206543
0.0211158
0.0216039
0.0220214
0.0224673
0.0285669
0.0199381
0.0201376
0.020141
0.0203121
0.0205633
0.0209835
0.0214514
0.0219293
0.0234936
0.0294641
0.0186885
0.0189629
0.0192291
0.0196147
0.0202513
0.0213382
0.0232476
0.0255743
0.0321681
0.0475621
0.0186123
0.0188863
0.019096
0.019436
0.0199768
0.0209213
0.0227364
0.0249648
0.0317078
0.0478694
0.0185343
0.0187708
0.0189518
0.019268
0.0197886
0.0207068
0.0224433
0.0248306
0.0310384
0.0457256
0.0184287
0.0186543
0.0187851
0.0190388
0.0194373
0.0201316
0.0212616
0.0230479
0.0269961
0.0369036
0.01834
0.0185344
0.0185883
0.018749
0.0189844
0.0194212
0.0198778
0.0208232
0.0212627
0.0266982
0.0182398
0.018415
0.0184072
0.0185011
0.0186148
0.0188536
0.0189141
0.0188965
0.0163274
0.0216984
0.0181159
0.0182817
0.0182283
0.0182844
0.0183291
0.018465
0.0184477
0.0177188
0.0149028
0.0244605
0.0181254
0.0182759
0.0181903
0.0182223
0.0182231
0.0182971
0.0182692
0.0173898
0.0156164
0.0242571
0.0180138
0.0181605
0.0180556
0.0180777
0.018054
0.0180864
0.0180227
0.0172868
0.0163797
0.0243542
0.0179942
0.0180884
0.0179799
0.0179846
0.0179535
0.0180167
0.0181272
0.0177552
0.0186168
0.0303528
0.0169211
0.017186
0.0173895
0.017739
0.0183032
0.0192312
0.0212574
0.0237404
0.0282796
0.0548961
0.0168216
0.0170759
0.0172245
0.0175341
0.0180366
0.0189161
0.0210028
0.0240177
0.0308564
0.0649642
0.0167369
0.0169521
0.0170817
0.0173744
0.0178807
0.0188082
0.0208551
0.024289
0.0324165
0.0689641
0.0166207
0.0168098
0.0168801
0.0170836
0.0174233
0.0180871
0.0193942
0.022139
0.0286183
0.0583074
0.0164978
0.016632
0.0166114
0.0166812
0.0167751
0.0170468
0.0174367
0.0188838
0.0203455
0.0366849
0.0163687
0.0164592
0.0163603
0.0163172
0.0161881
0.0160725
0.0157931
0.0154804
0.0106989
0.016718
0.0162183
0.0162787
0.016118
0.0159976
0.0157173
0.0153557
0.0147981
0.0130682
0.00575731
0.0107793
0.0161932
0.0162253
0.0160239
0.015859
0.0155016
0.0150333
0.0143839
0.0122666
0.00617069
0.0123146
0.0160759
0.0161014
0.0158771
0.0156988
0.01532
0.0148323
0.014233
0.0125411
0.00818402
0.0186404
0.0160147
0.0159937
0.0157675
0.0155825
0.0152316
0.0148419
0.0145912
0.0135637
0.0111118
0.0287151
0.031651
0.0360106
0.0370784
0.0354798
0.0327877
0.0295987
0.0270888
0.0260833
0.0265384
0.0254917
0.0253353
0.0304728
0.0323636
0.0315708
0.0303944
0.0281966
0.0261946
0.0254768
0.0259597
0.0244982
0.0198338
0.025809
0.026556
0.0264545
0.0271143
0.0259136
0.0247462
0.024791
0.0256116
0.0247656
0.018607
0.0251232
0.0235381
0.0238338
0.0261628
0.0261938
0.0262991
0.0271893
0.0284453
0.0287281
0.0240579
0.0286064
0.0245085
0.0246422
0.0280327
0.0294684
0.0311217
0.0331787
0.0345126
0.0349935
0.0330977
0.0340777
0.0280107
0.0273303
0.0307216
0.0328303
0.0349614
0.0375528
0.0392814
0.0397698
0.0416303
0.0395095
0.0323108
0.0301583
0.0323759
0.0342731
0.0358354
0.0380938
0.0405988
0.0414957
0.0469683
0.0431301
0.0356675
0.0322858
0.0330054
0.0345023
0.035616
0.0371449
0.0399144
0.0410385
0.0477202
0.0435078
0.0366739
0.0329878
0.0329274
0.0343492
0.0356388
0.0370862
0.0394424
0.0399447
0.0437287
0.0431173
0.0385764
0.0347362
0.0341991
0.0354083
0.0366216
0.0381888
0.0399136
0.0394399
0.0312949
0.0333403
0.0330517
0.0317676
0.0302436
0.0281408
0.0264078
0.0261819
0.0272377
0.0289835
0.0263058
0.0271976
0.026739
0.025387
0.0241299
0.0229538
0.0227335
0.0238967
0.0257628
0.0270852
0.0249747
0.0239055
0.0221632
0.0204332
0.019574
0.0194239
0.0200611
0.0217727
0.0239017
0.0241572
0.0276127
0.0230447
0.0203184
0.0189307
0.019277
0.020586
0.0216864
0.023141
0.0251501
0.0255069
0.0322632
0.0246459
0.021577
0.0210767
0.0225579
0.0249506
0.0268818
0.0282044
0.0297513
0.0306492
0.0364836
0.0277992
0.0245182
0.0245835
0.0266078
0.0290943
0.0312186
0.0324485
0.0339379
0.0348512
0.0408294
0.0316325
0.0274882
0.0270756
0.0287936
0.0309062
0.0323426
0.033099
0.0352441
0.0367215
0.0427147
0.0342945
0.0296225
0.0284446
0.0293873
0.0311008
0.0320342
0.0325339
0.0352267
0.0370672
0.0407614
0.0340667
0.0301938
0.0288274
0.0292908
0.0309424
0.032197
0.0330579
0.0359005
0.0373559
0.03874
0.0360788
0.032575
0.0304649
0.0309255
0.0329868
0.0345689
0.0358389
0.0379389
0.0383879
0.0303798
0.0307653
0.0299405
0.0291677
0.0278175
0.0261236
0.0254041
0.0263067
0.0280821
0.0297098
0.0257199
0.0250886
0.0242811
0.0232244
0.0211179
0.0196302
0.0203111
0.0228477
0.025768
0.0273432
0.0248803
0.0223936
0.0207843
0.0191049
0.0169371
0.0161883
0.0175563
0.0204191
0.0231424
0.0226079
0.024945
0.0213484
0.0193848
0.0180192
0.0169807
0.0174276
0.0187575
0.020827
0.0231394
0.0225164
0.0257758
0.0220402
0.0210433
0.0207004
0.0206614
0.0221244
0.0237053
0.0245686
0.0259383
0.0261021
0.0291251
0.0249213
0.0246375
0.0252682
0.0255905
0.0267539
0.0278664
0.027838
0.0288016
0.0293143
0.0336954
0.0284131
0.0271558
0.0275997
0.0281775
0.0288113
0.0291362
0.0285947
0.0298938
0.0309597
0.0361035
0.0306337
0.0281668
0.0279358
0.0283738
0.0289739
0.0289772
0.0284194
0.0301796
0.0316491
0.0346784
0.0305202
0.0285212
0.0281394
0.0286749
0.0296182
0.0296401
0.0291107
0.0311114
0.0321711
0.0343179
0.0323983
0.0304756
0.0297118
0.0301902
0.0311064
0.0314029
0.031634
0.0335368
0.0338272
0.0279112
0.0275747
0.0268198
0.0265431
0.0258928
0.0255207
0.0261752
0.0274953
0.0287995
0.0293609
0.0229684
0.0223715
0.0213351
0.0204429
0.0192116
0.0194106
0.0215069
0.0242812
0.0268396
0.0280555
0.0196784
0.0191143
0.0174092
0.0156097
0.0141276
0.0146002
0.0174648
0.021157
0.0239241
0.0227621
0.016992
0.0175823
0.0154667
0.0140773
0.0138374
0.0150149
0.0174006
0.0198448
0.0219691
0.0202745
0.0170892
0.0184488
0.0170305
0.0167507
0.0176231
0.0193708
0.0210615
0.0214216
0.0224522
0.0220085
0.0217699
0.0222953
0.021971
0.0227786
0.0232376
0.0241094
0.0244032
0.023399
0.0239204
0.0242438
0.0290253
0.0269868
0.0261736
0.026962
0.0271163
0.0269783
0.0262424
0.0246034
0.0249023
0.0255508
0.0336219
0.0293124
0.0271382
0.0271344
0.0272594
0.0272731
0.0265369
0.0249452
0.0255092
0.0263406
0.0334175
0.029521
0.0274726
0.0272338
0.0276716
0.0280584
0.0273414
0.0257306
0.0264341
0.0267827
0.0329885
0.0310115
0.0295922
0.0292538
0.0293704
0.0292634
0.0284965
0.0276343
0.0285971
0.0283893
0.0247765
0.0240992
0.0239437
0.0245336
0.025534
0.0269445
0.0282997
0.0291379
0.0296406
0.0296187
0.0203679
0.0198092
0.019054
0.0186352
0.0190624
0.0210276
0.0241402
0.0265985
0.0285313
0.0297731
0.0163106
0.0164037
0.0149851
0.0133515
0.0129808
0.0148337
0.01859
0.0219687
0.0245518
0.0241021
0.0133324
0.0142883
0.0125331
0.0114946
0.012104
0.0141709
0.0170128
0.0189317
0.0202618
0.0186029
0.0133081
0.0145846
0.0132605
0.01372
0.0156524
0.0178291
0.0190931
0.0185251
0.0189779
0.0186303
0.0181904
0.0183076
0.0180127
0.0192008
0.0205914
0.0214152
0.0209729
0.0194209
0.019607
0.0200531
0.0273371
0.0247766
0.023961
0.0247145
0.024833
0.0242872
0.0229103
0.0209562
0.0206916
0.0211273
0.034142
0.0288064
0.0264815
0.0261394
0.0255186
0.0248476
0.0239282
0.0219536
0.0216761
0.0221062
0.0337235
0.0294418
0.0270728
0.0259649
0.0254029
0.0247691
0.0241769
0.0226108
0.0226008
0.0227516
0.0328134
0.0304269
0.0291545
0.028243
0.0272348
0.0260796
0.025022
0.024142
0.0245935
0.0245795
0.0228011
0.0222313
0.0224102
0.0231726
0.0247339
0.0268619
0.0287361
0.0293359
0.0288914
0.027709
0.0191053
0.0188968
0.018599
0.0185404
0.0193276
0.0211194
0.0237647
0.0259017
0.0274335
0.0281745
0.0159838
0.0160702
0.0149792
0.0136554
0.0133334
0.014969
0.0183736
0.021083
0.0226879
0.0225704
0.0140015
0.013974
0.0123711
0.0116189
0.0124975
0.0148421
0.0174043
0.0180142
0.0177437
0.0158244
0.0138221
0.0138266
0.0123476
0.0131809
0.0156016
0.0177028
0.0178112
0.0163023
0.0160523
0.0154623
0.0183087
0.0167638
0.015935
0.0175006
0.0192698
0.0193945
0.0180724
0.0165195
0.0166015
0.0167949
0.0273298
0.0232704
0.0219235
0.0226944
0.0225305
0.0213304
0.0196279
0.0180166
0.0178207
0.0180809
0.0343108
0.0283501
0.0256919
0.0253592
0.0242164
0.0225327
0.0211224
0.0193024
0.018815
0.0191709
0.03239
0.0286952
0.0263793
0.0247039
0.0237379
0.0222877
0.0211735
0.0198701
0.01969
0.0198305
0.0314052
0.0292184
0.028363
0.026756
0.0250385
0.023034
0.0216619
0.0211804
0.0216171
0.0218583
0.0232352
0.022321
0.0219883
0.0219407
0.0228844
0.0250825
0.0281228
0.0283151
0.0250322
0.0204297
0.0193521
0.0193851
0.0193552
0.0187828
0.0181864
0.0190764
0.0226297
0.0242883
0.0229224
0.0206584
0.0160183
0.0169911
0.0166533
0.0154639
0.0146059
0.0158764
0.019196
0.0199924
0.0188065
0.0167495
0.0140498
0.014954
0.0142747
0.0138967
0.0149825
0.0167272
0.0187486
0.0174011
0.0150429
0.0119243
0.0142138
0.0142233
0.0130914
0.0144371
0.017309
0.0184487
0.0173574
0.0152023
0.0143963
0.0128616
0.0186447
0.01673
0.0158414
0.0179328
0.0195446
0.0184021
0.016172
0.0149935
0.0153234
0.0150574
0.0264293
0.0224826
0.0213144
0.0224772
0.0217213
0.0194323
0.0174822
0.0163426
0.0164142
0.0167213
0.0308952
0.0268841
0.0250924
0.0251678
0.0234915
0.0209966
0.0191298
0.0176949
0.0174138
0.017668
0.0275087
0.0262036
0.0255877
0.0244193
0.0232349
0.021019
0.0191323
0.0181611
0.0181782
0.0179799
0.0278564
0.02682
0.026945
0.025997
0.0244739
0.0216334
0.0194805
0.0192285
0.0199529
0.0198293
0.0291478
0.0249535
0.0225895
0.02192
0.0228269
0.0267905
0.0318894
0.0295692
0.0199973
0.0108694
0.024711
0.0215443
0.0207908
0.0200381
0.0190251
0.0212004
0.02642
0.0247833
0.0170847
0.0106905
0.0185034
0.0182223
0.0190647
0.0189071
0.0183264
0.0202044
0.0222851
0.0187503
0.0140796
0.00993501
0.0138104
0.0153471
0.0171559
0.017787
0.0191488
0.0204187
0.0199367
0.0158013
0.0129311
0.0093302
0.0128445
0.0142031
0.015109
0.0173307
0.0206105
0.0207275
0.0174474
0.0143786
0.0143928
0.0121003
0.0162951
0.0160723
0.0169342
0.0201037
0.022092
0.0194652
0.0158448
0.0146833
0.0162108
0.0155785
0.0223603
0.0207665
0.0220919
0.024915
0.0239826
0.0197107
0.0170992
0.0161072
0.0174727
0.0176069
0.0238286
0.0241089
0.0260071
0.0277391
0.0256072
0.0211572
0.0182177
0.0170373
0.0183503
0.0184539
0.0209764
0.023054
0.0265049
0.0273765
0.0255575
0.0211723
0.0179041
0.0171593
0.0188673
0.0184591
0.0239159
0.0244375
0.0261651
0.0280581
0.0271542
0.0224156
0.0186436
0.0185002
0.0206178
0.020015
0.0498535
0.0322019
0.0211808
0.0222376
0.0285131
0.0363147
0.0414239
0.0352881
0.0219077
0.0156448
0.0504742
0.0307317
0.0212911
0.0203683
0.0237535
0.0309037
0.0366
0.0297227
0.0179767
0.0154375
0.0419035
0.0261237
0.021328
0.021796
0.0256384
0.0311616
0.0297595
0.0186005
0.0136284
0.0196876
0.0267662
0.0195655
0.0192666
0.0224151
0.0278684
0.0298247
0.0223279
0.0110291
0.0120681
0.0223127
0.01646
0.0159348
0.0182386
0.0238147
0.0288622
0.0267171
0.0172521
0.00961422
0.0134899
0.0220613
0.0150588
0.0165313
0.0205778
0.0264562
0.0291511
0.0244322
0.0157831
0.0113586
0.0163139
0.0221551
0.0191751
0.0201917
0.0253938
0.0305372
0.0305599
0.0242656
0.0164131
0.0132689
0.019018
0.0230483
0.020428
0.0239343
0.0296012
0.0327823
0.0313556
0.0243321
0.0168963
0.0146387
0.0205337
0.023474
0.0200548
0.0238684
0.0301052
0.0330607
0.0311085
0.0238634
0.0165268
0.0154311
0.0207354
0.0230337
0.0276284
0.0252439
0.0279533
0.0326581
0.032468
0.025994
0.0184335
0.0174846
0.0220593
0.0248295
0.0975201
0.0563734
0.0275851
0.0282568
0.0376144
0.0445266
0.0463098
0.0409191
0.0450637
0.0818424
0.120049
0.06548
0.0313787
0.0296461
0.0376674
0.0441957
0.04501
0.0379995
0.0438247
0.0935668
0.115184
0.063469
0.034822
0.0353472
0.0433729
0.0471982
0.0421485
0.0298809
0.0431335
0.113342
0.0879153
0.0500009
0.0347144
0.0397616
0.0469593
0.0475643
0.0371352
0.0202817
0.0396249
0.120084
0.0548596
0.0371879
0.0343637
0.0413122
0.0464955
0.0455393
0.0324386
0.0145912
0.0341029
0.108669
0.0322782
0.0306324
0.034267
0.0402661
0.0439708
0.0424764
0.0287738
0.0128375
0.0314547
0.0925869
0.0256962
0.0292145
0.0335591