/*--------------------------------*- C++ -*----------------------------------*\
  =========                 |
  \\      /  F ield         | OpenFOAM: The Open Source CFD Toolbox
   \\    /   O peration     | Website:  https://openfoam.org
    \\  /    A nd           | Version:  6
     \\/     M anipulation  |
\*---------------------------------------------------------------------------*/
FoamFile
{
    version     2.0;
    format      ascii;
    class       surfaceScalarField;
    location    "200";
    object      phi;
}
// * * * * * * * * * * * * * * * * * * * * * * * * * * * * * * * * * * * * * //

dimensions      [0 3 -1 0 0 0 0];

internalField   nonuniform List<scalar> 
19500
(
1.55795e-07
1.54467e-07
9.96902e-05
1.65189e-08
1.54356e-07
9.99854e-05
1.05124e-08
1.54217e-07
9.98523e-05
4.94184e-09
1.53974e-07
9.98521e-05
-1.4569e-09
1.53693e-07
9.98532e-05
-7.68905e-09
1.53381e-07
9.98533e-05
-1.27334e-08
1.53072e-07
9.98524e-05
-1.78465e-08
1.52819e-07
9.98527e-05
-1.57469e-07
1.52558e-07
9.99875e-05
1.52142e-07
9.96907e-05
1.55684e-07
1.60235e-08
9.99832e-05
1.63203e-08
1.58293e-08
0.000100278
1.03095e-08
1.5716e-08
0.000100145
4.68691e-09
1.55824e-08
0.000100145
-1.73802e-09
1.54192e-08
0.000100145
-7.96951e-09
1.52418e-08
0.000100145
-1.29742e-08
1.50629e-08
0.000100143
-1.79664e-08
1.48881e-08
0.000100143
-1.57897e-07
1.47238e-08
0.000100278
1.45623e-08
9.99801e-05
1.55547e-07
9.83768e-09
9.98511e-05
1.62066e-08
9.64433e-09
0.000100146
1.01501e-08
9.4822e-09
0.000100013
4.50216e-09
9.27882e-09
0.000100012
-1.94389e-09
9.0283e-09
0.000100013
-8.18423e-09
8.74955e-09
0.000100013
-1.31672e-08
8.46256e-09
0.000100012
-1.81238e-08
8.18438e-09
0.000100012
-1.58226e-07
7.91643e-09
0.000100147
7.56991e-09
9.98492e-05
1.55308e-07
4.08783e-09
9.98509e-05
1.60695e-08
3.84677e-09
0.000100146
9.94652e-09
3.65285e-09
0.000100012
4.25111e-09
3.39666e-09
0.000100012
-2.22658e-09
3.0734e-09
0.000100013
-8.48228e-09
2.70476e-09
0.000100013
-1.34499e-08
2.31718e-09
0.000100012
-1.83564e-08
1.93937e-09
0.000100012
-1.58635e-07
1.57333e-09
0.000100147
1.11498e-09
9.98482e-05
1.55027e-07
-2.43549e-09
9.9852e-05
1.5899e-08
-2.69853e-09
0.000100146
9.69071e-09
-2.91548e-09
0.000100013
3.92747e-09
-3.20142e-09
0.000100013
-2.5978e-09
-3.5673e-09
0.000100014
-8.87862e-09
-3.99073e-09
0.000100013
-1.38289e-08
-4.44126e-09
0.000100012
-1.86638e-08
-4.88057e-09
0.000100012
-1.59198e-07
-5.29756e-09
0.000100148
-5.81815e-09
9.98481e-05
1.54714e-07
-8.71394e-09
9.9852e-05
1.57138e-08
-8.9726e-09
0.000100146
9.40801e-09
-9.18868e-09
0.000100013
3.56272e-09
-9.47333e-09
0.000100013
-3.02187e-09
-9.84167e-09
0.000100013
-9.33486e-09
-1.02726e-08
0.000100013
-1.4267e-08
-1.07343e-08
0.000100012
-1.90173e-08
-1.11826e-08
0.000100011
-1.59841e-07
-1.16015e-08
0.000100147
-1.21174e-08
9.98468e-05
1.54406e-07
-1.37049e-08
9.98511e-05
1.55341e-08
-1.39283e-08
0.000100144
9.12946e-09
-1.41056e-08
0.000100012
3.19757e-09
-1.43494e-08
0.000100011
-3.45066e-09
-1.46698e-08
0.000100012
-9.79756e-09
-1.5049e-08
0.000100012
-1.47105e-08
-1.54577e-08
0.00010001
-1.93725e-08
-1.58515e-08
0.00010001
-1.60491e-07
-1.62208e-08
0.000100146
-1.66612e-08
9.98444e-05
1.54154e-07
-1.87084e-08
9.98513e-05
1.5379e-08
-1.87982e-08
0.000100144
8.88805e-09
-1.89191e-08
0.000100012
2.87675e-09
-1.90906e-08
0.000100011
-3.82995e-09
-1.93159e-08
0.000100012
-1.02066e-08
-1.95848e-08
0.000100011
-1.51003e-08
-1.98761e-08
0.00010001
-1.96772e-08
-2.01544e-08
0.000100009
-1.61078e-07
-2.04102e-08
0.000100146
-2.07738e-08
9.98433e-05
1.53907e-07
-1.59099e-07
9.99869e-05
1.52576e-08
-1.59462e-07
0.00010028
8.69258e-09
-1.59732e-07
0.000100148
2.60912e-09
-1.60038e-07
0.000100147
-4.14321e-09
-1.60444e-07
0.000100148
-1.05403e-08
-1.60903e-07
0.000100148
-1.54222e-08
-1.61378e-07
0.000100147
-1.99265e-08
-1.61838e-07
0.000100147
-1.61501e-07
-1.622e-07
0.000100284
-1.62635e-07
9.99806e-05
1.53559e-07
9.96877e-05
1.51701e-08
9.99793e-05
8.45159e-09
9.98474e-05
2.29893e-09
9.98465e-05
-4.4986e-09
9.98467e-05
-1.0908e-08
9.98458e-05
-1.57543e-08
9.98438e-05
-2.02428e-08
9.98429e-05
-1.61941e-07
9.99798e-05
9.96757e-05
2.21241e-07
2.20183e-07
9.92506e-05
6.7195e-08
2.20059e-07
9.99213e-05
3.85025e-08
2.19679e-07
9.96633e-05
1.24869e-08
2.1946e-07
9.96606e-05
-7.46581e-09
2.19158e-07
9.9656e-05
-2.67364e-08
2.18848e-07
9.96557e-05
-5.07412e-08
2.18581e-07
9.96598e-05
-7.61552e-08
2.18378e-07
9.96616e-05
-2.28234e-07
2.1855e-07
9.99228e-05
2.18098e-07
9.92459e-05
2.21086e-07
6.84511e-08
9.99158e-05
6.69835e-08
6.82688e-08
0.000100586
3.81517e-08
6.81165e-08
0.000100327
1.20401e-08
6.79141e-08
0.000100324
-7.91899e-09
6.77069e-08
0.000100319
-2.71331e-08
6.7509e-08
0.000100317
-5.10827e-08
6.73356e-08
0.000100321
-7.638e-08
6.72239e-08
0.000100322
-2.2865e-07
6.71286e-08
0.000100584
6.67938e-08
9.9904e-05
2.2067e-07
4.02854e-08
9.96605e-05
6.68165e-08
3.99347e-08
0.00010033
3.79774e-08
3.97323e-08
0.000100072
1.18493e-08
3.94033e-08
0.000100069
-8.11227e-09
3.902e-08
0.000100064
-2.7312e-08
3.86169e-08
0.000100063
-5.12356e-08
3.82185e-08
0.000100067
-7.646e-08
3.78838e-08
0.000100068
-2.28577e-07
3.75794e-08
0.000100331
3.69302e-08
9.96516e-05
2.20371e-07
1.46669e-08
9.96581e-05
6.65646e-08
1.41691e-08
0.000100327
3.7646e-08
1.38859e-08
0.000100069
1.14773e-08
1.34466e-08
0.000100066
-8.49918e-09
1.29028e-08
0.000100061
-2.76909e-08
1.23007e-08
0.00010006
-5.15743e-08
1.16758e-08
0.000100064
-7.6722e-08
1.11062e-08
0.000100065
-2.29067e-07
1.06179e-08
0.000100328
9.65124e-09
9.96475e-05
2.19915e-07
-5.05591e-09
9.96537e-05
6.62429e-08
-5.63014e-09
0.000100322
3.71889e-08
-5.98331e-09
0.000100064
1.0929e-08
-6.51033e-09
0.000100061
-9.10265e-09
-7.18208e-09
0.000100056
-2.83138e-08
-7.94814e-09
0.000100055
-5.21669e-08
-8.7635e-09
0.000100058
-7.72079e-08
-9.52852e-09
0.000100059
-2.29856e-07
-1.01708e-08
0.000100323
-1.14158e-08
9.96403e-05
2.19371e-07
-2.43072e-08
9.96538e-05
6.58652e-08
-2.49042e-08
0.00010032
3.66414e-08
-2.52924e-08
0.000100064
1.02515e-08
-2.58576e-08
0.00010006
-9.87109e-09
-2.65927e-08
0.000100055
-2.91284e-08
-2.74477e-08
0.000100053
-5.29579e-08
-2.83693e-08
0.000100057
-7.78636e-08
-2.92443e-08
0.000100057
-2.30907e-07
-2.99627e-08
0.000100322
-3.13475e-08
9.96368e-05
2.18793e-07
-4.85241e-08
9.96583e-05
6.54675e-08
-4.91072e-08
0.000100324
3.60568e-08
-4.9476e-08
0.000100067
9.5113e-09
-5.00031e-08
0.000100064
-1.07278e-08
-5.07077e-08
0.000100058
-3.00494e-08
-5.15395e-08
0.000100057
-5.38577e-08
-5.24423e-08
0.000100059
-7.86043e-08
-5.33044e-08
0.00010006
-2.32108e-07
-5.39945e-08
0.000100325
-5.52858e-08
9.96371e-05
2.1823e-07
-7.44035e-08
9.96608e-05
6.51245e-08
-7.48971e-08
0.000100325
3.55272e-08
-7.51522e-08
0.000100069
8.81968e-09
-7.55614e-08
0.000100065
-1.15419e-08
-7.61304e-08
0.000100059
-3.09323e-08
-7.68091e-08
0.000100057
-5.47208e-08
-7.75481e-08
0.00010006
-7.9321e-08
-7.82566e-08
0.00010006
-2.33228e-07
-7.88277e-08
0.000100326
-7.98506e-08
9.96355e-05
2.18049e-07
-2.28509e-07
9.99247e-05
6.48693e-08
-2.29329e-07
0.000100589
3.50911e-08
-2.29594e-07
0.000100334
8.26444e-09
-2.30341e-07
0.000100331
-1.21845e-08
-2.3124e-07
0.000100325
-3.16209e-08
-2.32256e-07
0.000100324
-5.53783e-08
-2.33315e-07
0.000100328
-7.98757e-08
-2.34276e-07
0.000100328
-2.34377e-07
-2.3535e-07
0.000100596
-2.36616e-07
9.99039e-05
2.17206e-07
9.92431e-05
6.42967e-08
9.9904e-05
3.43187e-08
9.96489e-05
7.33119e-09
9.96442e-05
-1.32562e-08
9.96371e-05
-3.27434e-08
9.9634e-05
-5.64153e-08
9.9635e-05
-8.07407e-08
9.96338e-05
-2.35634e-07
9.99001e-05
9.92038e-05
2.49118e-07
2.46215e-07
9.87572e-05
8.74649e-08
2.45981e-07
9.98389e-05
5.34945e-08
2.4496e-07
9.94542e-05
1.89792e-08
2.44581e-07
9.94525e-05
-9.62888e-09
2.43946e-07
9.94426e-05
-3.73851e-08
2.43346e-07
9.94421e-05
-6.94845e-08
2.42862e-07
9.94508e-05
-9.92789e-08
2.4241e-07
9.94506e-05
-2.58876e-07
2.43194e-07
9.98412e-05
2.42184e-07
9.87459e-05
2.48846e-07
8.70682e-08
9.9828e-05
8.72324e-08
8.68388e-08
0.000100909
5.28204e-08
8.64348e-08
0.000100522
1.81269e-08
8.59285e-08
0.000100519
-1.05202e-08
8.54085e-08
0.000100508
-3.82018e-08
8.48905e-08
0.000100505
-7.01288e-08
8.44197e-08
0.000100513
-9.9918e-08
8.41156e-08
0.000100511
-2.59753e-07
8.41318e-08
0.000100904
8.31483e-08
9.98046e-05
2.47767e-07
5.31325e-08
9.94486e-05
8.68112e-08
5.23941e-08
0.000100528
5.24438e-08
5.19585e-08
0.000100143
1.76975e-08
5.1196e-08
0.00010014
-1.09396e-08
5.03148e-08
0.00010013
-3.85625e-08
4.93789e-08
0.000100128
-7.04023e-08
4.8462e-08
0.000100136
-9.99265e-08
4.77052e-08
0.000100136
-2.59262e-07
4.72437e-08
0.000100529
4.58292e-08
9.9431e-05
2.47254e-07
1.86932e-08
9.94472e-05
8.6224e-08
1.7671e-08
0.000100525
5.16779e-08
1.70697e-08
0.000100141
1.68183e-08
1.60788e-08
0.000100138
-1.18582e-08
1.48652e-08
0.000100127
-3.94406e-08
1.35236e-08
0.000100125
-7.11513e-08
1.21455e-08
0.000100133
-1.00442e-07
1.09029e-08
0.000100133
-2.60328e-07
1.00619e-08
0.000100527
7.96252e-09
9.94262e-05
2.46349e-07
-9.71023e-09
9.94377e-05
8.5513e-08
-1.09071e-08
0.000100513
5.06727e-08
-1.16238e-08
0.00010013
1.55965e-08
-1.27807e-08
0.000100127
-1.3205e-08
-1.42439e-08
0.000100115
-4.08112e-08
-1.59068e-08
0.000100113
-7.2416e-08
-1.76636e-08
0.000100121
-1.01454e-07
-1.93121e-08
0.00010012
-2.61894e-07
-2.0499e-08
0.000100515
-2.32019e-08
9.94107e-05
2.45328e-07
-3.72123e-08
9.94379e-05
8.46859e-08
-3.8468e-08
0.000100511
4.94888e-08
-3.92268e-08
0.000100128
1.4125e-08
-4.04363e-08
0.000100125
-1.48727e-08
-4.2001e-08
0.000100113
-4.25612e-08
-4.38121e-08
0.000100111
-7.40794e-08
-4.57579e-08
0.000100118
-1.02826e-07
-4.76169e-08
0.000100116
-2.64073e-07
-4.90179e-08
0.000100513
-5.19745e-08
9.94025e-05
2.44288e-07
-6.89928e-08
9.94477e-05
8.38197e-08
-7.01953e-08
0.000100518
4.82406e-08
-7.09123e-08
0.000100136
1.25476e-08
-7.20189e-08
0.000100133
-1.66937e-08
-7.34883e-08
0.00010012
-4.45064e-08
-7.52089e-08
0.000100117
-7.59557e-08
-7.70704e-08
0.000100123
-1.04399e-07
-7.88755e-08
0.000100121
-2.66591e-07
-8.02301e-08
0.00010052
-8.29847e-08
9.94024e-05
2.43169e-07
-9.87237e-08
9.94491e-05
8.30873e-08
-9.9921e-08
0.000100517
4.71256e-08
-1.00351e-07
0.000100136
1.10941e-08
-1.01199e-07
0.000100132
-1.84041e-08
-1.02379e-07
0.000100119
-4.63544e-08
-1.03768e-07
0.000100115
-7.77666e-08
-1.05267e-07
0.000100121
-1.05942e-07
-1.06739e-07
0.000100117
-2.68839e-07
-1.07987e-07
0.000100518
-1.09898e-07
9.93944e-05
2.43205e-07
-2.60962e-07
9.98455e-05
8.26606e-08
-2.62492e-07
0.000100914
4.62941e-08
-2.62598e-07
0.000100534
1.0042e-08
-2.64022e-07
0.000100532
-1.96396e-08
-2.6561e-07
0.00010052
-4.76924e-08
-2.67464e-07
0.000100518
-7.90514e-08
-2.69465e-07
0.000100524
-1.07171e-07
-2.71214e-07
0.000100522
-2.71378e-07
-2.73513e-07
0.000100927
-2.75884e-07
9.97992e-05
2.41604e-07
9.87417e-05
8.13123e-08
9.9803e-05
4.47333e-08
9.9424e-05
8.14949e-09
9.94179e-05
-2.17856e-08
9.94024e-05
-4.99357e-08
9.93956e-05
-8.11798e-08
9.93976e-05
-1.08734e-07
9.93909e-05
-2.73755e-07
9.97923e-05
9.86545e-05
2.65601e-07
2.60381e-07
9.82331e-05
9.7027e-08
2.59995e-07
9.97494e-05
5.83228e-08
2.58265e-07
9.92365e-05
2.03228e-08
2.57695e-07
9.92345e-05
-1.27422e-08
2.56615e-07
9.92207e-05
-4.47783e-08
2.55706e-07
9.922e-05
-7.97477e-08
2.55131e-07
9.92322e-05
-1.13051e-07
2.54498e-07
9.92312e-05
-2.78968e-07
2.56169e-07
9.97527e-05
2.55038e-07
9.8214e-05
2.65155e-07
9.50313e-08
9.97301e-05
9.66848e-08
9.46688e-08
0.000101245
5.71918e-08
9.39385e-08
0.000100728
1.89451e-08
9.30469e-08
0.000100724
-1.42112e-08
9.21419e-08
0.000100707
-4.61011e-08
9.12406e-08
0.000100703
-8.07374e-08
9.04353e-08
0.000100714
-1.14027e-07
8.99671e-08
0.000100711
-2.79873e-07
9.01928e-08
0.000101238
8.86399e-08
9.96928e-05
2.63338e-07
5.59084e-08
9.92264e-05
9.59373e-08
5.46291e-08
0.000100737
5.65688e-08
5.3886e-08
0.000100224
1.82438e-08
5.25563e-08
0.000100221
-1.48438e-08
5.10343e-08
0.000100206
-4.65614e-08
4.94169e-08
0.000100203
-8.10127e-08
4.78358e-08
0.000100215
-1.13824e-07
4.65727e-08
0.000100214
-2.78628e-07
4.59658e-08
0.000100739
4.35194e-08
9.9199e-05
2.62534e-07
1.77332e-08
9.92248e-05
9.49111e-08
1.6016e-08
0.000100733
5.52309e-08
1.49955e-08
0.000100221
1.6694e-08
1.32642e-08
0.000100218
-1.64627e-08
1.11586e-08
0.000100202
-4.80897e-08
8.81917e-09
0.000100199
-8.22719e-08
6.40719e-09
0.00010021
-1.14712e-07
4.23529e-09
0.000100209
-2.8037e-07
2.92538e-09
0.000100737
-1.02231e-09
9.91917e-05
2.60978e-07
-1.5059e-08
9.92114e-05
9.36846e-08
-1.71138e-08
0.000100715
5.34997e-08
-1.82909e-08
0.000100205
1.45721e-08
-2.03047e-08
0.000100201
-1.88188e-08
-2.28477e-08
0.000100184
-5.04857e-08
-2.57625e-08
0.000100181
-8.44715e-08
-2.88709e-08
0.000100192
-1.16503e-07
-3.18291e-08
0.000100189
-2.83074e-07
-3.39058e-08
0.00010072
-3.90217e-08
9.91666e-05
2.59315e-07
-4.6455e-08
9.92119e-05
9.22564e-08
-4.86453e-08
0.000100711
5.14599e-08
-4.98555e-08
0.000100202
1.20148e-08
-5.19483e-08
0.000100198
-2.17476e-08
-5.466e-08
0.00010018
-5.35792e-08
-5.78329e-08
0.000100176
-8.74352e-08
-6.12837e-08
0.000100185
-1.19032e-07
-6.4673e-08
0.000100181
-2.87102e-07
-6.72219e-08
0.000100716
-7.28529e-08
9.915e-05
2.57704e-07
-8.05343e-08
9.9226e-05
9.07597e-08
-8.25739e-08
0.000100721
4.93109e-08
-8.37144e-08
0.000100214
9.27729e-09
-8.56197e-08
0.000100208
-2.49451e-08
-8.81515e-08
0.00010019
-5.70307e-08
-9.1145e-08
0.000100184
-9.08243e-08
-9.44313e-08
0.000100192
-1.2196e-07
-9.77187e-08
0.000100186
-2.91937e-07
-1.00225e-07
0.000100724
-1.05467e-07
9.91437e-05
2.55831e-07
-1.13332e-07
9.9228e-05
8.94903e-08
-1.1542e-07
0.000100718
4.73883e-08
-1.16056e-07
0.000100212
6.75203e-09
-1.17518e-07
0.000100206
-2.79531e-08
-1.19551e-07
0.000100187
-6.03297e-08
-1.2196e-07
0.00010018
-9.41144e-08
-1.24592e-07
0.000100186
-1.24886e-07
-1.27288e-07
0.000100179
-2.96138e-07
-1.29573e-07
0.00010072
-1.33213e-07
9.91266e-05
2.56054e-07
-2.82796e-07
9.97607e-05
8.88688e-08
-2.8528e-07
0.000101253
4.60656e-08
-2.85303e-07
0.000100748
5.04843e-09
-2.87654e-07
0.000100744
-3.00285e-08
-2.90144e-07
0.000100727
-6.26601e-08
-2.93189e-07
0.000100723
-9.64216e-08
-2.96625e-07
0.000100731
-1.27174e-07
-2.99568e-07
0.000100726
-3.00852e-07
-3.0365e-07
0.000101276
-3.07669e-07
9.96734e-05
2.53408e-07
9.82067e-05
8.65251e-08
9.96858e-05
4.34394e-08
9.9183e-05
1.80464e-09
9.9173e-05
-3.36825e-08
9.91488e-05
-6.64998e-08
9.91362e-05
-1.0014e-07
9.91355e-05
-1.29999e-07
9.91219e-05
-3.04875e-07
9.96643e-05
9.80422e-05
2.77877e-07
2.69827e-07
9.76871e-05
1.04449e-07
2.69203e-07
9.96554e-05
6.08777e-08
2.66771e-07
9.9015e-05
2.00871e-08
2.65977e-07
9.90109e-05
-1.64597e-08
2.644e-07
9.89942e-05
-5.17577e-08
2.63261e-07
9.89933e-05
-8.90213e-08
2.62825e-07
9.90079e-05
-1.26124e-07
2.62335e-07
9.90072e-05
-2.95679e-07
2.65627e-07
9.96591e-05
2.64977e-07
9.76549e-05
2.77151e-07
1.00561e-07
9.96241e-05
1.03876e-07
9.99204e-08
0.000101589
5.917e-08
9.88405e-08
0.000100942
1.81127e-08
9.7482e-08
0.000100935
-1.8517e-08
9.61115e-08
0.000100913
-5.35354e-08
9.47834e-08
0.000100908
-9.00221e-08
9.36815e-08
0.00010092
-1.26938e-07
9.30993e-08
0.000100918
-2.95866e-07
9.39605e-08
0.000101581
9.19594e-08
9.95721e-05
2.74582e-07
5.60375e-08
9.89982e-05
1.02784e-07
5.40163e-08
0.000100957
5.82815e-08
5.28935e-08
0.000100316
1.71315e-08
5.08257e-08
0.000100311
-1.93104e-08
4.84686e-08
0.000100291
-5.39664e-08
4.59727e-08
0.000100288
-9.00976e-08
4.35884e-08
0.000100302
-1.26202e-07
4.16656e-08
0.000100302
-2.9334e-07
4.12117e-08
0.000100961
3.74482e-08
9.89622e-05
2.73365e-07
1.48155e-08
9.89946e-05
1.01192e-07
1.2168e-08
0.000100949
5.61944e-08
1.0601e-08
0.00010031
1.46935e-08
7.86466e-09
0.000100304
-2.18486e-08
4.53735e-09
0.000100284
-5.63154e-08
8.17066e-10
0.00010028
-9.1983e-08
-3.03021e-09
0.000100294
-1.27391e-07
-6.57481e-09
0.000100294
-2.95757e-07
-8.41489e-09
0.000100957
-1.52132e-08
9.89503e-05
2.70926e-07
-2.1234e-08
9.89785e-05
9.92671e-08
-2.44469e-08
0.000100926
5.34808e-08
-2.62367e-08
0.000100289
1.13358e-08
-2.94407e-08
0.000100282
-2.56029e-08
-3.35054e-08
0.000100261
-6.01575e-08
-3.82239e-08
0.000100256
-9.55084e-08
-4.33382e-08
0.000100268
-1.30262e-07
-4.83879e-08
0.000100267
-3.00137e-07
-5.17773e-08
0.000100935
-6.11227e-08
9.89134e-05
2.68404e-07
-5.53215e-08
9.89796e-05
9.70179e-08
-5.87749e-08
0.000100919
5.02567e-08
-6.05941e-08
0.000100285
7.24133e-09
-6.39285e-08
0.000100277
-3.03567e-08
-6.82809e-08
0.000100254
-6.52693e-08
-7.34572e-08
0.000100248
-1.00495e-07
-7.92265e-08
0.000100257
-1.34617e-07
-8.51082e-08
0.000100253
-3.07387e-07
-8.95824e-08
0.000100927
-1.00044e-07
9.88821e-05
2.66044e-07
-9.07868e-08
9.89974e-05
9.46609e-08
-9.39297e-08
0.000100929
4.68506e-08
-9.56522e-08
0.000100298
2.83908e-09
-9.86899e-08
0.000100289
-3.55871e-08
-1.02745e-07
0.000100264
-7.10543e-08
-1.07627e-07
0.000100255
-1.06318e-07
-1.13128e-07
0.000100262
-1.39888e-07
-1.18831e-07
0.000100254
-3.16352e-07
-1.23308e-07
0.000100935
-1.33008e-07
9.88607e-05
2.63185e-07
-1.26582e-07
9.90025e-05
9.26308e-08
-1.29757e-07
0.000100926
4.37812e-08
-1.30735e-07
0.000100298
-1.23663e-09
-1.33081e-07
0.000100288
-4.05319e-08
-1.36332e-07
0.000100261
-7.66051e-08
-1.40258e-07
0.00010025
-1.12016e-07
-1.44661e-07
0.000100254
-1.45149e-07
-1.49262e-07
0.000100243
-3.24139e-07
-1.53347e-07
0.000100929
-1.59908e-07
9.88296e-05
2.63461e-07
-3.01195e-07
9.96737e-05
9.16855e-08
-3.04848e-07
0.000101602
4.17716e-08
-3.04963e-07
0.000100974
-3.87528e-09
-3.08545e-07
0.000100967
-4.38586e-08
-3.12271e-07
0.000100945
-8.04694e-08
-3.17005e-07
0.000100938
-1.15954e-07
-3.22535e-07
0.000100946
-1.49211e-07
-3.27368e-07
0.000100939
-3.32009e-07
-3.33843e-07
0.00010164
-3.40643e-07
9.95224e-05
2.59485e-07
9.76473e-05
8.80943e-08
9.95535e-05
3.76881e-08
9.89295e-05
-9.02766e-09
9.89122e-05
-4.96935e-08
9.88782e-05
-8.66478e-08
9.8857e-05
-1.22197e-07
9.88492e-05
-1.54045e-07
9.88271e-05
-3.38885e-07
9.95157e-05
9.73628e-05
2.85343e-07
2.74008e-07
9.71293e-05
1.09476e-07
2.73015e-07
9.95597e-05
6.23221e-08
2.69873e-07
9.87935e-05
1.90427e-08
2.6881e-07
9.87863e-05
-2.1054e-08
2.66754e-07
9.87681e-05
-5.9962e-08
2.6557e-07
9.87669e-05
-9.96841e-08
2.6578e-07
9.87822e-05
-1.39212e-07
2.66187e-07
9.87817e-05
-3.10801e-07
2.72482e-07
9.95601e-05
2.75265e-07
9.70714e-05
2.84183e-07
1.03398e-07
9.95121e-05
1.08546e-07
1.02313e-07
0.000101937
5.99273e-08
1.00851e-07
0.000101161
1.64366e-08
9.89206e-08
0.00010115
-2.36029e-08
9.69875e-08
0.000101124
-6.17759e-08
9.52089e-08
0.000101117
-9.99604e-08
9.39055e-08
0.000101131
-1.38708e-07
9.36028e-08
0.000101131
-3.07212e-07
9.5974e-08
0.000101929
9.50176e-08
9.94474e-05
2.80817e-07
5.47263e-08
9.87677e-05
1.07085e-07
5.17198e-08
0.000101182
5.87559e-08
5.01213e-08
0.000100417
1.51888e-08
4.70854e-08
0.000100407
-2.44639e-08
4.36342e-08
0.000100385
-6.19393e-08
4.00124e-08
0.000100382
-9.92767e-08
3.66307e-08
0.000100398
-1.36644e-07
3.41717e-08
0.000100401
-3.01524e-07
3.44432e-08
0.000101191
2.95537e-08
9.87282e-05
2.79001e-07
1.08325e-08
9.87612e-05
1.04757e-07
6.93958e-09
0.00010117
5.56793e-08
4.65917e-09
0.000100406
1.15751e-08
5.52446e-10
0.000100396
-2.82041e-08
-4.4562e-09
0.000100373
-6.53011e-08
-1.0111e-08
0.000100368
-1.01721e-07
-1.59942e-08
0.000100384
-1.37905e-07
-2.13677e-08
0.000100387
-3.03852e-07
-2.37671e-08
0.000101183
-3.5248e-08
9.87123e-05
2.75413e-07
-2.83072e-08
9.87441e-05
1.0188e-07
-3.30585e-08
0.000101141
5.16236e-08
-3.56818e-08
0.000100382
6.50947e-09
-4.05437e-08
0.00010037
-3.39224e-08
-4.67634e-08
0.000100345
-7.11613e-08
-5.4126e-08
0.000100338
-1.07035e-07
-6.22885e-08
0.000100351
-1.42209e-07
-7.05081e-08
0.000100352
-3.10826e-07
-7.62094e-08
0.000101157
-9.31267e-08
9.86612e-05
2.7175e-07
-6.48356e-08
9.87462e-05
9.85016e-08
-6.9952e-08
0.000101131
4.67484e-08
-7.26233e-08
0.000100376
2.21436e-10
-7.77047e-08
0.000100363
-4.13679e-08
-8.44129e-08
0.000100335
-7.93197e-08
-9.25894e-08
0.000100325
-1.15164e-07
-1.01962e-07
0.000100334
-1.49697e-07
-1.119e-07
0.00010033
-3.23816e-07
-1.19929e-07
0.000101145
-1.39401e-07
9.86047e-05
2.68373e-07
-1.01063e-07
9.87671e-05
9.49632e-08
-1.05646e-07
0.00010114
4.15772e-08
-1.08181e-07
0.000100389
-6.58566e-09
-1.12815e-07
0.000100374
-4.96544e-08
-1.1906e-07
0.000100343
-8.87248e-08
-1.26768e-07
0.00010033
-1.25021e-07
-1.35727e-07
0.000100333
-1.59098e-07
-1.45456e-07
0.000100322
-3.40458e-07
-1.53592e-07
0.00010115
-1.71654e-07
9.85525e-05
2.6426e-07
-1.38307e-07
9.87773e-05
9.18609e-08
-1.42821e-07
0.000101137
3.6884e-08
-1.44329e-07
0.000100391
-1.29085e-08
-1.47935e-07
0.000100374
-5.74981e-08
-1.52925e-07
0.000100341
-9.78018e-08
-1.59096e-07
0.000100324
-1.34732e-07
-1.66236e-07
0.000100323
-1.68507e-07
-1.74035e-07
0.000100306
-3.55132e-07
-1.81121e-07
0.000101144
-1.93516e-07
9.84965e-05
2.64456e-07
-3.15606e-07
9.95884e-05
9.04214e-08
-3.20668e-07
0.000101955
3.39054e-08
-3.21077e-07
0.000101209
-1.69106e-08
-3.26239e-07
0.000101198
-6.2696e-08
-3.31666e-07
0.000101171
-1.0407e-07
-3.38748e-07
0.00010116
-1.41432e-07
-3.47279e-07
0.000101165
-1.75704e-07
-3.54937e-07
0.000101155
-3.68743e-07
-3.65003e-07
0.000102017
-3.76001e-07
9.93365e-05
2.58805e-07
9.7074e-05
8.52309e-08
9.94076e-05
2.78483e-08
9.8667e-05
-2.4695e-08
9.86396e-05
-7.16117e-08
9.85943e-05
-1.13735e-07
9.85612e-05
-1.51371e-07
9.85403e-05
-1.83926e-07
9.85052e-05
-3.79848e-07
9.9347e-05
9.66072e-05
2.88348e-07
2.73297e-07
9.6569e-05
1.11685e-07
2.71804e-07
9.94658e-05
6.19894e-08
2.67975e-07
9.85762e-05
1.66975e-08
2.66633e-07
9.85655e-05
-2.67894e-08
2.64256e-07
9.85475e-05
-6.93412e-08
2.63503e-07
9.85457e-05
-1.11675e-07
2.65264e-07
9.85588e-05
-1.53785e-07
2.68292e-07
9.85553e-05
-3.27388e-07
2.80084e-07
9.94549e-05
2.91472e-07
9.64532e-05
2.86596e-07
1.03132e-07
9.93971e-05
1.10291e-07
1.01417e-07
0.000102285
5.88664e-08
9.95356e-08
0.000101382
1.35686e-08
9.69273e-08
0.000101365
-2.93772e-08
9.43658e-08
0.000101337
-7.02741e-08
9.21774e-08
0.000101329
-1.09425e-07
9.10243e-08
0.000101344
-1.49192e-07
9.16771e-08
0.000101347
-3.14837e-07
9.70241e-08
0.000102279
9.97199e-08
9.93256e-05
2.82395e-07
5.1312e-08
9.85387e-05
1.08438e-07
4.70378e-08
0.000101412
5.74169e-08
4.48398e-08
0.000100524
1.21329e-08
4.05571e-08
0.00010051
-3.00989e-08
3.56906e-08
0.000100486
-6.96519e-08
3.06359e-08
0.000100483
-1.07272e-07
2.6172e-08
0.0001005
-1.44595e-07
2.32592e-08
0.000100507
-3.02529e-07
2.59268e-08
0.000101422
2.10105e-08
9.85054e-05
2.79737e-07
5.29058e-09
9.85292e-05
1.05161e-07
-2.41888e-10
0.000101393
5.30566e-08
-3.44993e-09
0.000100508
6.98423e-09
-9.40507e-09
0.000100493
-3.53716e-08
-1.67373e-08
0.000100468
-7.41752e-08
-2.51202e-08
0.000100463
-1.10061e-07
-3.39174e-08
0.00010048
-1.44796e-07
-4.20488e-08
0.000100488
-3.0239e-07
-4.49543e-08
0.000101412
-6.23776e-08
9.84948e-05
2.74689e-07
-3.63813e-08
9.85128e-05
1.01007e-07
-4.31455e-08
0.000101359
4.71833e-08
-4.68947e-08
0.000100481
-4.52552e-10
-5.40502e-08
0.000100464
-4.38771e-08
-6.33439e-08
0.000100436
-8.29868e-08
-7.46128e-08
0.000100428
-1.18006e-07
-8.75055e-08
0.000100441
-1.51272e-07
-1.01226e-07
0.000100445
-3.12288e-07
-1.10785e-07
0.000101385
-1.41191e-07
9.84281e-05
2.69526e-07
-7.46976e-08
9.85169e-05
9.60914e-08
-8.19647e-08
0.000101345
4.00126e-08
-8.58153e-08
0.000100473
-9.89711e-09
-9.33385e-08
0.000100453
-5.53358e-08
-1.03447e-07
0.000100422
-9.59521e-08
-1.16124e-07
0.000100408
-1.31541e-07
-1.31295e-07
0.000100414
-1.64193e-07
-1.48384e-07
0.00010041
-3.35691e-07
-1.63e-07
0.000101369
-2.00083e-07
9.83282e-05
2.64775e-07
-1.10857e-07
9.85404e-05
9.09404e-08
-1.17308e-07
0.000101351
3.23692e-08
-1.20957e-07
0.000100485
-2.01977e-08
-1.27818e-07
0.000100462
-6.82437e-08
-1.37206e-07
0.000100427
-1.11256e-07
-1.49151e-07
0.000100407
-1.48423e-07
-1.6366e-07
0.000100403
-1.8147e-07
-1.80239e-07
0.000100388
-3.67444e-07
-1.9536e-07
0.000101368
-2.29294e-07
9.82146e-05
2.59096e-07
-1.48202e-07
9.85575e-05
8.63631e-08
-1.54373e-07
0.000101349
2.53992e-08
-1.56654e-07
0.000100489
-2.97652e-08
-1.62012e-07
0.000100465
-8.04627e-08
-1.6947e-07
0.000100426
-1.25981e-07
-1.78964e-07
0.0001004
-1.64921e-07
-1.90376e-07
0.000100389
-1.98737e-07
-2.03251e-07
0.000100364
-3.95836e-07
-2.15638e-07
0.000101361
-2.37942e-07
9.81097e-05
2.59022e-07
-3.26482e-07
9.95094e-05
8.42004e-08
-3.33185e-07
0.000102311
2.10682e-08
-3.34125e-07
0.000101451
-3.57509e-08
-3.41275e-07
0.000101436
-8.84821e-08
-3.48999e-07
0.000101404
-1.35991e-07
-3.59285e-07
0.000101389
-1.76129e-07
-3.71902e-07
0.000101388
-2.10848e-07
-3.83693e-07
0.00010137
-4.1863e-07
-3.9873e-07
0.000102408
-4.1544e-07
9.9096e-05
2.51322e-07
9.64975e-05
7.69942e-08
9.92499e-05
1.23852e-08
9.83986e-05
-4.7068e-08
9.83587e-05
-1.01687e-07
9.83008e-05
-1.5053e-07
9.82515e-05
-1.91465e-07
9.821e-05
-2.24126e-07
9.81548e-05
-4.3623e-07
9.91611e-05
9.57559e-05
2.88637e-07
2.69386e-07
9.60119e-05
1.1219e-07
2.67242e-07
9.93756e-05
6.03392e-08
2.62807e-07
9.83654e-05
1.31763e-08
2.61209e-07
9.83508e-05
-3.36066e-08
2.58821e-07
9.83337e-05
-8.06037e-08
2.59243e-07
9.83307e-05
-1.28327e-07
2.64204e-07
9.8339e-05
-1.76532e-07
2.72323e-07
9.8328e-05
-3.60126e-07
2.94401e-07
9.93426e-05
3.24711e-07
9.57658e-05
2.86123e-07
1.00687e-07
9.92807e-05
1.10223e-07
9.81075e-08
0.000102631
5.6512e-08
9.57588e-08
0.000101603
9.82187e-09
9.23226e-08
0.00010158
-3.53911e-08
8.90445e-08
0.00010155
-7.87248e-08
8.65735e-08
0.000101543
-1.20117e-07
8.60719e-08
0.000101561
-1.62493e-07
8.8981e-08
0.000101572
-3.27697e-07
1.01751e-07
0.000102636
1.17731e-07
9.92029e-05
2.81079e-07
4.59871e-08
9.83135e-05
1.07955e-07
4.00949e-08
0.000101644
5.47866e-08
3.71276e-08
0.000100636
8.29134e-09
3.12113e-08
0.000100617
-3.56401e-08
2.4492e-08
0.000100594
-7.66226e-08
1.76063e-08
0.000100591
-1.14668e-07
1.1796e-08
0.000100611
-1.51563e-07
9.31312e-09
0.000100623
-2.98934e-07
1.81175e-08
0.000101652
2.19344e-08
9.83015e-05
2.77275e-07
-1.94153e-09
9.83012e-05
1.03435e-07
-9.60737e-09
0.000101618
4.87288e-08
-1.4035e-08
0.000100615
1.10475e-09
-2.24902e-08
0.000100595
-4.29381e-08
-3.30263e-08
0.00010057
-8.25658e-08
-4.52905e-08
0.000100565
-1.1684e-07
-5.83294e-08
0.000100584
-1.48832e-07
-7.0327e-08
0.000100598
-2.86556e-07
-7.10239e-08
0.000101641
-9.55373e-08
9.83241e-05
2.70396e-07
-4.55391e-08
9.82876e-05
9.75715e-08
-5.48995e-08
0.000101579
4.03787e-08
-6.01678e-08
0.000100585
-9.64103e-09
-7.04728e-08
0.000100562
-5.54559e-08
-8.41101e-08
0.000100533
-9.55973e-08
-1.0116e-07
0.000100524
-1.28644e-07
-1.21471e-07
0.000100537
-1.56308e-07
-1.43732e-07
0.000100546
-2.94493e-07
-1.59574e-07
0.000101611
-2.14177e-07
9.82523e-05
2.63291e-07
-8.49202e-08
9.82947e-05
9.05705e-08
-9.49303e-08
0.000101559
3.00263e-08
-1.00389e-07
0.000100575
-2.35998e-08
-1.11276e-07
0.000100549
-7.29226e-08
-1.26216e-07
0.000100514
-1.16088e-07
-1.45638e-07
0.000100497
-1.50832e-07
-1.69974e-07
0.000100498
-1.78117e-07
-1.98893e-07
0.000100493
-3.33883e-07
-2.26602e-07
0.000101593
-2.99025e-07
9.80801e-05
2.5671e-07
-1.20466e-07
9.83211e-05
8.32395e-08
-1.2929e-07
0.000101561
1.89578e-08
-1.34433e-07
0.000100585
-3.89114e-08
-1.44336e-07
0.000100555
-9.2819e-08
-1.58156e-07
0.000100514
-1.40718e-07
-1.76365e-07
0.000100486
-1.79685e-07
-1.99502e-07
0.000100473
-2.1017e-07
-2.27795e-07
0.000100448
-3.94815e-07
-2.57486e-07
0.000101585
-3.26454e-07
9.78482e-05
2.49095e-07
-1.57291e-07
9.83471e-05
7.66808e-08
-1.65463e-07
0.000101559
8.86877e-09
-1.68812e-07
0.000100593
-5.307e-08
-1.76545e-07
0.000100561
-1.11498e-07
-1.87426e-07
0.000100515
-1.64227e-07
-2.01699e-07
0.00010048
-2.07913e-07
-2.19534e-07
0.000100454
-2.42616e-07
-2.40939e-07
0.000100413
-4.5381e-07
-2.64319e-07
0.00010158
-3.09349e-07
9.76401e-05
2.48519e-07
-3.3544e-07
9.94409e-05
7.35178e-08
-3.44058e-07
0.000102666
2.69266e-09
-3.45841e-07
0.000101701
-6.18601e-08
-3.55424e-07
0.00010168
-1.23638e-07
-3.66121e-07
0.000101646
-1.80043e-07
-3.80489e-07
0.000101625
-2.26785e-07
-3.98446e-07
0.000101615
-2.65685e-07
-4.15748e-07
0.000101585
-4.97919e-07
-4.37237e-07
0.000102815
-4.58948e-07
9.87486e-05
2.38317e-07
9.59249e-05
6.38146e-08
9.90816e-05
-9.36385e-09
9.8127e-05
-7.77515e-08
9.80726e-05
-1.42436e-07
9.80002e-05
-2.01177e-07
9.79305e-05
-2.49429e-07
9.78606e-05
-2.85643e-07
9.77761e-05
-5.21475e-07
9.89604e-05
9.47763e-05
2.87483e-07
2.63713e-07
9.54614e-05
1.11912e-07
2.60773e-07
9.92909e-05
5.79559e-08
2.55887e-07
9.81633e-05
8.71728e-09
2.54151e-07
9.8145e-05
-4.18823e-08
2.52303e-07
9.81299e-05
-9.4991e-08
2.55179e-07
9.81252e-05
-1.51996e-07
2.65815e-07
9.81246e-05
-2.11988e-07
2.83824e-07
9.80976e-05
-4.25965e-07
3.21572e-07
9.92218e-05
3.92048e-07
9.49356e-05
2.84054e-07
9.71144e-08
9.91641e-05
1.09305e-07
9.34081e-08
0.000102973
5.35881e-08
9.05836e-08
0.000101824
5.7656e-09
8.62042e-08
0.000101795
-4.1198e-08
8.22444e-08
0.000101766
-8.68011e-08
7.98307e-08
0.000101761
-1.31304e-07
8.11446e-08
0.000101786
-1.7872e-07
8.90317e-08
0.000101806
-3.53611e-07
1.13907e-07
0.000103007
1.63099e-07
9.90672e-05
2.78204e-07
3.94898e-08
9.8094e-05
1.06648e-07
3.15833e-08
0.000101879
5.16748e-08
2.76929e-08
0.000100754
4.40933e-09
1.97392e-08
0.00010073
-4.02916e-08
1.07211e-08
0.000100709
-8.15735e-08
1.58867e-09
0.000100708
-1.19755e-07
-5.26485e-09
0.000100732
-1.56949e-07
-5.74025e-09
0.000100749
-2.90087e-07
1.7584e-08
0.000101874
5.1238e-08
9.8114e-05
2.72927e-07
-1.04498e-08
9.80795e-05
1.00565e-07
-2.08174e-08
0.000101844
4.3479e-08
-2.67756e-08
0.000100727
-5.34197e-09
-3.84801e-08
0.000100702
-5.00509e-08
-5.33143e-08
0.000100678
-8.85437e-08
-7.09558e-08
0.000100675
-1.20062e-07
-9.01079e-08
0.000100698
-1.43525e-07
-1.06483e-07
0.00010072
-2.35195e-07
-1.00891e-07
0.000101844
-1.14409e-07
9.82512e-05
2.63823e-07
-5.56977e-08
9.80706e-05
9.24979e-08
-6.83224e-08
0.000101799
3.18794e-08
-7.55564e-08
0.000100696
-2.05662e-08
-9.00482e-08
0.000100667
-6.81453e-08
-1.09694e-07
0.000100638
-1.07902e-07
-1.35132e-07
0.000100627
-1.36547e-07
-1.66749e-07
0.000100641
-1.51935e-07
-2.03498e-07
0.000100658
-2.26667e-07
-2.30652e-07
0.000101815
-3.30364e-07
9.82423e-05
2.54273e-07