/*--------------------------------*- C++ -*----------------------------------*\
  =========                 |
  \\      /  F ield         | OpenFOAM: The Open Source CFD Toolbox
   \\    /   O peration     | Website:  https://openfoam.org
    \\  /    A nd           | Version:  6
     \\/     M anipulation  |
\*---------------------------------------------------------------------------*/
FoamFile
{
    version     2.0;
    format      ascii;
    class       volScalarField;
    location    "0.455";
    object      T;
}
// * * * * * * * * * * * * * * * * * * * * * * * * * * * * * * * * * * * * * //

dimensions      [0 0 0 1 0 0 0];

internalField   nonuniform List<scalar> 
7000
(
105.353
105.351
105.347
105.342
105.336
105.329
105.321
105.315
105.31
105.307
105.353
105.351
105.347
105.342
105.336
105.328
105.321
105.315
105.31
105.307
105.353
105.351
105.347
105.342
105.336
105.328
105.321
105.315
105.31
105.307
105.353
105.351
105.347
105.342
105.336
105.328
105.321
105.315
105.31
105.307
105.353
105.351
105.347
105.342
105.336
105.328
105.321
105.315
105.31
105.307
105.353
105.351
105.347
105.342
105.336
105.328
105.321
105.315
105.31
105.307
105.353
105.351
105.347
105.342
105.336
105.328
105.321
105.315
105.31
105.307
105.353
105.351
105.347
105.342
105.336
105.328
105.321
105.315
105.31
105.307
105.353
105.351
105.347
105.342
105.336
105.328
105.321
105.315
105.31
105.307
105.353
105.351
105.347
105.342
105.336
105.328
105.321
105.315
105.31
105.307
96.1094
96.1035
96.092
96.0757
96.0555
96.0331
96.0106
95.9903
95.9749
95.9666
96.1094
96.1035
96.092
96.0757
96.0555
96.0331
96.0105
95.9903
95.9749
95.9666
96.1094
96.1035
96.092
96.0756
96.0555
96.0331
96.0105
95.9903
95.9749
95.9666
96.1093
96.1034
96.092
96.0756
96.0555
96.0331
96.0105
95.9903
95.9749
95.9666
96.1093
96.1034
96.092
96.0756
96.0555
96.0331
96.0105
95.9903
95.9749
95.9666
96.1093
96.1034
96.092
96.0756
96.0555
96.0331
96.0105
95.9903
95.9749
95.9666
96.1093
96.1034
96.092
96.0756
96.0555
96.0331
96.0105
95.9903
95.9749
95.9666
96.1093
96.1034
96.092
96.0756
96.0555
96.0331
96.0105
95.9903
95.9749
95.9666
96.1094
96.1035
96.092
96.0756
96.0555
96.0331
96.0105
95.9903
95.9749
95.9666
96.1094
96.1035
96.092
96.0757
96.0555
96.0331
96.0105
95.9903
95.9749
95.9666
87.0144
87.0041
86.9839
86.955
86.9191
86.8789
86.8381
86.8011
86.7727
86.7572
87.0144
87.004
86.9839
86.955
86.9191
86.8789
86.8381
86.801
86.7726
86.7572
87.0143
87.004
86.9838
86.9549
86.9191
86.8789
86.838
86.801
86.7726
86.7572
87.0143
87.004
86.9838
86.9549
86.919
86.8789
86.838
86.801
86.7726
86.7571
87.0143
87.004
86.9838
86.9549
86.919
86.8788
86.838
86.801
86.7726
86.7571
87.0143
87.004
86.9838
86.9549
86.919
86.8788
86.838
86.801
86.7726
86.7571
87.0143
87.004
86.9838
86.9549
86.919
86.8788
86.838
86.801
86.7726
86.7571
87.0143
87.004
86.9838
86.9549
86.919
86.8789
86.838
86.801
86.7726
86.7572
87.0143
87.004
86.9838
86.9549
86.9191
86.8789
86.838
86.801
86.7726
86.7572
87.0144
87.004
86.9839
86.955
86.9191
86.8789
86.8381
86.801
86.7727
86.7572
78.1623
78.1468
78.1164
78.0725
78.0175
77.9551
77.8906
77.8313
77.7851
77.7597
78.1623
78.1468
78.1164
78.0725
78.0174
77.955
77.8906
77.8313
77.7851
77.7597
78.1623
78.1467
78.1163
78.0724
78.0174
77.955
77.8905
77.8312
77.7851
77.7596
78.1622
78.1467
78.1163
78.0724
78.0174
77.9549
77.8905
77.8312
77.785
77.7596
78.1622
78.1467
78.1163
78.0724
78.0174
77.9549
77.8905
77.8312
77.785
77.7596
78.1622
78.1467
78.1163
78.0724
78.0174
77.9549
77.8905
77.8312
77.785
77.7596
78.1622
78.1467
78.1163
78.0724
78.0174
77.9549
77.8905
77.8312
77.785
77.7596
78.1622
78.1467
78.1163
78.0724
78.0174
77.955
77.8905
77.8312
77.7851
77.7596
78.1622
78.1467
78.1164
78.0725
78.0174
77.955
77.8906
77.8312
77.7851
77.7597
78.1623
78.1468
78.1164
78.0725
78.0175
77.955
77.8906
77.8313
77.7851
77.7597
69.6403
69.6187
69.5761
69.5139
69.4348
69.3435
69.2473
69.1566
69.0845
69.0439
69.6403
69.6186
69.576
69.5138
69.4347
69.3434
69.2473
69.1566
69.0844
69.0439
69.6402
69.6186
69.576
69.5138
69.4347
69.3434
69.2472
69.1565
69.0844
69.0438
69.6402
69.6185
69.5759
69.5137
69.4347
69.3434
69.2472
69.1565
69.0843
69.0438
69.6402
69.6185
69.5759
69.5137
69.4346
69.3433
69.2472
69.1565
69.0843
69.0438
69.6402
69.6185
69.5759
69.5137
69.4346
69.3433
69.2472
69.1565
69.0843
69.0438
69.6402
69.6185
69.5759
69.5137
69.4346
69.3434
69.2472
69.1565
69.0843
69.0438
69.6402
69.6186
69.5759
69.5137
69.4347
69.3434
69.2472
69.1565
69.0844
69.0438
69.6402
69.6186
69.576
69.5138
69.4347
69.3434
69.2472
69.1566
69.0844
69.0439
69.6403
69.6186
69.576
69.5138
69.4348
69.3435
69.2473
69.1566
69.0845
69.0439
61.5261
61.4973
61.4402
61.3558
61.2466
61.1176
60.9778
60.8416
60.7293
60.6643
61.526
61.4972
61.4401
61.3557
61.2465
61.1175
60.9777
60.8415
60.7292
60.6642
61.526
61.4972
61.44
61.3556
61.2465
61.1175
60.9777
60.8415
60.7292
60.6642
61.5259
61.4971
61.44
61.3556
61.2464
61.1175
60.9777
60.8415
60.7292
60.6642
61.5259
61.4971
61.44
61.3556
61.2464
61.1174
60.9776
60.8414
60.7292
60.6641
61.5259
61.4971
61.44
61.3556
61.2464
61.1174
60.9776
60.8414
60.7292
60.6641
61.5259
61.4971
61.44
61.3556
61.2464
61.1175
60.9777
60.8415
60.7292
60.6642
61.5259
61.4971
61.44
61.3556
61.2464
61.1175
60.9777
60.8415
60.7292
60.6642
61.526
61.4972
61.4401
61.3557
61.2465
61.1175
60.9777
60.8415
60.7292
60.6642
61.526
61.4972
61.4401
61.3557
61.2466
61.1176
60.9778
60.8416
60.7293
60.6643
53.8862
53.8493
53.7755
53.665
53.519
53.3415
53.142
52.9384
52.7616
52.6537
53.8861
53.8492
53.7754
53.6649
53.5189
53.3414
53.1419
52.9384
52.7615
52.6537
53.886
53.8492
53.7754
53.6648
53.5188
53.3414
53.1418
52.9383
52.7615
52.6536
53.886
53.8491
53.7753
53.6648
53.5188
53.3414
53.1418
52.9383
52.7615
52.6536
53.886
53.8491
53.7753
53.6648
53.5188
53.3413
53.1418
52.9383
52.7614
52.6536
53.886
53.8491
53.7753
53.6648
53.5188
53.3413
53.1418
52.9383
52.7614
52.6536
53.886
53.8491
53.7753
53.6648
53.5188
53.3414
53.1418
52.9383
52.7615
52.6536
53.886
53.8491
53.7754
53.6648
53.5188
53.3414
53.1418
52.9383
52.7615
52.6537
53.886
53.8492
53.7754
53.6649
53.5189
53.3414
53.1419
52.9384
52.7615
52.6537
53.8861
53.8492
53.7755
53.6649
53.5189
53.3415
53.142
52.9385
52.7616
52.6538
46.7745
46.729
46.6372
46.4975
46.3087
46.0714
45.7919
45.4889
45.2041
45.0139
46.7744
46.7289
46.6371
46.4975
46.3086
46.0713
45.7919
45.4888
45.204
45.0139
46.7743
46.7289
46.6371
46.4974
46.3085
46.0712
45.7918
45.4888
45.2039
45.0138
46.7743
46.7288
46.637
46.4974
46.3085
46.0712
45.7918
45.4887
45.2039
45.0138
46.7743
46.7288
46.637
46.4973
46.3085
46.0712
45.7917
45.4887
45.2039
45.0138
46.7743
46.7288
46.637
46.4973
46.3085
46.0712
45.7918
45.4887
45.2039
45.0138
46.7743
46.7288
46.637
46.4974
46.3085
46.0712
45.7918
45.4887
45.2039
45.0138
46.7743
46.7288
46.6371
46.4974
46.3085
46.0712
45.7918
45.4888
45.204
45.0138
46.7744
46.7289
46.6371
46.4974
46.3086
46.0713
45.7919
45.4888
45.204
45.0139
46.7744
46.729
46.6372
46.4975
46.3087
46.0714
45.7919
45.4889
45.2041
45.014
40.2314
40.1776
40.0679
39.8986
39.664
39.3582
38.9783
38.5323
38.0621
37.6938
40.2313
40.1775
40.0679
39.8985
39.6639
39.3582
38.9782
38.5323
38.0621
37.6937
40.2313
40.1774
40.0678
39.8984
39.6638
39.3581
38.9782
38.5322
38.062
37.6937
40.2312
40.1774
40.0678
39.8984
39.6638
39.3581
38.9781
38.5322
38.062
37.6936
40.2312
40.1774
40.0677
39.8984
39.6638
39.3581
38.9781
38.5322
38.062
37.6936
40.2312
40.1774
40.0677
39.8984
39.6638
39.3581
38.9781
38.5322
38.062
37.6936
40.2312
40.1774
40.0678
39.8984
39.6638
39.3581
38.9782
38.5322
38.062
37.6936
40.2312
40.1774
40.0678
39.8984
39.6638
39.3581
38.9782
38.5322
38.062
37.6937
40.2313
40.1775
40.0678
39.8985
39.6639
39.3582
38.9783
38.5323
38.0621
37.6937
40.2313
40.1775
40.0679
39.8986
39.664
39.3582
38.9783
38.5324
38.0622
37.6938
34.2831
34.2222
34.0972
33.9017
33.6249
33.2516
32.7611
32.1292
31.3472
30.5342
34.283
34.2221
34.0972
33.9016
33.6248
33.2515
32.761
32.1291
31.3471
30.5341
34.2829
34.222
34.0971
33.9015
33.6247
33.2515
32.761
32.1291
31.3471
30.5341
34.2829
34.222
34.0971
33.9015
33.6247
33.2514
32.7609
32.129
31.347
30.534
34.2829
34.222
34.097
33.9015
33.6247
33.2514
32.7609
32.129
31.347
30.534
34.2829
34.222
34.097
33.9015
33.6247
33.2514
32.7609
32.129
31.347
30.534
34.2829
34.222
34.0971
33.9015
33.6247
33.2514
32.761
32.129
31.347
30.5341
34.2829
34.222
34.0971
33.9015
33.6247
33.2515
32.761
32.1291
31.3471
30.5341
34.283
34.2221
34.0971
33.9016
33.6248
33.2515
32.7611
32.1291
31.3471
30.5342
34.283
34.2221
34.0972
33.9017
33.6249
33.2516
32.7611
32.1292
31.3472
30.5342
28.9411
28.8756
28.7405
28.5272
28.2213
27.7991
27.2208
26.4111
25.1994
23.0999
28.9411
28.8755
28.7404
28.5271
28.2212
27.7991
27.2208
26.4111
25.1993
23.0999
28.941
28.8754
28.7403
28.5271
28.2212
27.799
27.2207
26.411
25.1992
23.0998
28.941
28.8754
28.7403
28.5271
28.2212
27.799
27.2207
26.411
25.1992
23.0998
28.9409
28.8754
28.7403
28.527
28.2211
27.799
27.2207
26.411
25.1992
23.0998
28.9409
28.8754
28.7403
28.527
28.2211
27.799
27.2207
26.411
25.1992
23.0998
28.941
28.8754
28.7403
28.5271
28.2212
27.799
27.2207
26.411
25.1992
23.0998
28.941
28.8754
28.7403
28.5271
28.2212
27.799
27.2207
26.411
25.1992
23.0998
28.941
28.8755
28.7404
28.5272
28.2213
27.7991
27.2208
26.4111
25.1993
23.0999
28.9411
28.8755
28.7404
28.5272
28.2213
27.7992
27.2209
26.4112
25.1994
23.1
24.2027
24.1357
23.9976
23.7794
23.4659
23.033
22.4414
21.6255
20.4732
18.8113
24.2027
24.1357
23.9975
23.7793
23.4658
23.0329
22.4413
21.6254
20.4731
18.8112
24.2026
24.1356
23.9975
23.7793
23.4658
23.0328
22.4412
21.6254
20.4731
18.8111
24.2026
24.1356
23.9974
23.7792
23.4658
23.0328
22.4412
21.6253
20.473
18.8111
24.2025
24.1355
23.9974
23.7792
23.4657
23.0328
22.4412
21.6253
20.473
18.8111
24.2025
24.1355
23.9974
23.7792
23.4657
23.0328
22.4412
21.6253
20.473
18.8111
24.2026
24.1356
23.9974
23.7792
23.4658
23.0328
22.4412
21.6253
20.473
18.8111
24.2026
24.1356
23.9975
23.7793
23.4658
23.0329
22.4412
21.6254
20.4731
18.8111
24.2026
24.1356
23.9975
23.7793
23.4659
23.0329
22.4413
21.6254
20.4731
18.8112
24.2027
24.1357
23.9976
23.7794
23.4659
23.033
22.4414
21.6255
20.4732
18.8113
20.0513
19.9864
19.8529
19.6431
19.3446
18.9389
18.3997
17.6921
16.7782
15.6503
20.0513
19.9863
19.8528
19.643
19.3446
18.9389
18.3996
17.692
16.7782
15.6502
20.0512
19.9862
19.8527
19.643
19.3445
18.9388
18.3996
17.692
16.7781
15.6502
20.0512
19.9862
19.8527
19.643
19.3445
18.9388
18.3995
17.6919
16.7781
15.6501
20.0511
19.9862
19.8527
19.6429
19.3445
18.9388
18.3995
17.6919
16.7781
15.6501
20.0511
19.9862
19.8527
19.6429
19.3445
18.9388
18.3995
17.6919
16.7781
15.6501
20.0512
19.9862
19.8527
19.643
19.3445
18.9388
18.3996
17.6919
16.7781
15.6501
20.0512
19.9862
19.8527
19.643
19.3445
18.9388
18.3996
17.692
16.7781
15.6502
20.0512
19.9863
19.8528
19.6431
19.3446
18.9389
18.3997
17.692
16.7782
15.6502
20.0513
19.9864
19.8529
19.6431
19.3447
18.9389
18.3997
17.6921
16.7782
15.6503
16.4583
16.3984
16.2761
16.0859
15.8197
15.467
15.0161
14.4582
13.798
13.0801
16.4583
16.3984
16.276
16.0858
15.8196
15.467
15.0161
14.4581
13.7979
13.08
16.4582
16.3983
16.276
16.0858
15.8196
15.4669
15.016
14.4581
13.7979
13.08
16.4582
16.3983
16.276
16.0858
15.8196
15.4669
15.016
14.458
13.7979
13.0799
16.4582
16.3983
16.276
16.0857
15.8196
15.4669
15.016
14.458
13.7978
13.0799
16.4582
16.3983
16.276
16.0857
15.8196
15.4669
15.016
14.458
13.7978
13.0799
16.4582
16.3983
16.276
16.0858
15.8196
15.4669
15.016
14.458
13.7979
13.0799
16.4582
16.3983
16.276
16.0858
15.8196
15.4669
15.016
14.4581
13.7979
13.08
16.4582
16.3984
16.2761
16.0859
15.8197
15.467
15.0161
14.4581
13.798
13.08
16.4583
16.3985
16.2761
16.0859
15.8197
15.4671
15.0162
14.4582
13.798
13.0801
13.3855
13.3329
13.2262
13.0626
12.8385
12.5509
12.1993
11.791
11.349
10.9259
13.3854
13.3328
13.2261
13.0625
12.8385
12.5508
12.1993
11.7909
11.3489
10.9258
13.3854
13.3328
13.2261
13.0625
12.8384
12.5508
12.1992
11.7909
11.3489
10.9258
13.3853
13.3327
13.226
13.0624
12.8384
12.5508
12.1992
11.7908
11.3488
10.9257
13.3853
13.3327
13.226
13.0624
12.8384
12.5507
12.1992
11.7908
11.3488
10.9257
13.3853
13.3327
13.226
13.0624
12.8384
12.5507
12.1992
11.7908
11.3488
10.9257
13.3853
13.3327
13.226
13.0625
12.8384
12.5508
12.1992
11.7909
11.3488
10.9257
13.3854
13.3328
13.2261
13.0625
12.8384
12.5508
12.1992
11.7909
11.3489
10.9258
13.3854
13.3328
13.2261
13.0625
12.8385
12.5508
12.1993
11.7909
11.3489
10.9258
13.3855
13.3329
13.2262
13.0626
12.8386
12.5509
12.1994
11.791
11.349
10.9259
10.7877
10.7435
10.6546
10.5207
10.3418
10.1207
9.86446
9.58882
9.32281
9.11396
10.7877
10.7434
10.6546
10.5206
10.3418
10.1206
9.8644
9.58877
9.32275
9.11389
10.7876
10.7434
10.6545
10.5206
10.3417
10.1206
9.86436
9.58873
9.32271
9.11385
10.7876
10.7434
10.6545
10.5205
10.3417
10.1206
9.86434
9.5887
9.32269
9.11382
10.7876
10.7434
10.6545
10.5205
10.3417
10.1206
9.86433
9.58869
9.32267
9.11381
10.7876
10.7434
10.6545
10.5205
10.3417
10.1206
9.86433
9.58869
9.32268
9.11381
10.7876
10.7434
10.6545
10.5205
10.3417
10.1206
9.86435
9.58871
9.32269
9.11383
10.7877
10.7434
10.6546
10.5206
10.3417
10.1206
9.86438
9.58874
9.32273
9.11386
10.7877
10.7435
10.6546
10.5206
10.3418
10.1206
9.86443
9.58879
9.32278
9.11391
10.7877
10.7435
10.6547
10.5207
10.3419
10.1207
9.86449
9.58885
9.32284
9.11398
8.61614
8.58045
8.50955
8.40477
8.26919
8.10925
7.93692
7.77246
7.64687
7.60185
8.61609
8.5804
8.50951
8.40472
8.26914
8.1092
7.93687
7.77241
7.64682
7.60179
8.61606
8.58037
8.50947
8.40469
8.26911
8.10917
7.93684
7.77237
7.64678
7.60175
8.61604
8.58034
8.50945
8.40466
8.26909
8.10915
7.93681
7.77235
7.64675
7.60173
8.61603
8.58033
8.50944
8.40466
8.26908
8.10914
7.93681
7.77234
7.64674
7.60172
8.61603
8.58034
8.50944
8.40466
8.26908
8.10914
7.93681
7.77234
7.64675
7.60172
8.61604
8.58035
8.50946
8.40467
8.2691
8.10916
7.93682
7.77236
7.64676
7.60174
8.61607
8.58037
8.50948
8.4047
8.26913
8.10919
7.93685
7.77239
7.64679
7.60177
8.6161
8.58041
8.50952
8.40474
8.26917
8.10923
7.9369
7.77243
7.64684
7.60181
8.61614
8.58046
8.50958
8.40479
8.26922
8.10928
7.93695
7.77249
7.6469
7.60187
6.82038
6.79267
6.73835
6.65992
6.56229
6.45427
6.35072
6.27517
6.26191
6.35386
6.82034
6.79263
6.73831
6.65988
6.56224
6.45423
6.35068
6.27513
6.26187
6.35381
6.82031
6.7926
6.73828
6.65985
6.56222
6.4542
6.35065
6.2751
6.26183
6.35377
6.82029
6.79258
6.73826
6.65983
6.5622
6.45418
6.35063
6.27507
6.26181
6.35375
6.82028
6.79258
6.73825
6.65982
6.56219
6.45417
6.35062
6.27507
6.2618
6.35374
6.82028
6.79258
6.73826
6.65982
6.56219
6.45417
6.35062
6.27507
6.2618
6.35374
6.8203
6.79259
6.73827
6.65984
6.56221
6.45419
6.35064
6.27509
6.26182
6.35376
6.82032
6.79261
6.73829
6.65986
6.56223
6.45421
6.35066
6.27511
6.26185
6.35378
6.82035
6.79265
6.73833
6.6599
6.56227
6.45425
6.3507
6.27515
6.26189
6.35383
6.82038
6.79269
6.73837
6.65994
6.56232
6.4543
6.35075
6.2752
6.26194
6.35388
5.35103
5.33027
5.29013
5.23372
5.16677
5.09903
5.04658
5.03541
5.10678
5.32275
5.351
5.33023
5.29009
5.23369
5.16673
5.09899
5.04655
5.03537
5.10673
5.3227
5.35097
5.33021
5.29007
5.23366
5.16671
5.09896
5.04652
5.03534
5.10671
5.32267
5.35096
5.33019
5.29005
5.23365
5.16669
5.09895
5.0465
5.03533
5.10669
5.32265
5.35095
5.33018
5.29004
5.23364
5.16668
5.09894
5.0465
5.03532
5.10668
5.32264
5.35095
5.33019
5.29005
5.23364
5.16669
5.09894
5.0465
5.03532
5.10668
5.32265
5.35096
5.3302
5.29006
5.23365
5.1667
5.09896
5.04651
5.03534
5.1067
5.32266
5.35098
5.33022
5.29008
5.23368
5.16672
5.09898
5.04654
5.03536
5.10672
5.32269
5.35101
5.33024
5.29011
5.23371
5.16675
5.09901
5.04657
5.0354
5.10676
5.32273
5.35104
5.33028
5.29015
5.23375
5.1668
5.09906
5.04661
5.03544
5.1068
5.32278
4.16121
4.14609
4.11731
4.078
4.03372
3.9936
3.97235
3.99437
4.10451
4.4056
4.16118
4.14606
4.11728
4.07797
4.03369
3.99357
3.97232
3.99434
4.10447
4.40557
4.16116
4.14604
4.11726
4.07795
4.03367
3.99354
3.9723
3.99431
4.10445
4.40554
4.16114
4.14603
4.11725
4.07794
4.03366
3.99353
3.97228
3.9943
4.10444
4.40552
4.16114
4.14602
4.11724
4.07793
4.03365
3.99353
3.97228
3.99429
4.10443
4.40552
4.16114
4.14602
4.11724
4.07793
4.03365
3.99353
3.97228
3.9943
4.10443
4.40552
4.16115
4.14603
4.11725
4.07795
4.03366
3.99354
3.97229
3.99431
4.10445
4.40553
4.16117
4.14605
4.11727
4.07796
4.03368
3.99356
3.97231
3.99433
4.10447
4.40556
4.16119
4.14608
4.1173
4.07799
4.03371
3.99359
3.97234
3.99436
4.1045
4.40559
4.16122
4.14611
4.11733
4.07803
4.03375
3.99362
3.97238
3.9944
4.10454
4.40564
18.3975
16.0997
15.3765
15.9479
17.7763
20.9777
25.8182
32.7737
42.6987
57.2799
18.3974
16.0996
15.3764
15.9478
17.7762
20.9776
25.8181
32.7735
42.6985
57.2797
18.3973
16.0995
15.3763
15.9477
17.7761
20.9775
25.818
32.7734
42.6984
57.2795
18.3973
16.0995
15.3763
15.9477
17.776
20.9774
25.8179
32.7733
42.6983
57.2794
18.3973
16.0995
15.3762
15.9476
17.776
20.9774
25.8178
32.7733
42.6983
57.2794
18.3973
16.0995
15.3762
15.9476
17.776
20.9773
25.8178
32.7733
42.6983
57.2793
18.3973
16.0995
15.3763
15.9477
17.776
20.9774
25.8179
32.7733
42.6983
57.2794
18.3973
16.0995
15.3763
15.9477
17.776
20.9774
25.8179
32.7734
42.6984
57.2795
18.3974
16.0996
15.3764
15.9478
17.7761
20.9775
25.818
32.7735
42.6985
57.2796
18.3974
16.0996
15.3764
15.9478
17.7762
20.9776
25.8181
32.7736
42.6986
57.2797
16.5543
15.1154
14.7128
15.3758
17.1565
20.1756
24.6402
30.8581
39.2321
50.1156
16.5543
15.1154
14.7127
15.3757
17.1564
20.1755
24.6401
30.858
39.2319
50.1154
16.5542
15.1153
14.7126
15.3756
17.1563
20.1754
24.64
30.8578
39.2318
50.1153
16.5542
15.1153
14.7126
15.3756
17.1562
20.1753
24.6399
30.8578
39.2317
50.1152
16.5541
15.1152
14.7125
15.3755
17.1562
20.1753
24.6399
30.8577
39.2317
50.1151
16.5541
15.1152
14.7125
15.3755
17.1562
20.1753
24.6399
30.8577
39.2316
50.1151
16.5542
15.1152
14.7126
15.3756
17.1562
20.1753
24.6399
30.8577
39.2317
50.1152
16.5542
15.1153
14.7126
15.3756
17.1563
20.1754
24.64
30.8578
39.2318
50.1152
16.5543
15.1153
14.7127
15.3757
17.1563
20.1754
24.64
30.8579
39.2319
50.1154
16.5543
15.1154
14.7127
15.3758
17.1564
20.1756
24.6402
30.858
39.232
50.1155
14.4452
13.676
13.6047
14.3605
16.0397
18.751
22.6283
27.8168
34.4119
42.2824
14.4451
13.6759
13.6047
14.3604
16.0396
18.7509
22.6281
27.8167
34.4118
42.2822
14.4451
13.6758
13.6046
14.3604
16.0395
18.7508
22.628
27.8166
34.4116
42.2821
14.445
13.6758
13.6045
14.3603
16.0395
18.7508
22.628
27.8165
34.4116
42.282
14.445
13.6757
13.6045
14.3603
16.0394
18.7507
22.6279
27.8165
34.4115
42.2819
14.445
13.6757
13.6045
14.3603
16.0394
18.7507
22.6279
27.8165
34.4115
42.2819
14.445
13.6758
13.6045
14.3603
16.0395
18.7507
22.628
27.8165
34.4115
42.282
14.4451
13.6758
13.6046
14.3603
16.0395
18.7508
22.628
27.8166
34.4116
42.2821
14.4451
13.6759
13.6046
14.3604
16.0396
18.7509
22.6281
27.8167
34.4117
42.2822
14.4452
13.6759
13.6047
14.3605
16.0397
18.751
22.6282
27.8168
34.4119
42.2824
12.4339
12.1015
12.2727
13.0766
14.6099
16.9568
20.1914
24.3576
29.4174
35.1544
12.4339
12.1015
12.2727
13.0765
14.6097
16.9567
20.1913
24.3575
29.4172
35.1542
12.4338
12.1014
12.2726
13.0764
14.6097
16.9566
20.1912
24.3574
29.4171
35.1541
12.4338
12.1014
12.2726
13.0764
14.6096
16.9565
20.1911
24.3573
29.417
35.154
12.4338
12.1014
12.2725
13.0764
14.6096
16.9565
20.1911
24.3573
29.417
35.154
12.4338
12.1014
12.2725
13.0764
14.6096
16.9565
20.1911
24.3573
29.417
35.154
12.4338
12.1014
12.2726
13.0764
14.6096
16.9565
20.1911
24.3573
29.417
35.154
12.4338
12.1014
12.2726
13.0764
14.6097
16.9566
20.1912
24.3574
29.4171
35.1541
12.4339
12.1015
12.2727
13.0765
14.6097
16.9567
20.1913
24.3575
29.4172
35.1542
12.434
12.1015
12.2727
13.0766
14.6098
16.9568
20.1914
24.3576
29.4174
35.1544
10.6181
10.5623
10.8861
11.691
13.0548
15.0353
17.6659
20.9397
24.7794
28.9985
10.618
10.5622
10.886
11.6909
13.0547
15.0352
17.6658
20.9395
24.7792
28.9984
10.6179
10.5622
10.886
11.6908
13.0546
15.0351
17.6657
20.9394
24.7791
28.9982
10.6179
10.5621
10.8859
11.6908
13.0546
15.0351
17.6656
20.9394
24.7791
28.9982
10.6179
10.5621
10.8859
11.6908
13.0546
15.035
17.6656
20.9393
24.779
28.9981
10.6179
10.5621
10.8859
11.6908
13.0546
15.035
17.6656
20.9393
24.779
28.9981
10.6179
10.5621
10.8859
11.6908
13.0546
15.0351
17.6656
20.9394
24.7791
28.9982
10.6179
10.5622
10.886
11.6908
13.0546
15.0351
17.6657
20.9394
24.7791
28.9982
10.618
10.5622
10.886
11.6909
13.0547
15.0352
17.6658
20.9395
24.7792
28.9984
10.6181
10.5623
10.8861
11.691
13.0548
15.0353
17.6659
20.9397
24.7794
28.9985
9.03018
9.15362
9.56706
10.3427
11.5362
13.1828
15.2906
17.8304
20.7225
23.8271
9.03011
9.15355
9.56699
10.3426
11.5362
13.1827
15.2905
17.8303
20.7223
23.8269
9.03006
9.1535
9.56693
10.3425
11.5361
13.1827
15.2904
17.8302
20.7223
23.8268
9.03003
9.15346
9.56689
10.3425
11.536
13.1826
15.2904
17.8302
20.7222
23.8268
9.03002
9.15345
9.56688
10.3425
11.536
13.1826
15.2904
17.8301
20.7222
23.8267
9.03002
9.15345
9.56688
10.3425
11.536
13.1826
15.2904
17.8301
20.7222
23.8267
9.03004
9.15347
9.5669
10.3425
11.536
13.1826
15.2904
17.8302
20.7222
23.8268
9.03007
9.15351
9.56694
10.3426
11.5361
13.1827
15.2904
17.8302
20.7223
23.8268
9.03013
9.15356
9.56699
10.3426
11.5362
13.1827
15.2905
17.8303
20.7224
23.8269
9.03019
9.15363
9.56707
10.3427
11.5362
13.1828
15.2906
17.8304
20.7225
23.8271
7.68387
7.93455
8.40348
9.13965
10.1808
11.5455
13.2258
15.1822
17.3396
19.5942
7.68381
7.93448
8.4034
9.13958
10.1808
11.5454
13.2257
15.1821
17.3395
19.5941
7.68377
7.93444
8.40335
9.13952
10.1807
11.5453
13.2257
15.182
17.3394
19.594
7.68374
7.9344
8.40332
9.13948
10.1807
11.5453
13.2256
15.1819
17.3394
19.5939
7.68373
7.93439
8.4033
9.13946
10.1806
11.5452
13.2256
15.1819
17.3393
19.5939
7.68373
7.93439
8.40331
9.13947
10.1806
11.5452
13.2256
15.1819
17.3393
19.5939
7.68375
7.93441
8.40332
9.13949
10.1807
11.5453
13.2256
15.182
17.3394
19.594
7.68378
7.93445
8.40336
9.13953
10.1807
11.5453
13.2257
15.182
17.3394
19.594
7.68383
7.9345
8.40342
9.13959
10.1808
11.5454
13.2258
15.1821
17.3395
19.5941
7.68389
7.93457
8.40349
9.13967
10.1809
11.5455
13.2259
15.1822
17.3397
19.5943
6.58622
6.94677
7.4603
8.16321
9.0832
10.2282
11.5795
13.0881
14.676
16.2515
6.58617
6.94671
7.46023
8.16313
9.08312
10.2281
11.5794
13.088
14.6759
16.2514
6.58613
6.94667
7.46019
8.16308
9.08307
10.228
11.5794
13.088
14.6758
16.2513
6.5861
6.94664
7.46016
8.16305
9.08303
10.228
11.5793
13.0879
14.6758
16.2512
6.58609
6.94663
7.46014
8.16303
9.08301
10.228
11.5793
13.0879
14.6757
16.2512
6.58609
6.94663
7.46015
8.16304
9.08301
10.228
11.5793
13.0879
14.6757
16.2512
6.58611
6.94665
7.46017
8.16306
9.08304
10.228
11.5793
13.0879
14.6758
16.2513
6.58614
6.94668
7.4602
8.1631
9.08308
10.2281
11.5794
13.088
14.6758
16.2513
6.58619
6.94673
7.46025
8.16315
9.08314
10.2281
11.5795
13.0881
14.6759
16.2514
6.58624
6.9468
7.46032
8.16323
9.08322
10.2282
11.5796
13.0882
14.676
16.2515
5.7477
6.22834
6.78912
7.47409
8.31188
9.30594
10.4293
11.6201
12.7794
13.7825
5.74765
6.22828
6.78906
7.47403
8.3118
9.30586
10.4292
11.62
12.7793
13.7824
5.74761
6.22824
6.78902
7.47398
8.31175
9.3058
10.4292
11.6199
12.7792
13.7824
5.74759
6.22822
6.78899
7.47395
8.31172
9.30576
10.4291
11.6199
12.7792
13.7823
5.74758
6.22821
6.78898
7.47393
8.3117
9.30575
10.4291
11.6199
12.7791
13.7823
5.74758
6.22821
6.78898
7.47394
8.31171
9.30575
10.4291
11.6199
12.7791
13.7823
5.7476
6.22823
6.789
7.47396
8.31173
9.30578
10.4291
11.6199
12.7792
13.7823
5.74763
6.22826
6.78904
7.474
8.31177
9.30582
10.4292
11.62
12.7792
13.7824
5.74767
6.22831
6.78909
7.47405
8.31183
9.30589
10.4293
11.62
12.7793
13.7825
5.74773
6.22837
6.78915
7.47412
8.31191
9.30597
10.4294
11.6201
12.7794
13.7826
5.21419
5.83018
6.43516
7.11648
7.9137
8.83054
9.83473
10.8511
11.7453
12.2834
5.21415
5.83014
6.43511
7.11643
7.91365
8.83048
9.83466
10.851
11.7452
12.2833
5.21412
5.8301
6.43508
7.11639
7.9136
8.83043
9.83461
10.851
11.7451
12.2832
5.2141
5.83008
6.43505
7.11636
7.91357
8.8304
9.83457
10.8509
11.7451
12.2832
5.21409
5.83007
6.43504
7.11635
7.91356
8.83038
9.83456
10.8509
11.7451
12.2832
5.21409
5.83007
6.43504
7.11635
7.91356
8.83039
9.83456
10.8509
11.7451
12.2832
5.21411
5.83009
6.43506
7.11637
7.91359
8.83041
9.83459
10.8509
11.7451
12.2832
5.21414
5.83012
6.4351
7.11641
7.91363
8.83045
9.83464
10.851
11.7452
12.2833
5.21417
5.83016
6.43514
7.11647
7.91368
8.83052
9.83471
10.8511
11.7452
12.2834
5.21423
5.83022
6.43521
7.11654
7.91376
8.8306
9.8348
10.8512
11.7453
12.2835
80.3736
90.9899
97.2212
101.393
104.351
106.485
108.011
109.063
109.723
110.042
80.3733
90.9896
97.2209
101.393
104.35
106.484
108.011
109.063
109.723
110.042
80.3731
90.9894
97.2207
101.392
104.35
106.484
108.011
109.063
109.723
110.041
80.373
90.9893
97.2206
101.392
104.35
106.484
108.011
109.062
109.723
110.041
80.3729
90.9892
97.2205
101.392
104.35
106.484
108.011
109.062
109.723
110.041
80.3729
90.9892
97.2205
101.392
104.35
106.484
108.011
109.062
109.723
110.041
80.373
90.9893
97.2206
101.392
104.35
106.484
108.011
109.063
109.723
110.041
80.3731
90.9894
97.2207
101.392
104.35
106.484
108.011
109.063
109.723
110.042
80.3732
90.9895
97.2209
101.393
104.35
106.484
108.011
109.063
109.723
110.042
80.3734
90.9897
97.2211
101.393
104.35
106.485
108.011
109.063
109.723
110.042
62.9622
72.1291
78.4067
82.7953
85.9285
88.1827
89.788
90.8894
91.5787
91.9106
62.962
72.1288
78.4065
82.7951
85.9282
88.1825
89.7877
90.8891
91.5784
91.9104
62.9618
72.1287
78.4063
82.7949
85.928
88.1823
89.7875
90.8889
91.5783
91.9103
62.9617
72.1285
78.4062
82.7947
85.9279
88.1822
89.7874
90.8888
91.5782
91.9102
62.9616
72.1285
78.4061
82.7947
85.9279
88.1821
89.7874
90.8888
91.5781
91.9101
62.9616
72.1285
78.4061
82.7947
85.9279
88.1821
89.7874
90.8888
91.5781
91.9101
62.9617
72.1285
78.4062
82.7948
85.9279
88.1822
89.7875
90.8889
91.5782
91.9102
62.9618
72.1286
78.4063
82.7949
85.9281
88.1823
89.7876
90.889
91.5784
91.9104
62.9619
72.1288
78.4064
82.7951
85.9283
88.1825
89.7878
90.8892
91.5786
91.9106
62.9621
72.129
78.4067
82.7953
85.9285
88.1828
89.7881
90.8895
91.5789
91.9109
50.6676
57.7083
63.1226
67.1685
70.1617
72.3558
73.9336
75.0219
75.7048
76.0341
50.6674
57.708
63.1224
67.1682
70.1614
72.3556
73.9334
75.0216
75.7046
76.0339
50.6673
57.7079
63.1222
67.168
70.1613
72.3554
73.9332
75.0214
75.7044
76.0338
50.6672
57.7078
63.1221
67.1679
70.1612
72.3553
73.9331
75.0213
75.7043
76.0337
50.6671
57.7077
63.122
67.1679
70.1611
72.3552
73.9331
75.0213
75.7043
76.0336
50.6671
57.7077
63.122
67.1679
70.1611
72.3552
73.9331
75.0213
75.7043
76.0337
50.6672
57.7078
63.1221
67.168
70.1612
72.3553
73.9332
75.0214
75.7044
76.0338
50.6673
57.7079
63.1222
67.1681
70.1613
72.3554
73.9333
75.0215
75.7045
76.0339
50.6674
57.708
63.1224
67.1683
70.1615
72.3556
73.9335
75.0217
75.7047
76.0341
50.6676
57.7082
63.1226
67.1685
70.1617
72.3559
73.9338
75.022
75.705
76.0344
41.0556
46.3562
50.7383
54.2003
56.8623
58.8641
60.3279
61.3483
61.9929
62.3048
41.0555
46.356
50.7381
54.2001
56.862
58.8639
60.3276
61.348
61.9927
62.3047
41.0553
46.3559
50.738
54.2
56.8619
58.8637
60.3275
61.3479
61.9925
62.3045
41.0552
46.3558
50.7379
54.1999
56.8618
58.8636
60.3274
61.3478
61.9924
62.3045
41.0552
46.3557
50.7378
54.1998
56.8617
58.8636
60.3273
61.3478
61.9924
62.3044
41.0552
46.3557
50.7378
54.1998
56.8617
58.8636
60.3274
61.3478
61.9924
62.3044
41.0552
46.3558
50.7379
54.1999
56.8618
58.8636
60.3274
61.3479
61.9925
62.3045
41.0553
46.3559
50.738
54.2
56.8619
58.8638
60.3276
61.348
61.9927
62.3047
41.0555
46.356
50.7381
54.2002
56.8621
58.8639
60.3278
61.3482
61.9929
62.3049
41.0556
46.3562
50.7384
54.2004
56.8623
58.8642
60.328
61.3484
61.9931
62.3051
33.2814
37.2526
40.6864
43.5155
45.7661
47.503
48.7972
49.7113
50.2938
50.5771
33.2813
37.2524
40.6863
43.5153
45.7659
47.5028
48.797
49.7111
50.2937
50.577
33.2811
37.2523
40.6861
43.5152
45.7658
47.5026
48.7968
49.711
50.2935
50.5769
33.2811
37.2522
40.686
43.5151
45.7657
47.5025
48.7967
49.7109
50.2934
50.5768
33.281
37.2522
40.686
43.515
45.7656
47.5025
48.7967
49.7109
50.2934
50.5768
33.281
37.2522
40.686
43.515
45.7657
47.5025
48.7967
49.7109
50.2934
50.5768
33.2811
37.2522
40.6861
43.5151
45.7657
47.5026
48.7968
49.711
50.2935
50.5769
33.2812
37.2523
40.6862
43.5152
45.7658
47.5027
48.7969
49.7111
50.2936
50.577
33.2813
37.2525
40.6863
43.5154
45.766
47.5029
48.7971
49.7113
50.2938
50.5772
33.2815
37.2526
40.6865
43.5156
45.7662
47.5031
48.7973
49.7115
50.2941
50.5774
26.9531
29.9011
32.5272
34.7613
36.5913
38.0382
39.1369
39.924
40.4303
40.678
26.953
29.901
32.527
34.7612
36.5911
38.038
39.1367
39.9238
40.4302
40.6778
26.9529
29.9009
32.5269
34.761
36.591
38.0378
39.1366
39.9236
40.4301
40.6777
26.9528
29.9008
32.5268
34.761
36.5909
38.0378
39.1365
39.9236
40.43
40.6777
26.9528
29.9007
32.5268
34.7609
36.5909
38.0377
39.1365
39.9235
40.43
40.6777
26.9528
29.9007
32.5268
34.7609
36.5909
38.0378
39.1365
39.9236
40.43
40.6777
26.9528
29.9008
32.5268
34.761
36.591
38.0378
39.1365
39.9236
40.4301
40.6778
26.9529
29.9009
32.5269
34.7611
36.5911
38.0379
39.1367
39.9238
40.4302
40.6779
26.953
29.901
32.5271
34.7612
36.5912
38.0381
39.1368
39.9239
40.4303
40.678
26.9532
29.9012
32.5272
34.7614
36.5914
38.0383
39.137
39.9241
40.4306
40.6783
21.8346
23.971
25.9217
27.6294
29.0666
30.2298
31.1299
31.7841
32.2092
32.4183
21.8345
23.9708
25.9215
27.6292
29.0664
30.2296
31.1298
31.7839
32.2091
32.4182
21.8344
23.9707
25.9214
27.6291
29.0663
30.2295
31.1296
31.7838
32.2089
32.4181
21.8343
23.9707
25.9214
27.629
29.0662
30.2294
31.1296
31.7837
32.2089
32.4181
21.8343
23.9706
25.9213
27.629
29.0662
30.2294
31.1296
31.7837
32.2089
32.4181
21.8343
23.9706
25.9213
27.629
29.0662
30.2294
31.1296
31.7837
32.2089
32.4181
21.8343
23.9707
25.9214
27.6291
29.0663
30.2295
31.1296
31.7838
32.209
32.4182
21.8344
23.9708
25.9215
27.6292
29.0664
30.2296
31.1297
31.7839
32.2091
32.4183
21.8345
23.9709
25.9216
27.6293
29.0665
30.2297
31.1299
31.7841
32.2092
32.4184
21.8347
23.971
25.9218
27.6295
29.0667
30.2299
31.1301
31.7843
32.2094
32.4186
17.7528
19.2133
20.5969
21.8524
22.9421
23.8463
24.5601
25.0866
25.4324
25.6035
17.7527
19.2132
20.5968
21.8523
22.9419
23.8462
24.56
25.0865
25.4323