/*--------------------------------*- C++ -*----------------------------------*\
  =========                 |
  \\      /  F ield         | OpenFOAM: The Open Source CFD Toolbox
   \\    /   O peration     | Website:  https://openfoam.org
    \\  /    A nd           | Version:  6
     \\/     M anipulation  |
\*---------------------------------------------------------------------------*/
FoamFile
{
    version     2.0;
    format      ascii;
    class       volScalarField;
    location    "0.345";
    object      T;
}
// * * * * * * * * * * * * * * * * * * * * * * * * * * * * * * * * * * * * * //

dimensions      [0 0 0 1 0 0 0];

internalField   nonuniform List<scalar> 
7000
(
104.692
104.691
104.689
104.685
104.681
104.677
104.672
104.668
104.664
104.663
104.692
104.691
104.689
104.685
104.681
104.677
104.672
104.668
104.664
104.663
104.692
104.691
104.689
104.685
104.681
104.677
104.672
104.668
104.664
104.663
104.692
104.691
104.689
104.685
104.681
104.677
104.672
104.668
104.664
104.663
104.692
104.691
104.689
104.685
104.681
104.677
104.672
104.668
104.664
104.663
104.692
104.691
104.689
104.685
104.681
104.677
104.672
104.668
104.664
104.663
104.692
104.691
104.689
104.685
104.681
104.677
104.672
104.668
104.664
104.663
104.692
104.691
104.689
104.685
104.681
104.677
104.672
104.668
104.664
104.663
104.692
104.691
104.689
104.685
104.681
104.677
104.672
104.668
104.664
104.663
104.692
104.691
104.689
104.685
104.681
104.677
104.672
104.668
104.664
104.663
94.1524
94.1488
94.1417
94.1314
94.1186
94.1041
94.0893
94.0757
94.0653
94.0596
94.1524
94.1487
94.1416
94.1314
94.1186
94.1041
94.0892
94.0757
94.0653
94.0596
94.1524
94.1487
94.1416
94.1314
94.1185
94.1041
94.0892
94.0757
94.0652
94.0596
94.1523
94.1487
94.1416
94.1314
94.1185
94.104
94.0892
94.0756
94.0652
94.0596
94.1523
94.1487
94.1416
94.1313
94.1185
94.104
94.0892
94.0756
94.0652
94.0596
94.1523
94.1487
94.1416
94.1313
94.1185
94.104
94.0892
94.0756
94.0652
94.0596
94.1523
94.1487
94.1416
94.1313
94.1185
94.104
94.0892
94.0756
94.0652
94.0596
94.1523
94.1487
94.1416
94.1314
94.1185
94.104
94.0892
94.0757
94.0652
94.0596
94.1524
94.1487
94.1416
94.1314
94.1186
94.1041
94.0892
94.0757
94.0653
94.0596
94.1524
94.1487
94.1416
94.1314
94.1186
94.1041
94.0892
94.0757
94.0653
94.0596
83.8387
83.8322
83.8195
83.801
83.7777
83.7511
83.7236
83.6981
83.6783
83.6675
83.8386
83.8322
83.8194
83.801
83.7777
83.7511
83.7235
83.6981
83.6783
83.6674
83.8386
83.8321
83.8194
83.8009
83.7776
83.751
83.7235
83.698
83.6782
83.6674
83.8386
83.8321
83.8194
83.8009
83.7776
83.751
83.7234
83.698
83.6782
83.6674
83.8385
83.8321
83.8194
83.8009
83.7776
83.751
83.7234
83.698
83.6782
83.6673
83.8385
83.8321
83.8194
83.8009
83.7776
83.751
83.7234
83.698
83.6782
83.6673
83.8385
83.8321
83.8194
83.8009
83.7776
83.751
83.7234
83.698
83.6782
83.6674
83.8386
83.8321
83.8194
83.8009
83.7776
83.751
83.7234
83.698
83.6782
83.6674
83.8386
83.8321
83.8194
83.801
83.7777
83.751
83.7235
83.698
83.6783
83.6674
83.8386
83.8321
83.8195
83.801
83.7777
83.7511
83.7235
83.6981
83.6783
83.6675
73.8908
73.8808
73.8612
73.8325
73.7957
73.7531
73.7081
73.6659
73.6324
73.6138
73.8907
73.8808
73.8611
73.8324
73.7956
73.753
73.708
73.6658
73.6324
73.6138
73.8907
73.8807
73.8611
73.8323
73.7956
73.7529
73.708
73.6657
73.6323
73.6137
73.8906
73.8807
73.8611
73.8323
73.7955
73.7529
73.7079
73.6657
73.6323
73.6137
73.8906
73.8806
73.861
73.8323
73.7955
73.7529
73.7079
73.6657
73.6323
73.6137
73.8906
73.8806
73.861
73.8323
73.7955
73.7529
73.7079
73.6657
73.6323
73.6137
73.8906
73.8807
73.861
73.8323
73.7955
73.7529
73.7079
73.6657
73.6323
73.6137
73.8906
73.8807
73.8611
73.8323
73.7955
73.7529
73.708
73.6657
73.6323
73.6137
73.8907
73.8807
73.8611
73.8324
73.7956
73.753
73.708
73.6658
73.6324
73.6138
73.8907
73.8808
73.8612
73.8324
73.7956
73.753
73.7081
73.6658
73.6324
73.6138
64.4336
64.4193
64.3911
64.3491
64.2946
64.2301
64.1604
64.0931
64.0385
64.0074
64.4335
64.4193
64.391
64.349
64.2945
64.23
64.1603
64.093
64.0384
64.0073
64.4334
64.4192
64.3909
64.349
64.2944
64.2299
64.1602
64.0929
64.0383
64.0073
64.4334
64.4191
64.3909
64.3489
64.2944
64.2299
64.1602
64.0929
64.0383
64.0073
64.4333
64.4191
64.3908
64.3489
64.2944
64.2298
64.1601
64.0929
64.0383
64.0072
64.4333
64.4191
64.3908
64.3489
64.2944
64.2298
64.1601
64.0929
64.0383
64.0072
64.4333
64.4191
64.3909
64.3489
64.2944
64.2299
64.1602
64.0929
64.0383
64.0073
64.4334
64.4192
64.3909
64.3489
64.2944
64.2299
64.1602
64.093
64.0384
64.0073
64.4334
64.4192
64.3909
64.349
64.2945
64.23
64.1603
64.093
64.0384
64.0074
64.4335
64.4193
64.391
64.3491
64.2946
64.23
64.1603
64.0931
64.0385
64.0074
55.5723
55.5529
55.514
55.4553
55.3775
55.283
55.1776
55.0721
54.9831
54.9308
55.5722
55.5528
55.5139
55.4552
55.3774
55.2829
55.1775
55.072
54.983
54.9307
55.5722
55.5527
55.5138
55.4551
55.3773
55.2828
55.1774
55.072
54.983
54.9306
55.5721
55.5527
55.5137
55.4551
55.3773
55.2828
55.1774
55.0719
54.9829
54.9306
55.5721
55.5527
55.5137
55.455
55.3773
55.2828
55.1774
55.0719
54.9829
54.9306
55.5721
55.5527
55.5137
55.455
55.3772
55.2828
55.1774
55.0719
54.9829
54.9306
55.5721
55.5527
55.5137
55.4551
55.3773
55.2828
55.1774
55.0719
54.983
54.9306
55.5721
55.5527
55.5138
55.4551
55.3773
55.2828
55.1775
55.072
54.983
54.9307
55.5722
55.5528
55.5138
55.4552
55.3774
55.2829
55.1775
55.072
54.9831
54.9307
55.5723
55.5529
55.5139
55.4553
55.3775
55.283
55.1776
55.0721
54.9832
54.9308
47.3898
47.3643
47.3126
47.2335
47.1261
46.9915
46.8351
46.6707
46.524
46.4328
47.3896
47.3642
47.3125
47.2334
47.126
46.9914
46.835
46.6706
46.5239
46.4327
47.3896
47.3641
47.3124
47.2333
47.126
46.9913
46.835
46.6706
46.5239
46.4326
47.3895
47.364
47.3124
47.2333
47.1259
46.9913
46.8349
46.6705
46.5238
46.4326
47.3895
47.364
47.3123
47.2333
47.1259
46.9913
46.8349
46.6705
46.5238
46.4326
47.3895
47.364
47.3123
47.2333
47.1259
46.9913
46.8349
46.6705
46.5238
46.4326
47.3895
47.364
47.3124
47.2333
47.1259
46.9913
46.8349
46.6705
46.5238
46.4326
47.3895
47.3641
47.3124
47.2333
47.126
46.9913
46.835
46.6706
46.5239
46.4327
47.3896
47.3641
47.3125
47.2334
47.126
46.9914
46.8351
46.6707
46.524
46.4327
47.3897
47.3642
47.3126
47.2335
47.1261
46.9915
46.8352
46.6708
46.5241
46.4328
39.9441
39.9119
39.8461
39.7436
39.6006
39.4147
39.1877
38.9331
38.6864
38.5179
39.944
39.9118
39.846
39.7435
39.6005
39.4146
39.1876
38.933
38.6864
38.5178
39.9439
39.9118
39.846
39.7434
39.6004
39.4145
39.1876
38.9329
38.6863
38.5177
39.9438
39.9117
39.8459
39.7434
39.6004
39.4144
39.1875
38.9329
38.6863
38.5177
39.9438
39.9117
39.8459
39.7433
39.6004
39.4144
39.1875
38.9329
38.6862
38.5177
39.9438
39.9117
39.8459
39.7433
39.6004
39.4144
39.1875
38.9329
38.6862
38.5177
39.9438
39.9117
39.8459
39.7434
39.6004
39.4144
39.1875
38.9329
38.6863
38.5177
39.9439
39.9117
39.8459
39.7434
39.6004
39.4145
39.1876
38.933
38.6863
38.5178
39.9439
39.9118
39.846
39.7435
39.6005
39.4146
39.1877
38.933
38.6864
38.5179
39.944
39.9119
39.8461
39.7436
39.6006
39.4147
39.1878
38.9331
38.6865
38.518
33.2689
33.2302
33.15
33.0229
32.8408
32.5944
32.276
31.8881
31.4652
31.1249
33.2688
33.2301
33.1499
33.0228
32.8407
32.5943
32.2759
31.888
31.4651
31.1249
33.2687
33.23
33.1498
33.0227
32.8406
32.5942
32.2759
31.8879
31.465
31.1248
33.2687
33.2299
33.1498
33.0226
32.8406
32.5942
32.2758
31.8879
31.465
31.1248
33.2687
33.2299
33.1498
33.0226
32.8405
32.5942
32.2758
31.8878
31.465
31.1247
33.2687
33.2299
33.1498
33.0226
32.8405
32.5942
32.2758
31.8878
31.465
31.1248
33.2687
33.2299
33.1498
33.0226
32.8406
32.5942
32.2758
31.8879
31.465
31.1248
33.2687
33.23
33.1498
33.0227
32.8406
32.5942
32.2759
31.8879
31.4651
31.1248
33.2688
33.2301
33.1499
33.0228
32.8407
32.5943
32.276
31.888
31.4651
31.1249
33.2689
33.2302
33.15
33.0229
32.8408
32.5944
32.2761
31.8881
31.4652
31.125
27.3741
27.3296
27.2368
27.0874
26.8683
26.5606
26.1389
25.5732
24.8478
24.0723
27.374
27.3295
27.2367
27.0873
26.8682
26.5605
26.1388
25.5731
24.8477
24.0723
27.3739
27.3294
27.2366
27.0872
26.8681
26.5604
26.1388
25.5731
24.8476
24.0722
27.3738
27.3294
27.2366
27.0872
26.8681
26.5604
26.1387
25.573
24.8476
24.0722
27.3738
27.3294
27.2366
27.0872
26.8681
26.5604
26.1387
25.573
24.8476
24.0722
27.3738
27.3294
27.2366
27.0872
26.8681
26.5604
26.1387
25.573
24.8476
24.0722
27.3738
27.3294
27.2366
27.0872
26.8681
26.5604
26.1387
25.573
24.8476
24.0722
27.3739
27.3294
27.2366
27.0873
26.8681
26.5605
26.1388
25.5731
24.8477
24.0723
27.374
27.3295
27.2367
27.0873
26.8682
26.5605
26.1389
25.5732
24.8478
24.0723
27.374
27.3296
27.2368
27.0874
26.8683
26.5606
26.139
25.5733
24.8479
24.0724
22.2472
22.1989
22.0974
21.9326
21.687
21.3334
20.8271
20.087
18.9371
16.8907
22.2471
22.1988
22.0973
21.9325
21.6869
21.3333
20.827
20.0869
18.937
16.8906
22.247
22.1987
22.0973
21.9324
21.6869
21.3333
20.8269
20.0869
18.937
16.8905
22.247
22.1986
22.0972
21.9324
21.6868
21.3332
20.8269
20.0868
18.9369
16.8905
22.247
22.1986
22.0972
21.9323
21.6868
21.3332
20.8269
20.0868
18.9369
16.8905
22.247
22.1986
22.0972
21.9323
21.6868
21.3332
20.8269
20.0868
18.9369
16.8905
22.247
22.1987
22.0972
21.9324
21.6868
21.3332
20.8269
20.0869
18.9369
16.8905
22.247
22.1987
22.0973
21.9324
21.6869
21.3333
20.827
20.0869
18.937
16.8906
22.2471
22.1988
22.0973
21.9325
21.687
21.3334
20.827
20.087
18.9371
16.8906
22.2472
22.1989
22.0974
21.9326
21.6871
21.3335
20.8271
20.0871
18.9372
16.8907
17.8565
17.8069
17.7025
17.5326
17.2791
16.9133
16.3905
15.6377
14.5333
12.8907
17.8565
17.8068
17.7024
17.5325
17.279
16.9132
16.3904
15.6376
14.5332
12.8906
17.8564
17.8067
17.7024
17.5325
17.2789
16.9131
16.3903
15.6376
14.5332
12.8906
17.8563
17.8067
17.7023
17.5324
17.2789
16.9131
16.3903
15.6375
14.5331
12.8905
17.8563
17.8067
17.7023
17.5324
17.2789
16.9131
16.3903
15.6375
14.5331
12.8905
17.8563
17.8067
17.7023
17.5324
17.2789
16.9131
16.3903
15.6375
14.5331
12.8905
17.8563
17.8067
17.7023
17.5325
17.2789
16.9131
16.3903
15.6375
14.5331
12.8906
17.8564
17.8067
17.7024
17.5325
17.2789
16.9132
16.3904
15.6376
14.5332
12.8906
17.8565
17.8068
17.7025
17.5326
17.279
16.9133
16.3905
15.6377
14.5333
12.8907
17.8565
17.8069
17.7026
17.5327
17.2791
16.9133
16.3905
15.6378
14.5334
12.8907
14.1541
14.1059
14.0048
13.841
13.5986
13.2543
12.7748
12.1162
11.2277
10.0832
14.154
14.1058
14.0047
13.8409
13.5986
13.2542
12.7748
12.1161
11.2277
10.0831
14.154
14.1057
14.0046
13.8408
13.5985
13.2541
12.7747
12.116
11.2276
10.0831
14.1539
14.1057
14.0046
13.8408
13.5985
13.2541
12.7747
12.116
11.2276
10.083
14.1539
14.1057
14.0046
13.8408
13.5985
13.2541
12.7747
12.116
11.2276
10.083
14.1539
14.1057
14.0046
13.8408
13.5985
13.2541
12.7747
12.116
11.2276
10.083
14.1539
14.1057
14.0046
13.8408
13.5985
13.2541
12.7747
12.116
11.2276
10.0831
14.154
14.1057
14.0046
13.8409
13.5985
13.2542
12.7747
12.1161
11.2277
10.0831
14.154
14.1058
14.0047
13.8409
13.5986
13.2542
12.7748
12.1161
11.2277
10.0832
14.1541
14.1059
14.0048
13.841
13.5987
13.2543
12.7749
12.1162
11.2278
10.0832
11.0798
11.0353
10.9427
10.794
10.5774
10.2766
9.8723
9.34492
8.68533
7.9191
11.0797
11.0353
10.9426
10.7939
10.5773
10.2766
9.87223
9.34486
8.68527
7.91904
11.0796
11.0352
10.9426
10.7939
10.5773
10.2765
9.87219
9.34481
8.68522
7.91899
11.0796
11.0352
10.9425
10.7939
10.5772
10.2765
9.87216
9.34478
8.6852
7.91897
11.0796
11.0352
10.9425
10.7939
10.5772
10.2765
9.87215
9.34477
8.68518
7.91896
11.0796
11.0352
10.9425
10.7939
10.5772
10.2765
9.87216
9.34478
8.68519
7.91896
11.0796
11.0352
10.9425
10.7939
10.5773
10.2765
9.87218
9.3448
8.68521
7.91898
11.0797
11.0352
10.9426
10.7939
10.5773
10.2766
9.87222
9.34484
8.68525
7.91902
11.0797
11.0353
10.9426
10.794
10.5774
10.2766
9.87228
9.3449
8.68531
7.91908
11.0798
11.0353
10.9427
10.7941
10.5774
10.2767
9.87236
9.34498
8.68538
7.91915
8.56558
8.52657
8.44582
8.31784
8.13479
7.88732
7.56658
7.16851
6.702
6.20228
8.56552
8.52651
8.44576
8.31779
8.13473
7.88726
7.56653
7.16846
6.70195
6.20222
8.56548
8.52646
8.44572
8.31774
8.13469
7.88722
7.56649
7.16842
6.70191
6.20219
8.56545
8.52644
8.44569
8.31772
8.13467
7.8872
7.56647
7.1684
6.70189
6.20216
8.56544
8.52643
8.44568
8.31771
8.13466
7.88719
7.56646
7.16839
6.70188
6.20215
8.56544
8.52643
8.44568
8.31771
8.13466
7.88719
7.56646
7.1684
6.70188
6.20216
8.56546
8.52645
8.44571
8.31773
8.13468
7.88722
7.56649
7.16842
6.7019
6.20218
8.56549
8.52648
8.44574
8.31777
8.13472
7.88725
7.56652
7.16845
6.70194
6.20221
8.56554
8.52653
8.44579
8.31782
8.13478
7.88731
7.56657
7.1685
6.70199
6.20226
8.56559
8.5266
8.44586
8.31789
8.13485
7.88738
7.56664
7.16857
6.70205
6.20233
6.54009
6.50732
6.44004
6.33487
6.18745
5.99364
5.75162
5.46539
5.14988
4.83708
6.54004
6.50727
6.43999
6.33482
6.1874
5.99359
5.75158
5.46534
5.14983
4.83703
6.54
6.50724
6.43996
6.33478
6.18737
5.99356
5.75154
5.46531
5.1498
4.837
6.53998
6.50721
6.43993
6.33476
6.18734
5.99354
5.75152
5.46529
5.14978
4.83697
6.53997
6.5072
6.43993
6.33475
6.18734
5.99353
5.75152
5.46528
5.14977
4.83697
6.53997
6.50721
6.43993
6.33476
6.18734
5.99354
5.75152
5.46529
5.14978
4.83697
6.53999
6.50722
6.43995
6.33478
6.18736
5.99356
5.75154
5.4653
5.1498
4.83699
6.54002
6.50725
6.43998
6.33481
6.18739
5.99359
5.75157
5.46534
5.14983
4.83702
6.54006
6.5073
6.44002
6.33485
6.18744
5.99364
5.75162
5.46538
5.14987
4.83706
6.5401
6.50735
6.44008
6.33492
6.1875
5.9937
5.75168
5.46544
5.14993
4.83712
4.93216
4.90572
4.85189
4.76897
4.65522
4.51006
4.33588
4.14059
3.9405
3.76225
4.93212
4.90568
4.85185
4.76893
4.65518
4.51002
4.33584
4.14055
3.94046
3.76221
4.93209
4.90565
4.85182
4.7689
4.65515
4.50999
4.33581
4.14052
3.94043
3.76218
4.93207
4.90563
4.8518
4.76888
4.65514
4.50998
4.3358
4.1405
3.94041
3.76216
4.93206
4.90562
4.85179
4.76887
4.65513
4.50997
4.33579
4.1405
3.94041
3.76215
4.93207
4.90563
4.8518
4.76888
4.65513
4.50998
4.3358
4.1405
3.94041
3.76216
4.93208
4.90564
4.85181
4.76889
4.65515
4.50999
4.33581
4.14052
3.94043
3.76218
4.93211
4.90567
4.85184
4.76892
4.65518
4.51002
4.33584
4.14055
3.94046
3.7622
4.93214
4.9057
4.85188
4.76896
4.65522
4.51006
4.33588
4.14058
3.94049
3.76224
4.93218
4.90575
4.85193
4.76901
4.65527
4.51011
4.33593
4.14063
3.94054
3.76229
3.67404
3.65346
3.61195
3.549
3.46464
3.3605
3.24142
3.11738
3.00552
2.93008
3.674
3.65343
3.61192
3.54897
3.4646
3.36047
3.24138
3.11735
3.00548
2.93004
3.67398
3.6534
3.61189
3.54894
3.46458
3.36045
3.24136
3.11733
3.00546
2.93002
3.67396
3.65339
3.61188
3.54893
3.46457
3.36043
3.24135
3.11731
3.00545
2.93
3.67396
3.65338
3.61187
3.54892
3.46456
3.36043
3.24134
3.11731
3.00544
2.93
3.67396
3.65338
3.61188
3.54893
3.46457
3.36043
3.24135
3.11731
3.00545
2.93
3.67397
3.6534
3.61189
3.54894
3.46458
3.36045
3.24136
3.11733
3.00546
2.93001
3.67399
3.65342
3.61191
3.54897
3.4646
3.36047
3.24138
3.11735
3.00548
2.93004
3.67402
3.65345
3.61195
3.549
3.46464
3.3605
3.24142
3.11738
3.00552
2.93007
3.67405
3.65349
3.61199
3.54904
3.46468
3.36055
3.24146
3.11742
3.00556
2.93011
2.70349
2.688
2.65704
2.61086
2.55052
2.47886
2.40189
2.33093
2.28535
2.29515
2.70346
2.68797
2.65702
2.61084
2.5505
2.47883
2.40187
2.3309
2.28532
2.29512
2.70344
2.68795
2.657
2.61082
2.55048
2.47881
2.40185
2.33089
2.2853
2.2951
2.70343
2.68794
2.65698
2.61081
2.55047
2.4788
2.40184
2.33087
2.28529
2.29509
2.70342
2.68793
2.65698
2.6108
2.55046
2.4788
2.40183
2.33087
2.28529
2.29508
2.70342
2.68794
2.65698
2.61081
2.55047
2.4788
2.40184
2.33087
2.28529
2.29509
2.70343
2.68795
2.657
2.61082
2.55048
2.47881
2.40185
2.33089
2.2853
2.2951
2.70345
2.68797
2.65701
2.61084
2.5505
2.47883
2.40187
2.33091
2.28532
2.29512
2.70348
2.68799
2.65704
2.61086
2.55053
2.47886
2.4019
2.33093
2.28535
2.29515
2.7035
2.68802
2.65708
2.6109
2.55056
2.4789
2.40193
2.33097
2.28538
2.29518
1.96516
1.95384
1.93144
1.89855
1.85668
1.80894
1.76131
1.72473
1.72012
1.79396
1.96514
1.95382
1.93141
1.89853
1.85666
1.80892
1.76128
1.72471
1.7201
1.79394
1.96513
1.95381
1.9314
1.89851
1.85664
1.80891
1.76127
1.7247
1.72008
1.79392
1.96512
1.9538
1.93139
1.89851
1.85664
1.8089
1.76126
1.72469
1.72007
1.79391
1.96511
1.95379
1.93139
1.8985
1.85663
1.8089
1.76126
1.72469
1.72007
1.79391
1.96511
1.9538
1.93139
1.89851
1.85664
1.8089
1.76126
1.72469
1.72008
1.79391
1.96512
1.95381
1.9314
1.89852
1.85665
1.80891
1.76127
1.7247
1.72009
1.79392
1.96514
1.95382
1.93141
1.89853
1.85666
1.80892
1.76129
1.72472
1.7201
1.79394
1.96516
1.95384
1.93144
1.89855
1.85668
1.80895
1.76131
1.72474
1.72012
1.79396
1.96518
1.95387
1.93146
1.89858
1.85671
1.80898
1.76134
1.72477
1.72015
1.79399
12.2517
9.81847
8.7605
8.78512
9.83875
12.0212
15.5812
20.9725
29.0111
41.2957
12.2517
9.81839
8.76041
8.78503
9.83865
12.021
15.581
20.9724
29.0109
41.2954
12.2516
9.81833
8.76035
8.78496
9.83857
12.0209
15.5809
20.9722
29.0107
41.2953
12.2516
9.81829
8.76031
8.78491
9.83852
12.0209
15.5809
20.9721
29.0106
41.2952
12.2516
9.81828
8.76029
8.78489
9.83849
12.0209
15.5808
20.9721
29.0106
41.2951
12.2516
9.81828
8.76029
8.78489
9.83849
12.0208
15.5808
20.9721
29.0106
41.2951
12.2516
9.8183
8.76031
8.78491
9.83851
12.0209
15.5808
20.9721
29.0106
41.2951
12.2516
9.81834
8.76035
8.78494
9.83855
12.0209
15.5809
20.9722
29.0107
41.2952
12.2517
9.81839
8.7604
8.785
9.8386
12.021
15.581
20.9723
29.0108
41.2954
12.2518
9.81845
8.76046
8.78506
9.83867
12.0211
15.5811
20.9724
29.0109
41.2955
10.5984
8.98679
8.23838
8.35951
9.38417
11.4187
14.6587
19.4045
26.0571
34.9897
10.5983
8.98672
8.2383
8.35943
9.38407
11.4185
14.6586
19.4043
26.0569
34.9895
10.5982
8.98666
8.23824
8.35936
9.384
11.4184
14.6585
19.4042
26.0567
34.9893
10.5982
8.98663
8.2382
8.35932
9.38395
11.4184
14.6584
19.4041
26.0566
34.9892
10.5982
8.98661
8.23819
8.35929
9.38392
11.4184
14.6584
19.4041
26.0566
34.9891
10.5982
8.98661
8.23819
8.35929
9.38392
11.4184
14.6584
19.4041
26.0566
34.9891
10.5982
8.98663
8.23821
8.35931
9.38394
11.4184
14.6584
19.4041
26.0566
34.9892
10.5983
8.98667
8.23824
8.35935
9.38398
11.4184
14.6585
19.4042
26.0567
34.9893
10.5983
8.98673
8.2383
8.35941
9.38404
11.4185
14.6586
19.4042
26.0568
34.9894
10.5984
8.9868
8.23837
8.35949
9.38412
11.4186
14.6587
19.4044
26.057
34.9896
8.79029
7.81681
7.39103
7.61766
8.5759
10.3636
13.1106
16.9682
22.0532
28.2876
8.79022
7.81674
7.39095
7.61757
8.5758
10.3635
13.1105
16.9681
22.0531
28.2874
8.79017
7.81669
7.3909
7.61751
8.57573
10.3634
13.1104
16.9679
22.0529
28.2873
8.79014
7.81666
7.39086
7.61747
8.57569
10.3633
13.1104
16.9679
22.0528
28.2872
8.79013
7.81664
7.39084
7.61745
8.57566
10.3633
13.1103
16.9678
22.0528
28.2871
8.79014
7.81664
7.39084
7.61745
8.57566
10.3633
13.1103
16.9678
22.0528
28.2871
8.79016
7.81667
7.39086
7.61747
8.57568
10.3633
13.1103
16.9679
22.0528
28.2872
8.7902
7.8167
7.3909
7.61751
8.57572
10.3634
13.1104
16.9679
22.0529
28.2873
8.79025
7.81676
7.39096
7.61757
8.57579
10.3634
13.1105
16.968
22.053
28.2874
8.79033
7.81683
7.39103
7.61765
8.57587
10.3635
13.1106
16.9682
22.0532
28.2876
7.15081
6.59213
6.4062
6.70143
7.56058
9.06128
11.2797
14.2732
18.0335
22.3968
7.15074
6.59206
6.40613
6.70135
7.56049
9.06118
11.2795
14.2731
18.0333
22.3966
7.1507
6.59201
6.40608
6.70129
7.56043
9.06111
11.2795
14.273
18.0332
22.3965
7.15067
6.59198
6.40604
6.70125
7.56038
9.06106
11.2794
14.2729
18.0331
22.3964
7.15066
6.59197
6.40603
6.70124
7.56036
9.06104
11.2794
14.2729
18.0331
22.3964
7.15066
6.59197
6.40603
6.70124
7.56036
9.06104
11.2794
14.2729
18.0331
22.3964
7.15068
6.59199
6.40605
6.70126
7.56038
9.06106
11.2794
14.2729
18.0331
22.3964
7.15072
6.59203
6.40609
6.7013
7.56043
9.0611
11.2795
14.273
18.0332
22.3965
7.15077
6.59208
6.40614
6.70135
7.56049
9.06117
11.2795
14.2731
18.0333
22.3967
7.15084
6.59215
6.40621
6.70143
7.56057
9.06127
11.2796
14.2732
18.0335
22.3968
5.74574
5.44794
5.41692
5.73867
6.48122
7.69965
9.43368
11.6934
14.431
17.5035
5.74569
5.44788
5.41685
5.7386
6.48114
7.69956
9.43358
11.6932
14.4309
17.5034
5.74565
5.44784
5.41681
5.73855
6.48108
7.6995
9.4335
11.6932
14.4308
17.5033
5.74563
5.44781
5.41678
5.73852
6.48105
7.69946
9.43345
11.6931
14.4307
17.5032
5.74562
5.4478
5.41676
5.7385
6.48103
7.69943
9.43343
11.6931
14.4307
17.5032
5.74562
5.4478
5.41677
5.73851
6.48103
7.69943
9.43343
11.6931
14.4307
17.5032
5.74564
5.44782
5.41679
5.73853
6.48105
7.69946
9.43346
11.6931
14.4307
17.5032
5.74567
5.44785
5.41682
5.73856
6.48109
7.6995
9.43351
11.6932
14.4308
17.5033
5.74572
5.4479
5.41687
5.73861
6.48115
7.69957
9.43358
11.6933
14.4309
17.5034
5.74578
5.44797
5.41694
5.73869
6.48122
7.69966
9.43368
11.6934
14.431
17.5036
4.57972
4.4468
4.50873
4.82739
5.45261
6.42026
7.74765
9.42393
11.3966
13.56
4.57967
4.44675
4.50868
4.82733
5.45254
6.42018
7.74756
9.42383
11.3965
13.5599
4.57963
4.44671
4.50864
4.82729
5.45249
6.42013
7.74749
9.42375
11.3964
13.5598
4.57961
4.44669
4.50861
4.82726
5.45245
6.42009
7.74745
9.4237
11.3964
13.5597
4.5796
4.44668
4.5086
4.82724
5.45244
6.42007
7.74743
9.42368
11.3964
13.5597
4.57961
4.44668
4.5086
4.82725
5.45244
6.42007
7.74743
9.42368
11.3964
13.5597
4.57963
4.4467
4.50862
4.82726
5.45246
6.42009
7.74745
9.42371
11.3964
13.5597
4.57966
4.44673
4.50865
4.8273
5.4525
6.42013
7.7475
9.42377
11.3965
13.5598
4.5797
4.44677
4.5087
4.82735
5.45255
6.42019
7.74757
9.42384
11.3966
13.5599
4.57976
4.44683
4.50876
4.82741
5.45262
6.42027
7.74766
9.42395
11.3967
13.5601
3.64138
3.61717
3.73434
4.03585
4.55644
5.31784
6.32383
7.55451
8.96131
10.4679
3.64134
3.61713
3.73429
4.03579
4.55638
5.31777
6.32375
7.55442
8.96122
10.4678
3.64131
3.61709
3.73425
4.03575
4.55633
5.31772
6.3237
7.55435
8.96114
10.4677
3.64129
3.61707
3.73423
4.03572
4.5563
5.31769
6.32366
7.55431
8.9611
10.4677
3.64128
3.61707
3.73422
4.03571
4.55629
5.31767
6.32364
7.55429
8.96108
10.4677
3.64129
3.61707
3.73422
4.03572
4.55629
5.31768
6.32365
7.55429
8.96108
10.4677
3.6413
3.61708
3.73424
4.03573
4.55631
5.3177
6.32367
7.55432
8.96111
10.4677
3.64133
3.61711
3.73427
4.03576
4.55635
5.31773
6.32371
7.55437
8.96117
10.4678
3.64137
3.61715
3.73431
4.03581
4.55639
5.31779
6.32377
7.55444
8.96125
10.4678
3.64142
3.6172
3.73436
4.03587
4.55646
5.31786
6.32386
7.55453
8.96135
10.468
2.91602
2.97213
3.12582
3.40883
3.84644
4.45118
5.21824
6.12167
7.11329
8.12994
2.91598
2.97209
3.12578
3.40878
3.84638
4.45112
5.21817
6.12159
7.11321
8.12984
2.91596
2.97206
3.12575
3.40875
3.84634
4.45107
5.21812
6.12154
7.11315
8.12978
2.91594
2.97205
3.12573
3.40873
3.84632
4.45105
5.21809
6.1215
7.11311
8.12974
2.91594
2.97204
3.12572
3.40872
3.84631
4.45103
5.21808
6.12149
7.11309
8.12972
2.91594
2.97204
3.12572
3.40872
3.84631
4.45104
5.21808
6.12149
7.1131
8.12973
2.91595
2.97206
3.12574
3.40874
3.84633
4.45106
5.2181
6.12152
7.11313
8.12976
2.91598
2.97208
3.12576
3.40876
3.84636
4.45109
5.21814
6.12156
7.11318
8.12981
2.91601
2.97212
3.1258
3.40881
3.84641
4.45114
5.2182
6.12162
7.11325
8.12989
2.91606
2.97216
3.12585
3.40886
3.84646
4.45121
5.21827
6.12171
7.11334
8.12999
2.39284
2.52088
2.7042
2.97509
3.35628
3.85563
4.4624
5.14351
5.84096
6.47679
2.3928
2.52084
2.70416
2.97505
3.35623
3.85558
4.46234
5.14344
5.84089
6.47671
2.39278
2.52082
2.70413
2.97501
3.3562
3.85554
4.4623
5.14339
5.84084
6.47666
2.39277
2.5208
2.70412
2.975
3.35618
3.85551
4.46227
5.14336
5.8408
6.47663
2.39276
2.52079
2.70411
2.97499
3.35617
3.8555
4.46226
5.14335
5.84079
6.47661
2.39277
2.5208
2.70411
2.97499
3.35617
3.85551
4.46226
5.14336
5.84079
6.47662
2.39278
2.52081
2.70413
2.97501
3.35619
3.85553
4.46228
5.14338
5.84082
6.47665
2.3928
2.52083
2.70415
2.97503
3.35622
3.85556
4.46232
5.14342
5.84086
6.47669
2.39283
2.52087
2.70419
2.97507
3.35626
3.85561
4.46237
5.14348
5.84093
6.47676
2.39287
2.52091
2.70423
2.97512
3.35631
3.85567
4.46244
5.14355
5.84101
6.47685
2.08143
2.27948
2.4863
2.75307
3.1062
3.55239
4.07738
4.64088
5.16618
5.51599
2.08141
2.27945
2.48627
2.75303
3.10616
3.55235
4.07734
4.64083
5.16612
5.51593
2.08139
2.27943
2.48624
2.75301
3.10613
3.55232
4.0773
4.64079
5.16608
5.51588
2.08137
2.27942
2.48623
2.75299
3.10611
3.5523
4.07727
4.64076
5.16605
5.51585
2.08137
2.27941
2.48622
2.75298
3.1061
3.55229
4.07726
4.64075
5.16604
5.51584
2.08137
2.27941
2.48622
2.75299
3.10611
3.55229
4.07727
4.64076
5.16605
5.51585
2.08139
2.27943
2.48624
2.753
3.10612
3.55231
4.07729
4.64078
5.16607
5.51587
2.08141
2.27945
2.48626
2.75303
3.10615
3.55234
4.07732
4.64082
5.16611
5.51592
2.08143
2.27948
2.48629
2.75306
3.10619
3.55238
4.07737
4.64087
5.16617
5.51598
2.08147
2.27952
2.48634
2.75311
3.10624
3.55244
4.07744
4.64094
5.16625
5.51606
61.4464
70.4364
75.5057
78.7554
80.961
82.4867
83.5364
84.2354
84.6627
84.8654
61.4461
70.4361
75.5054
78.755
80.9605
82.4863
83.536
84.2349
84.6623
84.8651
61.4459
70.4358
75.5051
78.7547
80.9603
82.486
83.5357
84.2347
84.662
84.8649
61.4457
70.4357
75.505
78.7546
80.9601
82.4859
83.5355
84.2345
84.6619
84.8647
61.4457
70.4356
75.5049
78.7545
80.96
82.4858
83.5355
84.2345
84.6619
84.8647
61.4457
70.4356
75.5049
78.7545
80.9601
82.4858
83.5355
84.2345
84.6619
84.8647
61.4457
70.4357
75.505
78.7546
80.9602
82.4859
83.5356
84.2346
84.662
84.8648
61.4458
70.4358
75.5051
78.7548
80.9604
82.4861
83.5358
84.2348
84.6622
84.8651
61.446
70.436
75.5054
78.755
80.9606
82.4864
83.5361
84.2351
84.6625
84.8653
61.4462
70.4363
75.5056
78.7553
80.9609
82.4867
83.5364
84.2355
84.6629
84.8657
45.7717
53.3181
58.3286
61.7033
64.0179
65.6173
66.7135
67.4407
67.884
68.094
45.7714
53.3178
58.3283
61.703
64.0176
65.6169
66.7131
67.4404
67.8837
68.0937
45.7712
53.3176
58.3281
61.7028
64.0173
65.6167
66.7129
67.4401
67.8835
68.0936
45.7711
53.3175
58.3279
61.7026
64.0172
65.6165
66.7127
67.44
67.8834
68.0934
45.771
53.3174
58.3278
61.7026
64.0171
65.6165
66.7127
67.44
67.8833
68.0934
45.771
53.3174
58.3279
61.7026
64.0171
65.6165
66.7127
67.44
67.8834
68.0934
45.7711
53.3175
58.3279
61.7027
64.0172
65.6166
66.7128
67.4401
67.8835
68.0935
45.7712
53.3176
58.3281
61.7028
64.0174
65.6168
66.713
67.4403
67.8837
68.0937
45.7714
53.3178
58.3283
61.7031
64.0177
65.617
66.7133
67.4406
67.884
68.094
45.7716
53.3181
58.3286
61.7034
64.018
65.6174
66.7136
67.4409
67.8843
68.0944
35.0265
40.6162
44.8105
47.8466
50.0137
51.5439
52.6053
53.3142
53.7478
53.9536
35.0263
40.6159
44.8102
47.8464
50.0134
51.5436
52.605
53.3139
53.7476
53.9534
35.0262
40.6157
44.81
47.8462
50.0132
51.5434
52.6048
53.3137
53.7474
53.9532
35.026
40.6156
44.8099
47.846
50.013
51.5433
52.6047
53.3135
53.7473
53.9531
35.026
40.6156
44.8099
47.846
50.013
51.5432
52.6046
53.3135
53.7472
53.9531
35.026
40.6156
44.8099
47.846
50.013
51.5432
52.6046
53.3135
53.7473
53.9531
35.0261
40.6156
44.8099
47.8461
50.0131
51.5433
52.6047
53.3136
53.7474
53.9532
35.0262
40.6158
44.8101
47.8462
50.0132
51.5435
52.6049
53.3138
53.7476
53.9534
35.0263
40.6159
44.8103
47.8464
50.0135
51.5437
52.6052
53.3141
53.7478
53.9537
35.0265
40.6162
44.8105
47.8467
50.0138
51.5441
52.6055
53.3144
53.7482
53.954
26.9321
30.9736
34.2496
36.768
38.6432
40.0061
40.9697
41.6213
42.0232
42.2147
26.9319
30.9734
34.2494
36.7677
38.643
40.0058
40.9694
41.6211
42.0229
42.2145
26.9318
30.9732
34.2492
36.7676
38.6428
40.0056
40.9692
41.6209
42.0228
42.2143
26.9317
30.9731
34.2491
36.7675
38.6427
40.0055
40.9691
41.6208
42.0227
42.2143
26.9316
30.9731
34.2491
36.7674
38.6426
40.0055
40.9691
41.6208
42.0226
42.2142
26.9316
30.9731
34.2491
36.7674
38.6427
40.0055
40.9691
41.6208
42.0227
42.2143
26.9317
30.9731
34.2492
36.7675
38.6427
40.0056
40.9692
41.6209
42.0228
42.2144
26.9318
30.9733
34.2493
36.7676
38.6429
40.0057
40.9693
41.621
42.0229
42.2145
26.9319
30.9734
34.2495
36.7678
38.6431
40.006
40.9696
41.6213
42.0232
42.2148
26.9321
30.9736
34.2497
36.7681
38.6434
40.0063
40.9699
41.6216
42.0235
42.2151
20.6506
23.5533
26.0231
28.0099
29.5455
30.694
31.5234
32.0929
32.4476
32.6176
20.6504
23.5531
26.0229
28.0097
29.5453
30.6938
31.5232
32.0927
32.4474
32.6175
20.6503
23.553
26.0228
28.0096
29.5452
30.6936
31.523
32.0925
32.4473
32.6174
20.6502
23.5529
26.0227
28.0095
29.5451
30.6935
31.5229
32.0924
32.4472
32.6173
20.6502
23.5529
26.0226
28.0095
29.545
30.6935
31.5229
32.0924
32.4472
32.6173
20.6502
23.5529
26.0227
28.0095
29.5451
30.6935
31.5229
32.0924
32.4472
32.6173
20.6502
23.5529
26.0227
28.0095
29.5451
30.6936
31.523
32.0925
32.4473
32.6174
20.6503
23.5531
26.0228
28.0097
29.5453
30.6937
31.5232
32.0927
32.4474
32.6175
20.6504
23.5532
26.023
28.0098
29.5455
30.6939
31.5234
32.0929
32.4477
32.6178
20.6506
23.5534
26.0232
28.0101
29.5457
30.6942
31.5236
32.0931
32.4479
32.618
15.7589
17.8257
19.6416
21.1535
22.3594
23.2854
23.9683
24.4446
24.7446
24.8893
15.7588
17.8256
19.6414
21.1534
22.3593
23.2852
23.9681
24.4444
24.7444
24.8892
15.7587
17.8255
19.6413
21.1533
22.3591
23.2851
23.968
24.4443
24.7443
24.8891
15.7586
17.8254
19.6412
21.1532
22.3591
23.285
23.9679
24.4442
24.7442
24.889
15.7586
17.8254
19.6412
21.1531
22.359
23.285
23.9679
24.4442
24.7442
24.889
15.7586
17.8254
19.6412
21.1532
22.359
23.285
23.9679
24.4442
24.7442
24.889
15.7587
17.8254
19.6413
21.1532
22.3591
23.2851
23.968
24.4443
24.7443
24.8891
15.7587
17.8255
19.6414
21.1533
22.3592
23.2852
23.9681
24.4444
24.7444
24.8892
15.7589
17.8256
19.6415
21.1535
22.3594
23.2854
23.9683
24.4446
24.7446
24.8894
15.759
17.8258
19.6417
21.1537
22.3596
23.2856
23.9685
24.4448
24.7449
24.8897
11.9832
13.4251
14.7242
15.8379
16.7514
17.4703
18.0113
18.3947
18.6388
18.7574
11.9831
13.4249
14.724
15.8378
16.7513
17.4702
18.0112
18.3945
18.6387
18.7573
11.983
13.4248
14.724
15.8377
16.7512
17.4701
18.0111
18.3944
18.6386
18.7572
11.983
13.4248
14.7239
15.8376
16.7511
17.47
18.011
18.3944
18.6385
18.7571
11.983
13.4248
14.7239
15.8376
16.7511
17.47
18.011
18.3944
18.6385
18.7571
11.983
13.4248
14.7239
15.8376
16.7511
17.47
18.011
18.3944
18.6385
18.7572
11.983
13.4248
14.7239
15.8377
16.7512
17.4701
18.0111
18.3945
18.6386
18.7572
11.9831
13.4249
14.724
15.8377
16.7513
17.4702
18.0112
18.3946
18.6387
18.7574
11.9832
13.425
14.7241
15.8379
16.7514
17.4703
18.0113
18.3947
18.6389
18.7575
11.9833
13.4251
14.7243
15.838
16.7516
17.4705
18.0115
18.3949
18.6391
18.7577
9.11826
10.0758
10.9676
11.758
12.4259
12.9649
13.3788
13.6767
13.8687
13.9625
9.11816
10.0757
10.9675
11.7579