/*--------------------------------*- C++ -*----------------------------------*\
  =========                 |
  \\      /  F ield         | OpenFOAM: The Open Source CFD Toolbox
   \\    /   O peration     | Website:  https://openfoam.org
    \\  /    A nd           | Version:  6
     \\/     M anipulation  |
\*---------------------------------------------------------------------------*/
FoamFile
{
    version     2.0;
    format      ascii;
    class       volVectorField;
    location    "359";
    object      U;
}
// * * * * * * * * * * * * * * * * * * * * * * * * * * * * * * * * * * * * * //

dimensions      [0 1 -1 0 0 0 0];

internalField   nonuniform List<vector> 
3000
(
(0.000611107 0.000602941 0.997858)
(0.000778883 0.000603936 0.999411)
(0.000237124 0.000603518 0.99894)
(0.000111772 0.000603503 0.998941)
(5.43504e-05 0.000603493 0.998945)
(-6.75442e-06 0.00060346 0.998945)
(-6.89348e-05 0.000603411 0.998943)
(-0.000201739 0.000603378 0.998943)
(-0.00074339 0.000603748 0.999403)
(-0.000591355 0.000602712 0.997872)
(0.0006121 0.000763837 0.999402)
(0.000779179 0.000764134 1.00096)
(0.000236849 0.000764066 1.00049)
(0.000111651 0.000763937 1.00049)
(5.42941e-05 0.000763887 1.00049)
(-6.81927e-06 0.000763844 1.00049)
(-6.89191e-05 0.000763812 1.00049)
(-0.000201554 0.000763871 1.00049)
(-0.000743774 0.000763883 1.00095)
(-0.000592394 0.000763502 0.999416)
(0.000611692 0.000221195 0.998936)
(0.000779119 0.000220938 1.00049)
(0.000236858 0.000220948 1.00002)
(0.000111634 0.000220891 1.00002)
(5.42794e-05 0.000220849 1.00002)
(-6.83424e-06 0.00022083 1.00002)
(-6.89333e-05 0.000220835 1.00002)
(-0.000201592 0.000220857 1.00002)
(-0.000743749 0.000220821 1.00048)
(-0.000592007 0.000221034 0.99895)
(0.00061169 9.15975e-05 0.998937)
(0.000779008 9.15091e-05 1.00049)
(0.000236806 9.15e-05 1.00002)
(0.000111584 9.14532e-05 1.00002)
(5.42504e-05 9.14191e-05 1.00002)
(-6.83699e-06 9.14057e-05 1.00002)
(-6.89121e-05 9.1414e-05 1.00002)
(-0.000201563 9.1439e-05 1.00002)
(-0.000743664 9.14331e-05 1.00048)
(-0.00059202 9.14968e-05 0.99895)
(0.000611702 3.10143e-05 0.99894)
(0.000778988 3.10095e-05 1.00049)
(0.000236775 3.10065e-05 1.00002)
(0.000111553 3.09885e-05 1.00002)
(5.42322e-05 3.09753e-05 1.00003)
(-6.83993e-06 3.09694e-05 1.00003)
(-6.89001e-05 3.09715e-05 1.00003)
(-0.000201547 3.09806e-05 1.00003)
(-0.000743657 3.09788e-05 1.00049)
(-0.00059204 3.09755e-05 0.998953)
(0.000611701 -3.10407e-05 0.99894)
(0.000778987 -3.10396e-05 1.00049)
(0.000236775 -3.10379e-05 1.00002)
(0.000111552 -3.10221e-05 1.00002)
(5.42311e-05 -3.10113e-05 1.00003)
(-6.84089e-06 -3.10075e-05 1.00003)
(-6.89006e-05 -3.10112e-05 1.00003)
(-0.000201546 -3.10204e-05 1.00003)
(-0.000743655 -3.10146e-05 1.00049)
(-0.000592039 -3.10066e-05 0.998953)
(0.000611688 -9.16219e-05 0.998937)
(0.000779005 -9.15368e-05 1.00049)
(0.000236803 -9.15288e-05 1.00002)
(0.00011158 -9.14839e-05 1.00002)
(5.4247e-05 -9.14519e-05 1.00002)
(-6.83975e-06 -9.14402e-05 1.00002)
(-6.89133e-05 -9.14497e-05 1.00002)
(-0.000201561 -9.14744e-05 1.00002)
(-0.000743657 -9.14645e-05 1.00048)
(-0.000592017 -9.15233e-05 0.99895)
(0.000611688 -0.000221213 0.998936)
(0.000779114 -0.000220958 1.00049)
(0.000236854 -0.000220969 1.00002)
(0.000111629 -0.000220912 1.00002)
(5.42744e-05 -0.000220871 1.00002)
(-6.83812e-06 -0.000220853 1.00002)
(-6.89346e-05 -0.000220857 1.00002)
(-0.000201587 -0.000220878 1.00002)
(-0.000743738 -0.000220838 1.00048)
(-0.000592001 -0.000221046 0.99895)
(0.000612095 -0.000763856 0.999402)
(0.000779172 -0.000764154 1.00096)
(0.000236845 -0.000764086 1.00049)
(0.000111646 -0.000763957 1.00049)
(5.42897e-05 -0.000763907 1.00049)
(-6.82209e-06 -0.000763863 1.00049)
(-6.89184e-05 -0.00076383 1.00049)
(-0.000201545 -0.000763885 1.00049)
(-0.000743759 -0.000763893 1.00095)
(-0.000592386 -0.000763508 0.999416)
(0.000611101 -0.000602952 0.997858)
(0.000778876 -0.000603949 0.999411)
(0.00023712 -0.00060353 0.99894)
(0.000111767 -0.000603516 0.998941)
(5.43464e-05 -0.000603506 0.998945)
(-6.75585e-06 -0.000603472 0.998945)
(-6.89318e-05 -0.000603422 0.998943)
(-0.000201726 -0.000603387 0.998943)
(-0.000743371 -0.000603756 0.999403)
(-0.000591345 -0.000602718 0.997872)
(0.00150083 0.00147473 0.994288)
(0.00178355 0.00148068 0.999196)
(0.000490713 0.00147761 0.997298)
(0.000343369 0.00147807 0.997292)
(0.000170707 0.00147804 0.997287)
(-2.36156e-05 0.00147792 0.997292)
(-0.000210104 0.00147774 0.997307)
(-0.000384337 0.00147712 0.997323)
(-0.00167452 0.00147994 0.999165)
(-0.00143673 0.00147397 0.994381)
(0.00150673 0.00173795 0.999147)
(0.00178584 0.00174024 1.00406)
(0.00049012 0.00173908 1.00216)
(0.000343488 0.00173894 1.00216)
(0.000170657 0.00173887 1.00215)
(-2.39079e-05 0.00173873 1.00216)
(-0.000210519 0.00173854 1.00217)
(-0.000384016 0.00173845 1.00219)
(-0.00167707 0.00173938 1.00403)
(-0.00144276 0.00173686 0.999238)
(0.00150373 0.0004431 0.997272)
(0.00178472 0.000442553 1.00219)
(0.000490252 0.000442682 1.00029)
(0.000343485 0.000442464 1.00028)
(0.000170662 0.000442363 1.00028)
(-2.3955e-05 0.000442315 1.00028)
(-0.000210579 0.000442313 1.00029)
(-0.000384206 0.000442428 1.00031)
(-0.00167606 0.000442229 1.00215)
(-0.00143984 0.00044264 0.997364)
(0.00150423 0.00028098 0.997263)
(0.00178465 0.000281188 1.00218)
(0.000490049 0.000281198 1.00028)
(0.000343279 0.000281002 1.00027)
(0.000170566 0.0002809 1.00027)
(-2.39649e-05 0.000280856 1.00027)
(-0.000210467 0.000280876 1.00029)
(-0.000384076 0.000281003 1.0003)
(-0.00167606 0.000280945 1.00215)
(-0.00144039 0.000280672 0.997355)
(0.00150428 9.87669e-05 0.997254)
(0.00178467 9.88617e-05 1.00217)
(0.00048998 9.8884e-05 1.00027)
(0.000343189 9.88262e-05 1.00026)
(0.000170519 9.87949e-05 1.00026)
(-2.39769e-05 9.87809e-05 1.00026)
(-0.000210431 9.87847e-05 1.00028)
(-0.000384049 9.88187e-05 1.00029)
(-0.00167612 9.87824e-05 1.00214)
(-0.00144046 9.86734e-05 0.997345)
(0.00150428 -9.877e-05 0.997254)
(0.00178467 -9.88667e-05 1.00217)
(0.00048998 -9.88881e-05 1.00027)
(0.00034319 -9.88293e-05 1.00026)
(0.000170521 -9.87958e-05 1.00026)
(-2.39746e-05 -9.87777e-05 1.00026)
(-0.000210428 -9.87764e-05 1.00028)
(-0.000384045 -9.88036e-05 1.00029)
(-0.00167611 -9.87566e-05 1.00214)
(-0.00144045 -9.8615e-05 0.997345)
(0.00150423 -0.000280985 0.997263)
(0.00178464 -0.000281194 1.00218)
(0.00049005 -0.000281203 1.00028)
(0.000343281 -0.000281006 1.00027)
(0.00017057 -0.000280902 1.00027)
(-2.3958e-05 -0.000280854 1.00027)
(-0.000210458 -0.000280869 1.00029)
(-0.000384063 -0.000280989 1.0003)
(-0.00167603 -0.000280922 1.00215)
(-0.00144036 -0.000280619 0.997355)
(0.00150372 -0.000443102 0.997272)
(0.00178472 -0.000442556 1.00219)
(0.000490254 -0.000442683 1.00029)
(0.00034349 -0.000442464 1.00028)
(0.00017067 -0.00044236 1.00028)
(-2.39437e-05 -0.000442307 1.00028)
(-0.000210564 -0.000442299 1.00029)
(-0.000384185 -0.000442408 1.00031)
(-0.00167601 -0.000442201 1.00215)
(-0.0014398 -0.000442587 0.997364)
(0.00150672 -0.00173796 0.999147)
(0.00178584 -0.00174025 1.00406)
(0.000490124 -0.00173908 1.00216)
(0.000343496 -0.00173894 1.00216)
(0.000170669 -0.00173886 1.00215)
(-2.3891e-05 -0.00173871 1.00216)
(-0.000210498 -0.00173851 1.00217)
(-0.000383987 -0.00173841 1.00219)
(-0.00167701 -0.00173933 1.00403)
(-0.00144271 -0.00173678 0.999238)
(0.00150082 -0.00147474 0.994288)
(0.00178356 -0.00148068 0.999196)
(0.000490724 -0.00147762 0.997298)
(0.000343385 -0.00147807 0.997292)
(0.000170731 -0.00147804 0.997287)
(-2.35842e-05 -0.00147791 0.997292)
(-0.000210067 -0.00147772 0.997307)
(-0.000384293 -0.00147709 0.997323)
(-0.00167444 -0.00147991 0.999165)
(-0.00143667 -0.00147393 0.994381)
(0.0020545 0.0020072 0.989995)
(0.0022533 0.00201968 0.998799)
(0.000536957 0.00201192 0.995456)
(0.000553066 0.00201348 0.995445)
(0.000274309 0.00201321 0.995396)
(-1.5634e-05 0.00201296 0.995409)
(-0.000316874 0.00201278 0.995485)
(-0.00035329 0.0020109 0.995523)
(-0.00206018 0.00201801 0.998739)
(-0.00193528 0.00200564 0.990243)
(0.00206681 0.00217444 0.99868)
(0.00225845 0.00217967 1.0075)
(0.000536535 0.00217543 1.00415)
(0.000554093 0.00217561 1.00414)
(0.000274303 0.00217544 1.00409)
(-1.63215e-05 0.00217517 1.00411)
(-0.000318505 0.00217482 1.00418)
(-0.00035345 0.00217417 1.00421)
(-0.00206595 0.00217785 1.00744)
(-0.00194791 0.00217225 0.998922)
(0.00205922 0.000455773 0.995391)
(0.00225434 0.000455458 1.0042)
(0.00053669 0.000455593 1.00085)
(0.000553961 0.000455065 1.00084)
(0.000274316 0.000454928 1.0008)
(-1.63559e-05 0.000454844 1.00081)
(-0.000318451 0.000454799 1.00088)
(-0.000353664 0.000455137 1.00092)
(-0.00206205 0.00045488 1.00414)
(-0.00194052 0.000454943 0.995634)
(0.00206087 0.000443481 0.995369)
(0.00225466 0.000444692 1.00419)
(0.000536184 0.000444566 1.00083)
(0.000553543 0.000444167 1.00083)
(0.000274139 0.000444018 1.00078)
(-1.64066e-05 0.000443929 1.00079)
(-0.00031823 0.000443911 1.00086)
(-0.000353307 0.000444164 1.0009)
(-0.0020625 0.000444187 1.00412)
(-0.00194225 0.000442862 0.995613)
(0.00206077 0.000148154 0.99531)
(0.00225469 0.000148439 1.00413)
(0.000536102 0.00014846 1.00078)
(0.00055342 0.000148364 1.00077)
(0.000274083 0.000148332 1.00072)
(-1.645e-05 0.000148308 1.00073)
(-0.000318207 0.00014829 1.0008)
(-0.000353302 0.000148338 1.00084)
(-0.00206261 0.000148291 1.00406)
(-0.0019422 0.000147971 0.995553)
(0.00206077 -0.000148172 0.99531)
(0.00225469 -0.000148463 1.00413)
(0.000536104 -0.000148479 1.00078)
(0.000553422 -0.000148381 1.00077)
(0.000274086 -0.000148344 1.00072)
(-1.64443e-05 -0.00014831 1.00073)
(-0.000318199 -0.000148279 1.0008)
(-0.00035329 -0.000148311 1.00084)
(-0.00206259 -0.000148236 1.00406)
(-0.00194219 -0.000147863 0.995553)
(0.00206087 -0.000443503 0.99537)
(0.00225466 -0.00044472 1.00419)
(0.000536188 -0.000444589 1.00083)
(0.000553548 -0.000444188 1.00083)
(0.00027415 -0.000444034 1.00078)
(-1.63896e-05 -0.000443937 1.00079)
(-0.000318208 -0.000443906 1.00086)
(-0.000353274 -0.000444144 1.0009)
(-0.00206243 -0.000444143 1.00412)
(-0.00194221 -0.000442769 0.995613)
(0.00205921 -0.00045578 0.995391)
(0.00225434 -0.000455467 1.0042)
(0.000536697 -0.000455596 1.00085)
(0.00055397 -0.000455065 1.00084)
(0.000274334 -0.000454921 1.0008)
(-1.63292e-05 -0.000454827 1.00081)
(-0.000318417 -0.000454769 1.00088)
(-0.000353613 -0.000455092 1.00092)
(-0.00206195 -0.000454814 1.00414)
(-0.00194045 -0.000454838 0.995635)
(0.00206681 -0.00217445 0.998681)
(0.00225845 -0.00217968 1.0075)
(0.000536548 -0.00217543 1.00415)
(0.000554109 -0.0021756 1.00414)
(0.000274331 -0.00217542 1.00409)
(-1.62814e-05 -0.00217514 1.00411)
(-0.000318455 -0.00217477 1.00418)
(-0.00035338 -0.0021741 1.00421)
(-0.00206583 -0.00217775 1.00744)
(-0.00194783 -0.00217212 0.998923)
(0.00205449 -0.00200723 0.989995)
(0.00225331 -0.00201971 0.998799)
(0.00053698 -0.00201194 0.995456)
(0.000553096 -0.00201349 0.995445)
(0.000274357 -0.00201321 0.995396)
(-1.55691e-05 -0.00201295 0.99541)
(-0.000316797 -0.00201276 0.995485)
(-0.000353196 -0.00201086 0.995524)
(-0.00206002 -0.00201796 0.998739)
(-0.00193518 -0.00200557 0.990244)
(0.0024329 0.00236006 0.984647)
(0.00248896 0.00238 0.997846)
(0.000528835 0.00236628 0.993167)
(0.000741694 0.00236949 0.993166)
(0.000355559 0.00236851 0.993071)
(3.61954e-05 0.00236806 0.993098)
(-0.000380691 0.00236821 0.993247)
(-0.000252432 0.00236442 0.993302)
(-0.0021912 0.00237677 0.997749)
(-0.00224192 0.00235724 0.985145)
(0.00245241 0.0023718 0.997624)
(0.0024972 0.00238032 1.01086)
(0.000528848 0.00237184 1.00615)
(0.000744096 0.00237259 1.00616)
(0.000355456 0.00237198 1.00606)
(3.48881e-05 0.00237152 1.00609)
(-0.000384344 0.00237121 1.00623)
(-0.000253667 0.00236964 1.00628)
(-0.00220085 0.00237696 1.01075)
(-0.00226219 0.00236791 0.998108)
(0.00243905 0.000409256 0.993041)
(0.00248901 0.000409522 1.00625)
(0.000529122 0.000409736 1.00156)
(0.000743542 0.000408674 1.00156)
(0.000355398 0.00040852 1.00147)
(3.49787e-05 0.000408378 1.00149)
(-0.00038386 0.000408232 1.00164)
(-0.000253955 0.000408962 1.00169)
(-0.002193 0.000408553 1.00615)
(-0.00224922 0.000407859 0.993529)
(0.00244243 0.000576443 0.993021)
(0.00248999 0.00057925 1.00624)
(0.000528084 0.000578665 1.00154)
(0.000742891 0.000578049 1.00154)
(0.000355118 0.00057787 1.00145)
(3.48326e-05 0.000577711 1.00147)
(-0.000383578 0.000577594 1.00162)
(-0.000253204 0.000577936 1.00167)
(-0.00219422 0.000578308 1.00613)
(-0.00225272 0.000575327 0.993508)
(0.00244175 0.000165287 0.992903)
(0.00248972 0.000165781 1.00612)
(0.000528019 0.000165701 1.00142)
(0.000742764 0.000165573 1.00143)
(0.000355066 0.000165554 1.00133)
(3.4739e-05 0.000165517 1.00136)
(-0.000383611 0.000165459 1.00151)
(-0.000253262 0.000165499 1.00156)
(-0.00219412 0.000165529 1.00602)
(-0.00225217 0.000164958 0.99339)
(0.00244175 -0.000165308 0.992903)
(0.00248972 -0.000165813 1.00612)
(0.000528023 -0.00016572 1.00143)
(0.000742768 -0.00016559 1.00143)
(0.000355072 -0.000165559 1.00133)
(3.47491e-05 -0.000165505 1.00136)
(-0.000383599 -0.000165423 1.00151)
(-0.000253243 -0.00016544 1.00156)
(-0.00219409 -0.000165418 1.00602)
(-0.00225215 -0.000164779 0.99339)
(0.00244243 -0.000576478 0.993021)
(0.00248999 -0.000579296 1.00624)
(0.000528096 -0.000578699 1.00154)
(0.000742901 -0.000578081 1.00154)
(0.000355139 -0.000577894 1.00145)
(3.48636e-05 -0.000577719 1.00147)
(-0.000383542 -0.00057758 1.00162)
(-0.000253147 -0.000577901 1.00167)
(-0.00219413 -0.000578228 1.00613)
(-0.00225267 -0.000575188 0.993508)
(0.00243903 -0.000409259 0.993041)
(0.002489 -0.000409526 1.00625)
(0.000529138 -0.00040973 1.00156)
(0.000743556 -0.000408662 1.00156)
(0.000355429 -0.000408495 1.00147)
(3.50257e-05 -0.000408334 1.00149)
(-0.000383805 -0.000408164 1.00164)
(-0.000253868 -0.000408872 1.00169)
(-0.00219286 -0.000408427 1.00615)
(-0.00224914 -0.000407677 0.993529)
(0.0024524 -0.00237182 0.997624)
(0.00249721 -0.00238035 1.01086)
(0.000528875 -0.00237185 1.00615)
(0.000744125 -0.00237259 1.00616)
(0.000355508 -0.00237196 1.00606)
(3.49615e-05 -0.00237146 1.00609)
(-0.000384262 -0.00237112 1.00623)
(-0.00025355 -0.00236952 1.00628)
(-0.00220067 -0.0023768 1.01075)
(-0.00226208 -0.0023677 0.998108)
(0.00243289 -0.00236011 0.984647)
(0.00248897 -0.00238005 0.997846)
(0.000528878 -0.00236633 0.993167)
(0.000741741 -0.00236953 0.993166)
(0.00035564 -0.00236853 0.993071)
(3.6306e-05 -0.00236807 0.993098)
(-0.000380571 -0.0023682 0.993247)
(-0.000252274 -0.00236439 0.993303)
(-0.00219097 -0.00237672 0.997749)
(-0.00224179 -0.00235716 0.985146)
(0.0027326 0.00262906 0.978747)
(0.00265929 0.00265699 0.996635)
(0.000547276 0.00263674 0.990631)
(0.000924964 0.00264204 0.990635)
(0.0004251 0.00263978 0.990514)
(0.000131683 0.00263905 0.990561)
(-0.000406834 0.00263987 0.990774)
(-0.000152852 0.0026336 0.990861)
(-0.00222454 0.00265131 0.996486)
(-0.00244568 0.00262422 0.979615)
(0.00275966 0.00249695 0.996271)
(0.00267042 0.00250875 1.01422)
(0.000547649 0.00249581 1.00816)
(0.0009289 0.00249732 1.00818)
(0.000424545 0.00249584 1.00805)
(0.000129414 0.00249507 1.0081)
(-0.00041334 0.00249501 1.00831)
(-0.000155742 0.00249215 1.00838)
(-0.00223874 0.00250296 1.01405)
(-0.00247448 0.00249034 0.997112)
(0.00274005 0.000381809 0.99042)
(0.00265803 0.000382727 1.00832)
(0.000548384 0.000383331 1.0023)
(0.000927674 0.00038154 1.00231)
(0.000424388 0.000381414 1.00218)
(0.000129725 0.000381174 1.00223)
(-0.000412124 0.000380814 1.00244)
(-0.000156372 0.000382041 1.00252)
(-0.00222683 0.000381128 1.00816)
(-0.00245553 0.000379468 0.991268)
(0.00274565 0.000692095 0.990394)
(0.0026599 0.00069689 1.0083)
(0.000546615 0.000695546 1.00228)
(0.00092681 0.000694742 1.00229)
(0.000423956 0.000694512 1.00216)
(0.000129425 0.000694246 1.00221)
(-0.000411902 0.000693983 1.00242)
(-0.000155133 0.000694307 1.0025)
(-0.00222912 0.00069523 1.00814)
(-0.00246132 0.000690179 0.99124)
(0.00274389 0.000156161 0.990235)
(0.00265898 0.00015681 1.00814)
(0.000546631 0.000156565 1.00212)
(0.000926674 0.000156397 1.00213)
(0.000423898 0.000156384 1.002)
(0.000129272 0.00015633 1.00205)
(-0.000412014 0.000156227 1.00226)
(-0.000155339 0.000156246 1.00234)
(-0.0022285 0.000156402 1.00798)
(-0.00245982 0.000155597 0.991081)
(0.00274389 -0.000156169 0.990235)
(0.00265898 -0.00015683 1.00814)
(0.000546637 -0.000156562 1.00212)
(0.00092668 -0.000156389 1.00213)
(0.00042391 -0.000156354 1.002)
(0.00012929 -0.000156272 1.00205)
(-0.000411996 -0.000156123 1.00226)
(-0.000155309 -0.00015611 1.00234)
(-0.00222846 -0.000156177 1.00798)
(-0.0024598 -0.000155289 0.991081)
(0.00274564 -0.00069213 0.990394)
(0.00265991 -0.00069694 1.0083)
(0.000546637 -0.000695575 1.00228)
(0.00092683 -0.000694768 1.00229)
(0.000423995 -0.000694521 1.00216)
(0.000129481 -0.000694229 1.00221)
(-0.000411844 -0.000693925 1.00242)
(-0.000155041 -0.000694219 1.0025)
(-0.00222899 -0.000695066 1.00814)
(-0.00246125 -0.000689936 0.991241)
(0.00274003 -0.000381796 0.99042)
(0.00265804 -0.000382717 1.00832)
(0.000548413 -0.000383301 1.0023)
(0.000927699 -0.000381501 1.00231)
(0.000424443 -0.000381353 1.00218)
(0.000129809 -0.000381084 1.00223)
(-0.000412035 -0.000380681 1.00244)
(-0.000156233 -0.000381874 1.00252)
(-0.00222663 -0.000380907 1.00816)
(-0.00245543 -0.000379177 0.991269)
(0.00275965 -0.00249696 0.996271)
(0.00267045 -0.00250877 1.01422)
(0.000547697 -0.0024958 1.00816)
(0.000928951 -0.00249729 1.00818)
(0.000424635 -0.00249578 1.00805)
(0.000129542 -0.00249496 1.0081)
(-0.000413205 -0.00249485 1.00831)
(-0.00015556 -0.00249194 1.00838)
(-0.00223849 -0.0025027 1.01405)
(-0.00247435 -0.00248998 0.997113)
(0.00273259 -0.00262913 0.978747)
(0.00265932 -0.00265706 0.996635)
(0.000547347 -0.0026368 0.990632)
(0.000925043 -0.00264209 0.990635)
(0.000425237 -0.00263982 0.990515)
(0.000131872 -0.00263905 0.990561)
(-0.000406641 -0.00263984 0.990775)
(-0.000152615 -0.00263354 0.990862)
(-0.00222419 -0.00265123 0.996486)
(-0.00244549 -0.00262408 0.979617)
(0.00297707 0.00283681 0.972673)
(0.00279337 0.00287301 0.995406)
(0.00059181 0.00284582 0.988037)
(0.00110805 0.00285345 0.988024)
(0.000497488 0.0028494 0.987898)
(0.000268001 0.00284824 0.987971)
(-0.000388326 0.00284995 0.988241)
(-4.21926e-05 0.00284074 0.988393)
(-0.00217192 0.00286354 0.995178)
(-0.00255748 0.00282872 0.974074)
(0.00301168 0.00257729 0.994856)
(0.00280704 0.0025923 1.01768)
(0.000592427 0.00257483 1.01023)
(0.00111345 0.00257713 1.01023)
(0.000495885 0.00257441 1.0101)
(0.000264176 0.0025732 1.01017)
(-0.000398818 0.00257345 1.01044)
(-4.78271e-05 0.00256894 1.01056)
(-0.002192 0.00258274 1.01742)
(-0.00259589 0.00256627 0.996207)
(0.00298557 0.000370669 0.987713)
(0.00279051 0.00037236 1.01046)
(0.000593883 0.00037356 1.00306)
(0.00111138 0.000370905 1.00306)
(0.000495707 0.000370866 1.00293)
(0.000264765 0.000370474 1.003)
(-0.000396587 0.000369738 1.00327)
(-4.89333e-05 0.000371448 1.0034)
(-0.00217607 0.000369748 1.01021)
(-0.00257077 0.000366718 0.989077)
(0.00299365 0.000792199 0.987658)
(0.00279335 0.000799299 1.01042)
(0.000591242 0.000796939 1.00302)
(0.00111034 0.000795999 1.00301)
(0.000495036 0.000795654 1.00288)
(0.000264252 0.000795227 1.00295)
(-0.000396614 0.00079478 1.00322)
(-4.7221e-05 0.000794914 1.00336)
(-0.00217965 0.0007965 1.01018)
(-0.00257915 0.000788965 0.989019)
(0.00299039 0.000130344 0.987475)
(0.00279148 0.000131055 1.01023)
(0.000591427 0.000130659 1.00283)
(0.00111016 0.000130417 1.00283)
(0.000494948 0.000130395 1.0027)
(0.000264028 0.000130313 1.00277)
(-0.000396812 0.000130163 1.00303)
(-4.76947e-05 0.000130162 1.00317)
(-0.00217837 0.000130411 1.00999)
(-0.00257641 0.000129383 0.988834)
(0.00299039 -0.000130314 0.987475)
(0.00279149 -0.000131037 1.01023)
(0.000591437 -0.000130602 1.00283)
(0.00111017 -0.000130349 1.00283)
(0.000494967 -0.000130287 1.0027)
(0.000264057 -0.000130158 1.00277)
(-0.000396782 -0.000129924 1.00303)
(-4.7649e-05 -0.000129876 1.00317)
(-0.0021783 -0.000129977 1.00999)
(-0.00257638 -0.000128845 0.988834)
(0.00299364 -0.000792211 0.987658)
(0.00279337 -0.000799327 1.01042)
(0.00059128 -0.000796932 1.00302)
(0.00111038 -0.000795986 1.00301)
(0.000495105 -0.000795605 1.00288)
(0.000264353 -0.000795134 1.00295)
(-0.000396514 -0.00079461 1.00322)
(-4.70678e-05 -0.000794698 1.00336)
(-0.00217946 -0.000796148 1.01018)
(-0.00257908 -0.000788517 0.98902)
(0.00298555 -0.000370624 0.987714)
(0.00279053 -0.000372314 1.01046)
(0.000593934 -0.000373486 1.00306)
(0.00111143 -0.000370815 1.00306)
(0.000495806 -0.000370738 1.00293)
(0.000264916 -0.000370299 1.003)
(-0.000396435 -0.000369488 1.00327)
(-4.87027e-05 -0.000371153 1.0034)
(-0.00217577 -0.000369372 1.01021)
(-0.00257065 -0.000366219 0.989078)
(0.00301167 -0.00257728 0.994857)
(0.00280709 -0.00259228 1.01768)
(0.000592507 -0.00257478 1.01023)
(0.00111355 -0.00257704 1.01024)
(0.000496039 -0.00257427 1.0101)
(0.000264399 -0.00257298 1.01017)
(-0.0003986 -0.00257314 1.01044)
(-4.75468e-05 -0.00256857 1.01056)
(-0.0021916 -0.00258227 1.01742)
(-0.0025957 -0.00256563 0.996209)
(0.00297705 -0.00283688 0.972673)
(0.00279344 -0.00287309 0.995406)
(0.000591928 -0.00284588 0.988037)
(0.00110819 -0.00285349 0.988024)
(0.000497721 -0.00284942 0.987899)
(0.000268324 -0.00284821 0.987972)
(-0.000388017 -0.00284987 0.988242)
(-4.18006e-05 -0.00284062 0.988394)
(-0.00217136 -0.00286335 0.995179)
(-0.00255719 -0.00282842 0.974077)
(0.00317386 0.00299003 0.966495)
(0.0028934 0.00303467 0.994179)
(0.000649756 0.00300018 0.985421)
(0.00129183 0.00301014 0.985376)
(0.000584095 0.00300386 0.985261)
(0.000446653 0.0030021 0.985367)
(-0.000311516 0.00300471 0.985691)
(0.000106731 0.00299215 0.985938)
(-0.00200943 0.00301937 0.99383)
(-0.00256617 0.00297648 0.968668)
(0.00321582 0.00261357 0.993392)
(0.00290918 0.00263174 1.02121)
(0.00065051 0.00260957 1.01233)
(0.00129842 0.00261251 1.01231)
(0.00058057 0.00260824 1.01218)
(0.000440254 0.00260638 1.01228)
(-0.000327732 0.00260679 1.0126)
(9.63928e-05 0.00260027 1.01281)
(-0.00203816 0.00261634 1.02081)
(-0.0026164 0.00259519 0.995475)
(0.00318302 0.000361148 0.984954)
(0.0028885 0.000363854 1.01265)
(0.000652775 0.00036566 1.00386)
(0.00129537 0.000362033 1.00382)
(0.000580523 0.000362114 1.0037)
(0.000441167 0.000361486 1.0038)
(-0.000324165 0.000360178 1.00412)
(9.4909e-05 0.000362242 1.00435)
(-0.00201818 0.000359567 1.01228)
(-0.00258494 0.000354453 0.987058)
(0.00319366 0.00087435 0.984853)
(0.00289221 0.000884048 1.01258)
(0.000649149 0.000880413 1.00377)
(0.00129417 0.000879375 1.00374)
(0.000579482 0.000878813 1.00361)
(0.000440372 0.00087815 1.00371)
(-0.00032469 0.000877468 1.00404)
(9.69473e-05 0.000877184 1.00426)
(-0.00202323 0.000879424 1.0122)
(-0.0025963 0.000868973 0.986952)
(0.00318855 9.40103e-05 0.984657)
(0.0028892 9.46869e-05 1.01238)
(0.000649577 9.41964e-05 1.00357)
(0.00129387 9.38208e-05 1.00354)
(0.000579327 9.37748e-05 1.00341)
(0.000440039 9.36453e-05 1.00351)
(-0.000324982 9.34343e-05 1.00383)
(9.60543e-05 9.3419e-05 1.00406)
(-0.00202126 9.36692e-05 1.012)
(-0.00259213 9.23618e-05 0.986753)
(0.00318855 -9.39189e-05 0.984657)
(0.00288921 -9.46053e-05 1.01238)
(0.000649593 -9.4057e-05 1.00357)
(0.00129388 -9.36611e-05 1.00354)
(0.000579358 -9.35452e-05 1.00341)
(0.000440089 -9.33379e-05 1.00351)
(-0.000324939 -9.29818e-05 1.00383)
(9.61285e-05 -9.29022e-05 1.00406)
(-0.00202118 -9.29062e-05 1.012)
(-0.00259213 -9.14861e-05 0.986754)
(0.00319366 -0.000874314 0.984853)
(0.00289226 -0.000884028 1.01258)
(0.00064921 -0.00088034 1.00377)
(0.00129425 -0.000879286 1.00374)
(0.000579599 -0.000878659 1.00361)
(0.000440545 -0.000877921 1.00371)
(-0.000324524 -0.000877101 1.00404)
(9.71893e-05 -0.000876736 1.00426)
(-0.00202295 -0.000878766 1.0122)
(-0.00259623 -0.00086814 0.986953)
(0.003183 -0.000361054 0.984955)
(0.00288854 -0.000363756 1.01265)
(0.000652859 -0.00036552 1.00386)
(0.00129547 -0.000361868 1.00382)
(0.000580694 -0.000361885 1.0037)
(0.00044143 -0.000361182 1.0038)
(-0.000323904 -0.000359751 1.00413)
(9.52787e-05 -0.000361743 1.00435)
(-0.00201771 -0.000358932 1.01228)
(-0.00258476 -0.000353634 0.98706)
(0.00321583 -0.00261351 0.993393)
(0.00290927 -0.00263167 1.02121)
(0.000650636 -0.00260944 1.01233)
(0.00129858 -0.00261234 1.01231)
(0.000580824 -0.00260797 1.01218)
(0.000440624 -0.002606 1.01228)
(-0.000327373 -0.00260626 1.0126)
(9.68445e-05 -0.00259963 1.01281)
(-0.00203757 -0.00261558 1.02081)
(-0.00261613 -0.00259407 0.995476)
(0.00317385 -0.0029901 0.966495)
(0.00289352 -0.00303475 0.994179)
(0.000649941 -0.00300022 0.985422)
(0.00129207 -0.00301016 0.985376)
(0.000584475 -0.00300382 0.985262)
(0.000447186 -0.003002 0.985368)
(-0.000310988 -0.00300452 0.985693)
(0.000107332 -0.00299189 0.98594)
(-0.0020085 -0.00301903 0.993832)
(-0.00256564 -0.00297587 0.968673)
(0.00333593 0.00310108 0.960188)
(0.0029747 0.00315424 0.99291)
(0.000722292 0.00311228 0.982764)
(0.00148119 0.0031244 0.982677)
(0.000694309 0.00311549 0.982587)
(0.000671184 0.00311291 0.982731)
(-0.000164414 0.00311619 0.983112)
(0.00031447 0.0030998 0.983478)
(-0.0017065 0.0031297 0.992351)
(-0.00244317 0.00307846 0.96346)
(0.00338489 0.00262012 0.991829)
(0.00299203 0.00264139 1.02473)
(0.000722919 0.00261446 1.01442)
(0.00148841 0.00261778 1.01437)
(0.000687662 0.00261166 1.01425)
(0.000660626 0.00260887 1.01438)
(-0.00018896 0.00260906 1.01477)
(0.000295931 0.00259997 1.01507)
(-0.00174929 0.00261672 1.0241)
(-0.00250819 0.00258939 0.99494)
(0.00334544 0.000352947 0.982119)
(0.00296734 0.000356861 1.01486)
(0.000726048 0.000359227 1.00466)
(0.0014843 0.000354542 1.00459)
(0.00068796 0.000354733 1.00449)
(0.00066194 0.000353751 1.00462)
(-0.000183712 0.000351645 1.005)
(0.000294378 0.000353788 1.00533)
(-0.00172523 0.000349935 1.01426)
(-0.00247075 0.000341498 0.985266)
(0.00335852 0.000940735 0.981963)
(0.00297172 0.000953255 1.01474)
(0.000721345 0.000948115 1.00452)
(0.00148293 0.000946983 1.00446)
(0.000686372 0.000946076 1.00435)
(0.000660764 0.000945073 1.00449)
(-0.000185044 0.000944065 1.00486)
(0.000296434 0.000943066 1.00519)
(-0.00173212 0.000945829 1.01414)
(-0.00248456 0.000931717 0.985103)
(0.00335132 5.17492e-05 0.981764)
(0.00296743 5.2294e-05 1.01453)
(0.000722064 5.17934e-05 1.00432)
(0.00148241 5.12029e-05 1.00425)
(0.00068611 5.11233e-05 1.00414)
(0.000660252 5.09175e-05 1.00428)
(-0.000185476 5.06079e-05 1.00466)
(0.000295014 5.05746e-05 1.00499)
(-0.00172968 5.07573e-05 1.01392)
(-0.0024791 4.8908e-05 0.9849)
(0.00335132 -5.1574e-05 0.981764)
(0.00296744 -5.21233e-05 1.01453)
(0.000722087 -5.15406e-05 1.00432)
(0.00148244 -5.09137e-05 1.00425)
(0.000686158 -5.07203e-05 1.00414)
(0.00066033 -5.03917e-05 1.00428)
(-0.00018541 -4.98432e-05 1.00466)
(0.000295132 -4.97228e-05 1.00499)
(-0.00172958 -4.94984e-05 1.01392)
(-0.00247907 -4.75108e-05 0.9849)
(0.00335853 -0.000940628 0.981963)
(0.00297179 -0.00095316 1.01474)
(0.000721438 -0.000947943 1.00453)
(0.00148305 -0.000946777 1.00446)
(0.000686559 -0.000945761 1.00435)
(0.000661047 -0.000944634 1.00449)
(-0.000184786 -0.000943385 1.00486)
(0.000296821 -0.000942282 1.0052)
(-0.00173168 -0.000944674 1.01414)
(-0.00248441 -0.000930192 0.985105)
(0.00334542 -0.00035279 0.982119)
(0.00296743 -0.000356694 1.01486)
(0.000726179 -0.000359001 1.00466)
(0.00148447 -0.000354275 1.00459)
(0.000688242 -0.000354367 1.00449)
(0.000662383 -0.000353274 1.00462)
(-0.000183302 -0.000350968 1.005)
(0.000294981 -0.000353023 1.00533)
(-0.0017244 -0.000348946 1.01426)
(-0.00247043 -0.000340074 0.98527)
(0.00338492 -0.00261999 0.991829)
(0.00299217 -0.00264124 1.02473)
(0.000723108 -0.00261424 1.01442)
(0.00148867 -0.00261748 1.01437)
(0.000688058 -0.00261122 1.01425)
(0.000661216 -0.00260827 1.01439)
(-0.000188417 -0.00260822 1.01477)
(0.000296634 -0.00259897 1.01508)
(-0.00174821 -0.00261551 1.02409)
(-0.00250769 -0.00258756 0.994943)
(0.00333594 -0.00310113 0.960188)
(0.00297489 -0.00315431 0.99291)
(0.000722572 -0.00311229 0.982765)
(0.00148157 -0.00312437 0.982678)
(0.000694902 -0.00311539 0.982588)
(0.000672039 -0.0031127 0.982733)
(-0.000163599 -0.00311582 0.983115)
(0.000315456 -0.00309932 0.983481)
(-0.00170485 -0.00312905 0.992353)
(-0.00244223 -0.00307739 0.963468)
(0.00347624 0.00318275 0.953757)
(0.00305374 0.00324452 0.99159)
(0.000814302 0.00319511 0.98006)
(0.00168195 0.0032091 0.979923)
(0.000835289 0.00319726 0.979866)
(0.000944618 0.00319355 0.980051)
(6.46241e-05 0.00319694 0.980489)
(0.000596949 0.00317585 0.980995)
(-0.00120879 0.00320554 0.99068)
(-0.00216477 0.00314251 0.958703)
(0.00353174 0.0026133 0.990149)
(0.00307192 0.00263754 1.02823)
(0.000814321 0.002606 1.01647)
(0.00168897 0.00260934 1.01638)
(0.000823991 0.00260114 1.01629)
(0.000927675 0.00259709 1.01645)
(2.77683e-05 0.00259638 1.01689)
(0.000564835 0.00258366 1.01731)
(-0.00127754 0.00259858 1.02719)
(-0.00225678 0.00256127 0.994807)
(0.0034859 0.000350473 0.979197)
(0.00304361 0.00035566 1.01706)
(0.000818411 0.000358565 1.00545)
(0.00168384 0.000352763 1.00534)
(0.000824914 0.000353023 1.00526)
(0.000929519 0.000351539 1.00543)
(3.51229e-05 0.000348355 1.00586)
(0.0005637 0.00035007 1.00632)
(-0.0012483 0.00034443 1.01608)
(-0.0022115 0.000330696 0.983925)
(0.00350121 0.000995898 0.978982)
(0.00304836 0.00101137 1.01689)
(0.000812568 0.00100456 1.00526)
(0.00168223 0.0010033 1.00515)
(0.000822558 0.00100191 1.00507)
(0.000927793 0.00100043 1.00524)
(3.24704e-05 0.000998936 1.00567)
(0.000564877 0.000996762 1.00613)
(-0.0012592 0.000999426 1.01591)
(-0.00223286 0.000980432 0.983686)
(0.00349178 7.52127e-06 0.978788)
(0.00304274 7.82953e-06 1.01667)
(0.000813604 7.42703e-06 1.00506)
(0.00168142 6.53192e-06 1.00494)
(0.000822151 6.42001e-06 1.00486)
(0.000927002 6.10279e-06 1.00504)
(3.18311e-05 5.64087e-06 1.00547)
(0.000562852 5.58441e-06 1.00592)
(-0.00125582 5.63245e-06 1.01569)
(-0.00222562 3.87649e-06 0.98349)
(0.00349177 -7.23944e-06 0.978788)
(0.00304276 -7.5422e-06 1.01667)
(0.000813637 -7.02667e-06 1.00506)
(0.00168146 -6.07097e-06 1.00494)
(0.000822226 -5.78066e-06 1.00486)
(0.000927126 -5.27476e-06 1.00504)
(3.19352e-05 -4.42046e-06 1.00547)
(0.000563029 -4.25697e-06 1.00592)