/*--------------------------------*- C++ -*----------------------------------*\
  =========                 |
  \\      /  F ield         | OpenFOAM: The Open Source CFD Toolbox
   \\    /   O peration     | Website:  https://openfoam.org
    \\  /    A nd           | Version:  6
     \\/     M anipulation  |
\*---------------------------------------------------------------------------*/
FoamFile
{
    version     2.0;
    format      ascii;
    class       volScalarField;
    location    "0.565";
    object      T;
}
// * * * * * * * * * * * * * * * * * * * * * * * * * * * * * * * * * * * * * //

dimensions      [0 0 0 1 0 0 0];

internalField   nonuniform List<scalar> 
7000
(
105.798
105.796
105.791
105.785
105.778
105.77
105.762
105.754
105.749
105.746
105.798
105.796
105.791
105.785
105.778
105.77
105.762
105.754
105.749
105.746
105.798
105.796
105.791
105.785
105.778
105.77
105.762
105.754
105.749
105.746
105.798
105.796
105.791
105.785
105.778
105.77
105.762
105.754
105.749
105.746
105.798
105.796
105.791
105.785
105.778
105.77
105.762
105.754
105.749
105.746
105.798
105.796
105.791
105.785
105.778
105.77
105.762
105.754
105.749
105.746
105.798
105.796
105.791
105.785
105.778
105.77
105.762
105.754
105.749
105.746
105.798
105.796
105.791
105.785
105.778
105.77
105.762
105.754
105.749
105.746
105.798
105.796
105.791
105.785
105.778
105.77
105.762
105.754
105.749
105.746
105.798
105.796
105.791
105.785
105.778
105.77
105.762
105.754
105.749
105.746
97.4304
97.4236
97.4104
97.3917
97.3687
97.3435
97.3182
97.2957
97.2788
97.2696
97.4304
97.4236
97.4104
97.3916
97.3687
97.3435
97.3182
97.2957
97.2787
97.2696
97.4304
97.4235
97.4104
97.3916
97.3687
97.3434
97.3182
97.2957
97.2787
97.2696
97.4303
97.4235
97.4103
97.3916
97.3687
97.3434
97.3182
97.2957
97.2787
97.2696
97.4303
97.4235
97.4103
97.3916
97.3687
97.3434
97.3182
97.2957
97.2787
97.2696
97.4303
97.4235
97.4103
97.3916
97.3687
97.3434
97.3182
97.2957
97.2787
97.2696
97.4303
97.4235
97.4103
97.3916
97.3687
97.3434
97.3182
97.2957
97.2787
97.2696
97.4303
97.4235
97.4103
97.3916
97.3687
97.3434
97.3182
97.2957
97.2787
97.2696
97.4304
97.4235
97.4104
97.3916
97.3687
97.3434
97.3182
97.2957
97.2787
97.2696
97.4304
97.4236
97.4104
97.3916
97.3687
97.3435
97.3182
97.2957
97.2787
97.2696
89.1711
89.1593
89.1363
89.1035
89.0632
89.0185
88.9734
88.9328
88.9019
88.8852
89.1711
89.1592
89.1363
89.1035
89.0632
89.0184
88.9733
88.9328
88.9019
88.8851
89.171
89.1592
89.1362
89.1035
89.0632
89.0184
88.9733
88.9327
88.9019
88.8851
89.171
89.1592
89.1362
89.1035
89.0632
89.0184
88.9733
88.9327
88.9019
88.8851
89.171
89.1592
89.1362
89.1035
89.0632
89.0184
88.9733
88.9327
88.9019
88.8851
89.171
89.1592
89.1362
89.1035
89.0631
89.0184
88.9733
88.9327
88.9019
88.8851
89.171
89.1592
89.1362
89.1035
89.0632
89.0184
88.9733
88.9327
88.9019
88.8851
89.171
89.1592
89.1362
89.1035
89.0632
89.0184
88.9733
88.9327
88.9019
88.8851
89.171
89.1592
89.1362
89.1035
89.0632
89.0184
88.9733
88.9328
88.9019
88.8851
89.171
89.1592
89.1363
89.1035
89.0632
89.0184
88.9733
88.9328
88.9019
88.8852
81.0898
81.0722
81.0381
80.9891
80.9282
80.8597
80.7899
80.7262
80.677
80.65
81.0897
81.0722
81.0381
80.989
80.9281
80.8597
80.7899
80.7261
80.6769
80.65
81.0897
81.0722
81.038
80.989
80.9281
80.8597
80.7898
80.7261
80.6769
80.65
81.0897
81.0722
81.038
80.989
80.9281
80.8597
80.7898
80.7261
80.6769
80.6499
81.0897
81.0722
81.038
80.989
80.9281
80.8597
80.7898
80.7261
80.6769
80.6499
81.0897
81.0721
81.038
80.989
80.9281
80.8597
80.7898
80.7261
80.6769
80.6499
81.0897
81.0722
81.038
80.989
80.9281
80.8597
80.7898
80.7261
80.6769
80.6499
81.0897
81.0722
81.038
80.989
80.9281
80.8597
80.7898
80.7261
80.6769
80.6499
81.0897
81.0722
81.038
80.989
80.9281
80.8597
80.7898
80.7261
80.6769
80.65
81.0897
81.0722
81.0381
80.989
80.9281
80.8597
80.7899
80.7262
80.677
80.65
73.2523
73.2283
73.1811
73.1129
73.0269
72.9289
72.8268
72.7316
72.6565
72.6146
73.2523
73.2283
73.1811
73.1128
73.0269
72.9288
72.8267
72.7316
72.6565
72.6146
73.2523
73.2282
73.1811
73.1128
73.0269
72.9288
72.8267
72.7315
72.6564
72.6146
73.2522
73.2282
73.181
73.1128
73.0268
72.9288
72.8267
72.7315
72.6564
72.6145
73.2522
73.2282
73.181
73.1128
73.0268
72.9288
72.8267
72.7315
72.6564
72.6145
73.2522
73.2282
73.181
73.1127
73.0268
72.9288
72.8267
72.7315
72.6564
72.6145
73.2522
73.2282
73.181
73.1128
73.0268
72.9288
72.8267
72.7315
72.6564
72.6145
73.2522
73.2282
73.181
73.1128
73.0269
72.9288
72.8267
72.7315
72.6564
72.6146
73.2523
73.2282
73.1811
73.1128
73.0269
72.9288
72.8267
72.7315
72.6565
72.6146
73.2523
73.2283
73.1811
73.1128
73.0269
72.9289
72.8268
72.7316
72.6565
72.6146
65.7198
65.6883
65.6262
65.5352
65.4189
65.2833
65.1382
64.9987
64.885
64.8196
65.7197
65.6882
65.6261
65.5351
65.4188
65.2832
65.1382
64.9987
64.8849
64.8195
65.7197
65.6882
65.6261
65.5351
65.4188
65.2832
65.1381
64.9986
64.8849
64.8195
65.7196
65.6882
65.626
65.5351
65.4188
65.2831
65.1381
64.9986
64.8849
64.8195
65.7196
65.6881
65.626
65.5351
65.4187
65.2831
65.1381
64.9986
64.8848
64.8195
65.7196
65.6881
65.626
65.5351
65.4187
65.2831
65.1381
64.9986
64.8848
64.8195
65.7196
65.6881
65.626
65.5351
65.4187
65.2831
65.1381
64.9986
64.8849
64.8195
65.7196
65.6882
65.626
65.5351
65.4188
65.2832
65.1381
64.9986
64.8849
64.8195
65.7197
65.6882
65.6261
65.5351
65.4188
65.2832
65.1382
64.9987
64.8849
64.8196
65.7197
65.6882
65.6261
65.5352
65.4188
65.2832
65.1382
64.9987
64.885
64.8196
58.5467
58.5071
58.4283
58.3113
58.1589
57.9763
57.7741
57.5708
57.3963
57.2909
58.5467
58.507
58.4282
58.3113
58.1588
57.9763
57.774
57.5708
57.3963
57.2909
58.5466
58.507
58.4282
58.3112
58.1588
57.9762
57.774
57.5707
57.3963
57.2908
58.5466
58.507
58.4281
58.3112
58.1588
57.9762
57.774
57.5707
57.3962
57.2908
58.5466
58.5069
58.4281
58.3112
58.1588
57.9762
57.774
57.5707
57.3962
57.2908
58.5466
58.5069
58.4281
58.3112
58.1588
57.9762
57.774
57.5707
57.3962
57.2908
58.5466
58.507
58.4281
58.3112
58.1588
57.9762
57.774
57.5707
57.3962
57.2908
58.5466
58.507
58.4281
58.3112
58.1588
57.9762
57.774
57.5707
57.3963
57.2908
58.5466
58.507
58.4282
58.3113
58.1588
57.9763
57.774
57.5708
57.3963
57.2909
58.5467
58.5071
58.4282
58.3113
58.1589
57.9763
57.7741
57.5708
57.3963
57.2909
51.7807
51.7327
51.6363
51.4913
51.298
51.059
50.7822
50.4867
50.2127
50.0315
51.7807
51.7326
51.6362
51.4912
51.2979
51.0589
50.7821
50.4866
50.2126
50.0315
51.7806
51.7326
51.6362
51.4912
51.2979
51.0589
50.7821
50.4866
50.2126
50.0314
51.7806
51.7325
51.6362
51.4911
51.2978
51.0588
50.782
50.4865
50.2125
50.0314
51.7806
51.7325
51.6361
51.4911
51.2978
51.0588
50.782
50.4865
50.2125
50.0314
51.7806
51.7325
51.6361
51.4911
51.2978
51.0588
50.782
50.4865
50.2125
50.0314
51.7806
51.7325
51.6361
51.4911
51.2978
51.0588
50.782
50.4865
50.2125
50.0314
51.7806
51.7325
51.6362
51.4911
51.2978
51.0589
50.7821
50.4866
50.2126
50.0314
51.7807
51.7326
51.6362
51.4912
51.2979
51.0589
50.7821
50.4866
50.2126
50.0315
51.7807
51.7326
51.6363
51.4912
51.2979
51.059
50.7822
50.4867
50.2127
50.0315
45.461
45.405
45.2918
45.1191
44.8835
44.5819
44.2137
43.7884
43.3461
43.0027
45.4609
45.4049
45.2918
45.119
44.8835
44.5818
44.2136
43.7884
43.346
43.0027
45.4609
45.4049
45.2917
45.119
44.8834
44.5818
44.2135
43.7883
43.346
43.0027
45.4609
45.4049
45.2917
45.119
44.8834
44.5818
44.2135
43.7883
43.3459
43.0026
45.4608
45.4048
45.2917
45.1189
44.8834
44.5817
44.2135
43.7883
43.3459
43.0026
45.4608
45.4048
45.2917
45.1189
44.8834
44.5817
44.2135
43.7883
43.3459
43.0026
45.4608
45.4048
45.2917
45.119
44.8834
44.5818
44.2135
43.7883
43.3459
43.0026
45.4609
45.4049
45.2917
45.119
44.8834
44.5818
44.2135
43.7883
43.346
43.0027
45.4609
45.4049
45.2918
45.119
44.8835
44.5818
44.2136
43.7884
43.346
43.0027
45.4609
45.405
45.2918
45.1191
44.8835
44.5819
44.2137
43.7884
43.3461
43.0028
39.6174
39.555
39.4282
39.2322
38.9595
38.5984
38.1327
37.5424
36.8204
36.0745
39.6173
39.555
39.4281
39.2321
38.9594
38.5983
38.1326
37.5423
36.8204
36.0745
39.6173
39.5549
39.4281
39.2321
38.9593
38.5983
38.1326
37.5422
36.8203
36.0744
39.6173
39.5549
39.428
39.2321
38.9593
38.5983
38.1325
37.5422
36.8203
36.0744
39.6172
39.5549
39.428
39.232
38.9593
38.5982
38.1325
37.5422
36.8203
36.0744
39.6172
39.5549
39.428
39.232
38.9593
38.5982
38.1325
37.5422
36.8203
36.0744
39.6172
39.5549
39.428
39.2321
38.9593
38.5983
38.1325
37.5422
36.8203
36.0744
39.6173
39.5549
39.4281
39.2321
38.9593
38.5983
38.1326
37.5422
36.8203
36.0744
39.6173
39.5549
39.4281
39.2321
38.9594
38.5983
38.1326
37.5423
36.8204
36.0745
39.6173
39.555
39.4282
39.2322
38.9594
38.5984
38.1327
37.5423
36.8205
36.0746
34.2696
34.2035
34.0686
33.8587
33.563
33.1627
32.625
31.8837
30.7838
28.8745
34.2695
34.2034
34.0685
33.8587
33.5629
33.1627
32.6249
31.8837
30.7837
28.8744
34.2694
34.2034
34.0685
33.8586
33.5628
33.1626
32.6248
31.8836
30.7837
28.8744
34.2694
34.2033
34.0685
33.8586
33.5628
33.1626
32.6248
31.8836
30.7836
28.8743
34.2694
34.2033
34.0684
33.8586
33.5628
33.1626
32.6248
31.8836
30.7836
28.8743
34.2694
34.2033
34.0684
33.8586
33.5628
33.1626
32.6248
31.8836
30.7836
28.8743
34.2694
34.2033
34.0685
33.8586
33.5628
33.1626
32.6248
31.8836
30.7836
28.8743
34.2694
34.2034
34.0685
33.8586
33.5628
33.1626
32.6248
31.8836
30.7837
28.8744
34.2695
34.2034
34.0685
33.8587
33.5629
33.1627
32.6249
31.8837
30.7837
28.8744
34.2695
34.2035
34.0686
33.8587
33.5629
33.1627
32.625
31.8837
30.7838
28.8745
29.4261
29.3597
29.2243
29.0137
28.717
28.3159
27.7794
27.0531
26.0412
24.5951
29.426
29.3597
29.2243
29.0136
28.7169
28.3158
27.7793
27.0531
26.0411
24.5951
29.4259
29.3596
29.2242
29.0136
28.7169
28.3158
27.7793
27.053
26.0411
24.595
29.4259
29.3596
29.2242
29.0136
28.7168
28.3157
27.7793
27.053
26.041
24.595
29.4259
29.3596
29.2242
29.0135
28.7168
28.3157
27.7792
27.053
26.041
24.5949
29.4259
29.3596
29.2242
29.0135
28.7168
28.3157
27.7792
27.053
26.041
24.5949
29.4259
29.3596
29.2242
29.0136
28.7168
28.3157
27.7793
27.053
26.041
24.595
29.4259
29.3596
29.2242
29.0136
28.7169
28.3158
27.7793
27.053
26.0411
24.595
29.426
29.3597
29.2243
29.0136
28.7169
28.3158
27.7793
27.0531
26.0411
24.595
29.426
29.3597
29.2243
29.0137
28.717
28.3159
27.7794
27.0531
26.0412
24.5951
25.0843
25.0213
24.8933
24.6955
24.4204
24.0559
23.5843
22.9819
22.2248
21.3219
25.0842
25.0213
24.8932
24.6955
24.4203
24.0558
23.5842
22.9818
22.2247
21.3218
25.0842
25.0212
24.8932
24.6954
24.4203
24.0557
23.5842
22.9818
22.2247
21.3217
25.0842
25.0212
24.8931
24.6954
24.4203
24.0557
23.5841
22.9817
22.2247
21.3217
25.0842
25.0212
24.8931
24.6954
24.4202
24.0557
23.5841
22.9817
22.2246
21.3217
25.0841
25.0212
24.8931
24.6954
24.4202
24.0557
23.5841
22.9817
22.2246
21.3217
25.0842
25.0212
24.8931
24.6954
24.4203
24.0557
23.5841
22.9817
22.2247
21.3217
25.0842
25.0212
24.8932
24.6954
24.4203
24.0558
23.5842
22.9818
22.2247
21.3217
25.0842
25.0212
24.8932
24.6955
24.4203
24.0558
23.5842
22.9818
22.2247
21.3218
25.0843
25.0213
24.8933
24.6955
24.4204
24.0559
23.5843
22.9819
22.2248
21.3219
21.2312
21.1746
21.0605
20.8867
20.6502
20.3472
19.9748
19.5346
19.0434
18.5582
21.2311
21.1745
21.0604
20.8866
20.6501
20.3471
19.9747
19.5345
19.0433
18.5581
21.2311
21.1745
21.0604
20.8866
20.6501
20.3471
19.9747
19.5345
19.0433
18.558
21.231
21.1745
21.0603
20.8866
20.65
20.3471
19.9747
19.5344
19.0433
18.558
21.231
21.1744
21.0603
20.8865
20.65
20.347
19.9746
19.5344
19.0432
18.558
21.231
21.1744
21.0603
20.8865
20.65
20.347
19.9746
19.5344
19.0432
18.558
21.231
21.1745
21.0603
20.8866
20.65
20.3471
19.9747
19.5344
19.0433
18.558
21.2311
21.1745
21.0604
20.8866
20.6501
20.3471
19.9747
19.5345
19.0433
18.558
21.2311
21.1745
21.0604
20.8866
20.6501
20.3471
19.9747
19.5345
19.0434
18.5581
21.2311
21.1746
21.0605
20.8867
20.6502
20.3472
19.9748
19.5346
19.0434
18.5582
17.8444
17.7964
17.7005
17.5575
17.369
17.1387
16.8753
16.5959
16.3345
16.1537
17.8444
17.7963
17.7005
17.5575
17.3689
17.1387
16.8752
16.5958
16.3344
16.1536
17.8443
17.7963
17.7004
17.5574
17.3689
17.1386
16.8752
16.5958
16.3344
16.1535
17.8443
17.7963
17.7004
17.5574
17.3688
17.1386
16.8752
16.5958
16.3343
16.1535
17.8443
17.7962
17.7004
17.5574
17.3688
17.1386
16.8751
16.5957
16.3343
16.1535
17.8443
17.7962
17.7004
17.5574
17.3688
17.1386
16.8751
16.5957
16.3343
16.1535
17.8443
17.7963
17.7004
17.5574
17.3688
17.1386
16.8752
16.5958
16.3343
16.1535
17.8443
17.7963
17.7004
17.5574
17.3689
17.1386
16.8752
16.5958
16.3344
16.1535
17.8444
17.7963
17.7005
17.5575
17.3689
17.1387
16.8752
16.5958
16.3344
16.1536
17.8444
17.7964
17.7005
17.5575
17.369
17.1388
16.8753
16.5959
16.3345
16.1537
14.8948
14.8563
14.7806
14.6707
14.5324
14.3753
14.2157
14.0795
14.0066
14.0534
14.8948
14.8562
14.7805
14.6707
14.5323
14.3752
14.2156
14.0795
14.0065
14.0533
14.8948
14.8562
14.7805
14.6706
14.5323
14.3752
14.2156
14.0794
14.0065
14.0533
14.8947
14.8562
14.7805
14.6706
14.5323
14.3751
14.2155
14.0794
14.0065
14.0532
14.8947
14.8562
14.7805
14.6706
14.5322
14.3751
14.2155
14.0794
14.0065
14.0532
14.8947
14.8562
14.7805
14.6706
14.5322
14.3751
14.2155
14.0794
14.0065
14.0532
14.8947
14.8562
14.7805
14.6706
14.5323
14.3751
14.2155
14.0794
14.0065
14.0532
14.8948
14.8562
14.7805
14.6706
14.5323
14.3752
14.2156
14.0794
14.0065
14.0533
14.8948
14.8562
14.7805
14.6707
14.5323
14.3752
14.2156
14.0795
14.0066
14.0533
14.8948
14.8563
14.7806
14.6707
14.5324
14.3753
14.2157
14.0795
14.0066
14.0534
12.3484
12.3192
12.2632
12.1852
12.0937
12.0027
11.9336
11.9181
11.9993
12.229
12.3483
12.3192
12.2632
12.1852
12.0937
12.0026
11.9336
11.9181
11.9993
12.2289
12.3483
12.3192
12.2631
12.1851
12.0936
12.0026
11.9335
11.918
11.9992
12.2288
12.3483
12.3191
12.2631
12.1851
12.0936
12.0026
11.9335
11.918
11.9992
12.2288
12.3482
12.3191
12.2631
12.1851
12.0936
12.0026
11.9335
11.918
11.9992
12.2288
12.3482
12.3191
12.2631
12.1851
12.0936
12.0026
11.9335
11.918
11.9992
12.2288
12.3483
12.3191
12.2631
12.1851
12.0936
12.0026
11.9335
11.918
11.9992
12.2288
12.3483
12.3192
12.2631
12.1851
12.0936
12.0026
11.9335
11.918
11.9992
12.2288
12.3483
12.3192
12.2632
12.1852
12.0937
12.0027
11.9336
11.9181
11.9993
12.2289
12.3483
12.3192
12.2632
12.1852
12.0937
12.0027
11.9336
11.9181
11.9993
12.229
10.1682
10.1476
10.1091
10.0587
10.0068
9.96977
9.97265
10.0522
10.2589
10.6519
10.1682
10.1475
10.109
10.0587
10.0068
9.96973
9.9726
10.0521
10.2588
10.6519
10.1681
10.1475
10.109
10.0587
10.0067
9.96969
9.97257
10.0521
10.2588
10.6518
10.1681
10.1475
10.109
10.0586
10.0067
9.96967
9.97254
10.0521
10.2588
10.6518
10.1681
10.1475
10.109
10.0586
10.0067
9.96966
9.97253
10.0521
10.2587
10.6518
10.1681
10.1475
10.109
10.0586
10.0067
9.96966
9.97254
10.0521
10.2587
10.6518
10.1681
10.1475
10.109
10.0586
10.0067
9.96968
9.97255
10.0521
10.2588
10.6518
10.1681
10.1475
10.109
10.0587
10.0067
9.9697
9.97258
10.0521
10.2588
10.6518
10.1682
10.1475
10.1091
10.0587
10.0068
9.96974
9.97262
10.0522
10.2588
10.6519
10.1682
10.1476
10.1091
10.0587
10.0068
9.96979
9.97267
10.0522
10.2589
10.6519
8.31687
8.30323
8.27891
8.25024
8.22799
8.22919
8.28026
8.42216
8.71902
9.26749
8.31683
8.30319
8.27887
8.2502
8.22794
8.22915
8.28022
8.42212
8.71897
9.26744
8.3168
8.30316
8.27885
8.25017
8.22791
8.22912
8.28018
8.42208
8.71893
9.2674
8.31678
8.30314
8.27883
8.25016
8.22789
8.2291
8.28016
8.42206
8.71891
9.26737
8.31677
8.30313
8.27882
8.25015
8.22789
8.22909
8.28015
8.42205
8.7189
9.26736
8.31677
8.30313
8.27882
8.25015
8.22789
8.22909
8.28016
8.42205
8.7189
9.26736
8.31678
8.30314
8.27883
8.25016
8.2279
8.2291
8.28017
8.42207
8.71891
9.26738
8.3168
8.30316
8.27885
8.25018
8.22792
8.22913
8.2802
8.42209
8.71894
9.26741
8.31683
8.30319
8.27888
8.25022
8.22796
8.22916
8.28023
8.42213
8.71898
9.26745
8.31686
8.30323
8.27893
8.25026
8.228
8.22921
8.28028
8.42218
8.71904
9.26751
6.75746
6.74909
6.73516
6.72153
6.71802
6.73986
6.81048
6.96778
7.28213
7.92156
6.75742
6.74906
6.73512
6.72149
6.71798
6.73982
6.81044
6.96773
7.28209
7.92152
6.7574
6.74903
6.7351
6.72147
6.71795
6.73979
6.81041
6.9677
7.28206
7.92149
6.75738
6.74902
6.73508
6.72145
6.71794
6.73977
6.8104
6.96769
7.28204
7.92146
6.75737
6.74901
6.73507
6.72144
6.71793
6.73977
6.81039
6.96768
7.28203
7.92145
6.75737
6.74901
6.73508
6.72144
6.71793
6.73977
6.81039
6.96768
7.28203
7.92146
6.75738
6.74902
6.73509
6.72146
6.71794
6.73978
6.8104
6.96769
7.28205
7.92147
6.7574
6.74904
6.73511
6.72148
6.71796
6.7398
6.81043
6.96772
7.28207
7.9215
6.75742
6.74906
6.73513
6.72151
6.71799
6.73984
6.81046
6.96775
7.28211
7.92154
6.75745
6.7491
6.73517
6.72155
6.71804
6.73988
6.8105
6.9678
7.28216
7.9216
24.5534
22.68
22.4607
23.6347
26.1752
30.2043
35.9915
44.0156
55.139
71.0755
24.5533
22.6799
22.4606
23.6346
26.175
30.2042
35.9913
44.0154
55.1388
71.0753
24.5533
22.6798
22.4606
23.6345
26.1749
30.2041
35.9912
44.0153
55.1387
71.0752
24.5532
22.6798
22.4605
23.6345
26.1749
30.204
35.9912
44.0152
55.1386
71.0751
24.5532
22.6798
22.4605
23.6344
26.1749
30.204
35.9911
44.0152
55.1386
71.075
24.5532
22.6798
22.4605
23.6344
26.1748
30.2039
35.9911
44.0152
55.1386
71.075
24.5532
22.6798
22.4605
23.6344
26.1749
30.204
35.9911
44.0152
55.1386
71.075
24.5532
22.6798
22.4605
23.6345
26.1749
30.204
35.9912
44.0152
55.1387
71.0751
24.5533
22.6799
22.4606
23.6345
26.175
30.2041
35.9913
44.0153
55.1388
71.0752
24.5534
22.6799
22.4606
23.6346
26.175
30.2042
35.9914
44.0154
55.1389
71.0753
22.6613
21.6273
21.7183
22.9737
25.4526
29.2794
34.6613
41.9027
51.3986
63.4836
22.6613
21.6273
21.7182
22.9735
25.4524
29.2793
34.6612
41.9026
51.3985
63.4834
22.6612
21.6272
21.7181
22.9735
25.4524
29.2792
34.6611
41.9025
51.3983
63.4833
22.6611
21.6271
21.7181
22.9734
25.4523
29.2791
34.661
41.9024
51.3982
63.4832
22.6611
21.6271
21.7181
22.9734
25.4523
29.2791
34.661
41.9023
51.3982
63.4831
22.6611
21.6271
21.7181
22.9734
25.4523
29.2791
34.661
41.9023
51.3982
63.4831
22.6611
21.6271
21.7181
22.9734
25.4523
29.2791
34.661
41.9024
51.3982
63.4832
22.6612
21.6272
21.7181
22.9734
25.4523
29.2792
34.6611
41.9024
51.3983
63.4832
22.6612
21.6272
21.7182
22.9735
25.4524
29.2792
34.6611
41.9025
51.3984
63.4833
22.6613
21.6273
21.7183
22.9736
25.4525
29.2793
34.6613
41.9026
51.3985
63.4835
20.425
20.0479
20.4576
21.7886
24.1412
27.6244
32.3683
38.509
46.1244
55.0519
20.4249
20.0478
20.4575
21.7885
24.1411
27.6243
32.3682
38.5089
46.1243
55.0517
20.4249
20.0478
20.4574
21.7884
24.141
27.6242
32.3681
38.5088
46.1242
55.0516
20.4248
20.0477
20.4573
21.7883
24.1409
27.6242
32.368
38.5087
46.1241
55.0515
20.4248
20.0477
20.4573
21.7883
24.1409
27.6241
32.368
38.5087
46.124
55.0515
20.4248
20.0477
20.4573
21.7883
24.1409
27.6241
32.368
38.5086
46.124
55.0514
20.4248
20.0477
20.4573
21.7883
24.1409
27.6241
32.368
38.5087
46.1241
55.0515
20.4249
20.0478
20.4574
21.7884
24.1409
27.6242
32.3681
38.5087
46.1241
55.0516
20.4249
20.0478
20.4574
21.7885
24.141
27.6243
32.3682
38.5088
46.1242
55.0517
20.425
20.0479
20.4575
21.7885
24.1411
27.6244
32.3683
38.509
46.1244
55.0518
18.2186
18.2717
18.9114
20.2699
22.4448
25.5178
29.5559
34.5905
40.5637
47.2295
18.2185
18.2716
18.9113
20.2698
22.4447
25.5177
29.5558
34.5904
40.5636
47.2293
18.2184
18.2715
18.9112
20.2697
22.4446
25.5176
29.5557
34.5903
40.5635
47.2292
18.2184
18.2715
18.9112
20.2697
22.4445
25.5175
29.5556
34.5902
40.5634
47.2292
18.2184
18.2714
18.9112
20.2697
22.4445
25.5175
29.5556
34.5902
40.5633
47.2291
18.2184
18.2714
18.9112
20.2697
22.4445
25.5175
29.5556
34.5902
40.5633
47.2291
18.2184
18.2715
18.9112
20.2697
22.4445
25.5175
29.5556
34.5902
40.5634
47.2291
18.2184
18.2715
18.9112
20.2697
22.4446
25.5176
29.5557
34.5903
40.5634
47.2292
18.2185
18.2716
18.9113
20.2698
22.4447
25.5177
29.5558
34.5904
40.5635
47.2293
18.2185
18.2716
18.9114
20.2699
22.4448
25.5178
29.5559
34.5905
40.5637
47.2295
16.1572
16.4855
17.268
18.6065
20.5773
23.2332
26.5984
30.6521
35.2978
40.3249
16.1571
16.4854
17.2679
18.6064
20.5772
23.2331
26.5983
30.6519
35.2976
40.3247
16.1571
16.4854
17.2678
18.6063
20.5771
23.233
26.5982
30.6518
35.2975
40.3246
16.157
16.4853
17.2678
18.6063
20.5771
23.2329
26.5981
30.6518
35.2975
40.3246
16.157
16.4853
17.2678
18.6063
20.5771
23.2329
26.5981
30.6517
35.2974
40.3245
16.157
16.4853
17.2678
18.6063
20.5771
23.2329
26.5981
30.6517
35.2974
40.3245
16.157
16.4853
17.2678
18.6063
20.5771
23.2329
26.5981
30.6518
35.2975
40.3246
16.1571
16.4854
17.2678
18.6063
20.5771
23.233
26.5982
30.6518
35.2975
40.3246
16.1571
16.4854
17.2679
18.6064
20.5772
23.2331
26.5983
30.6519
35.2976
40.3248
16.1572
16.4855
17.268
18.6065
20.5773
23.2332
26.5984
30.6521
35.2978
40.3249
14.2924
14.8051
15.672
16.9629
18.7297
21.0008
23.7735
27.004
30.5946
34.3869
14.2924
14.805
15.6719
16.9628
18.7296
21.0006
23.7734
27.0038
30.5944
34.3867
14.2923
14.8049
15.6718
16.9627
18.7295
21.0006
23.7733
27.0037
30.5943
34.3866
14.2923
14.8049
15.6718
16.9627
18.7295
21.0005
23.7732
27.0037
30.5943
34.3866
14.2923
14.8049
15.6717
16.9626
18.7294
21.0005
23.7732
27.0037
30.5942
34.3865
14.2923
14.8049
15.6717
16.9626
18.7294
21.0005
23.7732
27.0037
30.5942
34.3865
14.2923
14.8049
15.6718
16.9627
18.7295
21.0005
23.7732
27.0037
30.5943
34.3866
14.2923
14.8049
15.6718
16.9627
18.7295
21.0006
23.7733
27.0037
30.5943
34.3867
14.2924
14.805
15.6719
16.9628
18.7296
21.0006
23.7734
27.0038
30.5944
34.3868
14.2924
14.8051
15.672
16.9629
18.7297
21.0008
23.7735
27.004
30.5946
34.3869
12.6557
13.3107
14.2355
15.4741
17.0592
19.0011
21.28
23.84
26.5884
29.4058
12.6557
13.3106
14.2354
15.474
17.0591
19.001
21.2799
23.8399
26.5882
29.4057
12.6556
13.3106
14.2354
15.4739
17.059
19.0009
21.2798
23.8398
26.5882
29.4056
12.6556
13.3106
14.2353
15.4739
17.0589
19.0008
21.2797
23.8398
26.5881
29.4055
12.6556
13.3105
14.2353
15.4739
17.0589
19.0008
21.2797
23.8397
26.5881
29.4055
12.6556
13.3105
14.2353
15.4739
17.0589
19.0008
21.2797
23.8397
26.5881
29.4055
12.6556
13.3106
14.2353
15.4739
17.0589
19.0008
21.2797
23.8398
26.5881
29.4055
12.6556
13.3106
14.2354
15.474
17.059
19.0009
21.2798
23.8398
26.5882
29.4056
12.6557
13.3107
14.2354
15.474
17.0591
19.001
21.2799
23.8399
26.5883
29.4057
12.6557
13.3107
14.2355
15.4741
17.0592
19.0011
21.28
23.84
26.5884
29.4058
11.2707
12.0665
13.0487
14.2489
15.6902
17.3727
19.2637
21.2951
23.3671
25.3706
11.2706
12.0664
13.0487
14.2488
15.6902
17.3726
19.2636
21.295
23.367
25.3705
11.2706
12.0664
13.0486
14.2487
15.6901
17.3725
19.2635
21.2949
23.3669
25.3704
11.2706
12.0663
13.0486
14.2487
15.69
17.3724
19.2634
21.2949
23.3669
25.3704
11.2705
12.0663
13.0486
14.2486
15.69
17.3724
19.2634
21.2949
23.3669
25.3703
11.2705
12.0663
13.0486
14.2486
15.69
17.3724
19.2634
21.2949
23.3669
25.3703
11.2706
12.0664
13.0486
14.2487
15.6901
17.3724
19.2635
21.2949
23.3669
25.3704
11.2706
12.0664
13.0486
14.2487
15.6901
17.3725
19.2635
21.295
23.367
25.3704
11.2706
12.0664
13.0487
14.2488
15.6902
17.3726
19.2636
21.295
23.3671
25.3705
11.2707
12.0665
13.0488
14.2489
15.6903
17.3727
19.2637
21.2952
23.3672
25.3707
10.166
11.1361
12.1894
13.3739
14.7189
16.2212
17.8384
19.4842
21.0277
22.3098
10.166
11.1361
12.1893
13.3738
14.7189
16.2212
17.8383
19.4841
21.0276
22.3097
10.1659
11.136
12.1893
13.3737
14.7188
16.2211
17.8382
19.4841
21.0276
22.3096
10.1659
11.136
12.1892
13.3737
14.7188
16.221
17.8382
19.484
21.0275
22.3096
10.1659
11.136
12.1892
13.3737
14.7187
16.221
17.8382
19.484
21.0275
22.3096
10.1659
11.136
12.1892
13.3737
14.7187
16.221
17.8382
19.484
21.0275
22.3096
10.1659
11.136
12.1892
13.3737
14.7188
16.2211
17.8382
19.484
21.0275
22.3096
10.1659
11.136
12.1893
13.3738
14.7188
16.2211
17.8382
19.4841
21.0276
22.3097
10.166
11.1361
12.1893
13.3738
14.7189
16.2212
17.8383
19.4842
21.0277
22.3097
10.166
11.1362
12.1894
13.3739
14.719
16.2213
17.8384
19.4843
21.0278
22.3099
9.42532
10.6061
11.7296
12.9159
14.2143
15.6238
17.0956
18.525
19.7301
20.3981
9.42527
10.6061
11.7296
12.9159
14.2142
15.6237
17.0956
18.5249
19.7301
20.398
9.42523
10.606
11.7295
12.9158
14.2142
15.6237
17.0955
18.5248
19.73
20.3979
9.4252
10.606
11.7295
12.9158
14.2141
15.6236
17.0955
18.5248
19.7299
20.3979
9.42519
10.606
11.7295
12.9158
14.2141
15.6236
17.0954
18.5248
19.7299
20.3979
9.4252
10.606
11.7295
12.9158
14.2141
15.6236
17.0954
18.5248
19.7299
20.3979
9.42521
10.606
11.7295
12.9158
14.2141
15.6237
17.0955
18.5248
19.73
20.3979
9.42525
10.6061
11.7296
12.9158
14.2142
15.6237
17.0955
18.5249
19.73
20.398
9.42529
10.6061
11.7296
12.9159
14.2142
15.6238
17.0956
18.525
19.7301
20.3981
9.42535
10.6062
11.7297
12.916
14.2143
15.6239
17.0957
18.5251
19.7302
20.3982
95.7697
107.322
114.26
119.017
122.468
125.014
126.872
128.173
129
129.402
95.7695
107.322
114.259
119.016
122.468
125.014
126.872
128.173
129
129.402
95.7693
107.322
114.259
119.016
122.468
125.014
126.871
128.173
129
129.402
95.7692
107.322
114.259
119.016
122.468
125.014
126.871
128.172
129
129.402
95.7692
107.322
114.259
119.016
122.468
125.014
126.871
128.172
129
129.402
95.7692
107.322
114.259
119.016
122.468
125.014
126.871
128.172
129
129.402
95.7692
107.322
114.259
119.016
122.468
125.014
126.871
128.173
129
129.402
95.7693
107.322
114.259
119.016
122.468
125.014
126.871
128.173
129
129.402
95.7694
107.322
114.259
119.016
122.468
125.014
126.872
128.173
129
129.402
95.7695
107.322
114.26
119.016
122.468
125.014
126.872
128.173
129
129.403
77.5482
87.6914
94.7579
99.7991
103.476
106.177
108.138
109.505
110.372
110.793
77.548
87.6912
94.7576
99.7988
103.476
106.177
108.137
109.505
110.372
110.793
77.5479
87.6911
94.7575
99.7987
103.475
106.176
108.137
109.505
110.372
110.792
77.5478
87.691
94.7574
99.7986
103.475
106.176
108.137
109.505
110.372
110.792
77.5477
87.691
94.7573
99.7985
103.475
106.176
108.137
109.505
110.372
110.792
77.5477
87.6909
94.7573
99.7985
103.475
106.176
108.137
109.505
110.372
110.792
77.5478
87.691
94.7574
99.7986
103.475
106.176
108.137
109.505
110.372
110.792
77.5479
87.6911
94.7575
99.7987
103.475
106.176
108.137
109.505
110.372
110.793
77.548
87.6912
94.7576
99.7988
103.476
106.177
108.137
109.505
110.372
110.793
77.5481
87.6914
94.7578
99.799
103.476
106.177
108.138
109.505
110.372
110.793
64.4717
72.4286
78.6278
83.3391
86.8907
89.5443
91.4873
92.8486
93.7133
94.1334
64.4716
72.4284
78.6276
83.3389
86.8905
89.5441
91.4871
92.8484
93.7131
94.1332
64.4714
72.4283
78.6275
83.3387
86.8903
89.5439
91.487
92.8482
93.7129
94.1331
64.4713
72.4282
78.6274
83.3386
86.8902
89.5438
91.4869
92.8481
93.7129
94.133
64.4713
72.4282
78.6274
83.3386
86.8902
89.5438
91.4868
92.8481
93.7128
94.133
64.4713
72.4282
78.6274
83.3386
86.8902
89.5438
91.4868
92.8481
93.7128
94.133
64.4713
72.4282
78.6274
83.3386
86.8902
89.5439
91.4869
92.8482
93.7129
94.1331
64.4714
72.4283
78.6275
83.3387
86.8903
89.544
91.487
92.8483
93.713
94.1332
64.4715
72.4284
78.6276
83.3389
86.8905
89.5441
91.4872
92.8484
93.7132
94.1334
64.4717
72.4286
78.6278
83.3391
86.8907
89.5443
91.4874
92.8487
93.7134
94.1336
54.0334
60.1636
65.2819
69.3827
72.588
75.0404
76.8637
78.1534
78.9776
79.3793
54.0332
60.1634
65.2817
69.3825
72.5878
75.0402
76.8635
78.1533
78.9774
79.3792
54.0331
60.1633
65.2816
69.3823
72.5876
75.04
76.8633
78.1531
78.9773
79.3791
54.033
60.1632
65.2815
69.3822
72.5875
75.0399
76.8632
78.153
78.9772
79.379
54.033
60.1632
65.2814
69.3822
72.5875
75.0399
76.8632
78.153
78.9772
79.379
54.033
60.1632
65.2814
69.3822
72.5875
75.0399
76.8632
78.153
78.9772
79.379
54.033
60.1632
65.2815
69.3823
72.5876
75.04
76.8633
78.1531
78.9773
79.3791
54.0331
60.1633
65.2816
69.3824
72.5877
75.0401
76.8634
78.1532
78.9774
79.3792
54.0332
60.1634
65.2817
69.3825
72.5878
75.0402
76.8635
78.1534
78.9776
79.3793
54.0334
60.1636
65.2819
69.3827
72.588
75.0404
76.8638
78.1536
78.9778
79.3796
45.3903
50.092
54.1881
57.6029
60.3592
62.5197
64.1543
65.3248
66.0786
66.4477
45.3901
50.0919
54.188
57.6028
60.359
62.5195
64.1541
65.3246
66.0785
66.4476
45.39
50.0917
54.1878
57.6026
60.3589
62.5194
64.154
65.3244
66.0783
66.4475
45.3899
50.0917
54.1878
57.6026
60.3588
62.5193
64.1539
65.3244
66.0783
66.4474
45.3899
50.0916
54.1877
57.6025
60.3588
62.5192
64.1539
65.3243
66.0782
66.4474
45.3899
50.0916
54.1877
57.6025
60.3588
62.5192
64.1539
65.3244
66.0783
66.4474
45.3899
50.0917
54.1878
57.6026
60.3588
62.5193
64.1539
65.3244
66.0783
66.4475
45.39
50.0918
54.1879
57.6027
60.3589
62.5194
64.154
65.3245
66.0784
66.4476
45.3901
50.0919
54.188
57.6028
60.3591
62.5195
64.1542
65.3247
66.0786
66.4478
45.3903
50.0921
54.1882
57.603
60.3592
62.5197
64.1544
65.3249
66.0788
66.448
38.1734
41.7426
44.9407
47.6899
49.9715
51.8016
53.2113
54.234
54.8987
55.2258
38.1733
41.7424
44.9405
47.6897
49.9714
51.8015
53.2111
54.2339
54.8985
55.2256
38.1732
41.7423
44.9404
47.6896
49.9713
51.8013
53.211
54.2338
54.8984
55.2256
38.1731
41.7422
44.9403
47.6896
49.9712
51.8013
53.2109
54.2337
54.8983
55.2255
38.1731
41.7422
44.9403
47.6895
49.9711
51.8012
53.2109
54.2337
54.8983
55.2255
38.1731
41.7422
44.9403
47.6895
49.9712
51.8013
53.2109
54.2337
54.8983
55.2255
38.1731
41.7422
44.9404
47.6896
49.9712
51.8013
53.211
54.2337
54.8984
55.2255
38.1732
41.7423
44.9404
47.6897
49.9713
51.8014
53.2111
54.2338
54.8985
55.2257
38.1733
41.7424
44.9406
47.6898
49.9714
51.8015
53.2112
54.234
54.8986
55.2258
38.1735
41.7426
44.9407
47.69
49.9716
51.8017
53.2114
54.2342
54.8988
55.226
32.1748
34.811
37.2315
39.372
41.1966
42.6938
43.8684
44.7323
45.2991
45.5796
32.1746
34.8108
37.2313
39.3718
41.1964
42.6937
43.8682
44.7321
45.2989
45.5795
32.1745
34.8107
37.2312
39.3717
41.1963
42.6936
43.8681
44.732
45.2989
45.5794
32.1745
34.8107
37.2311
39.3717
41.1962
42.6935
43.868
44.732
45.2988
45.5793
32.1744
34.8106
37.2311
39.3716
41.1962
42.6935
43.868
44.7319
45.2988
45.5793
32.1744
34.8106
37.2311
39.3716
41.1962
42.6935
43.868
44.732
45.2988
45.5793
32.1745
34.8107
37.2312
39.3717
41.1963
42.6935
43.8681
44.732
45.2988
45.5794
32.1746
34.8107
37.2312
39.3718
41.1963
42.6936
43.8682
44.7321
45.2989
45.5795
32.1747
34.8109
37.2314
39.3719
41.1965
42.6938
43.8683
44.7323
45.2991
45.5796
32.1748
34.811
37.2315
39.372
41.1966
42.6939
43.8685
44.7324
45.2993
45.5798
27.2463
29.07
30.8121
32.4123
33.8202
35.0052
35.9532
36.6608
37.1297
37.3631
27.2462
29.0699
30.812